Title
82249
    1SAPS     N    1   4.081   5.781  11.338 -0.0872  0.1739 -0.2442
    1SAPS   HN1    2   4.034   5.689  11.354 -1.5087  0.6141 -1.6369
    1SAPS   HN2    3   4.070   5.845  11.419 -0.7412 -0.8409  0.5058
    1SAPS   HN3    4   4.056   5.823  11.246  0.3187 -1.9463 -1.4065
    1SAPS   C12    5   4.224   5.748  11.355 -0.6570  0.5227  0.4094
    1SAPS  H12A    6   4.281   5.835  11.325  0.8465 -1.1362 -1.8951
    1SAPS   C13    7   4.260   5.708  11.497 -0.3778  0.1430  0.6735
    1SAPS  O13A    8   4.173   5.667  11.581  0.2159 -0.7494 -0.4961
    1SAPS  O13B    9   4.372   5.761  11.533 -1.0081  0.1061 -0.3330
    1SAPS   C11   10   4.258   5.635  11.247  0.0045 -0.2895 -0.0395
    1SAPS  H11A   11   4.368   5.622  11.239 -0.2884 -2.1882 -1.6342
    1SAPS  H11B   12   4.206   5.666  11.154 -0.9345  2.0102  1.1789
    1SAPS     P   13   4.274   5.370  11.308  0.0969 -0.4829 -0.2235
    1SAPS   O13   14   4.423   5.389  11.302 -0.7351 -0.3074  0.2812
    1SAPS   O14   15   4.210   5.302  11.425  0.0083  0.3083  0.2591
    1SAPS   O12   16   4.203   5.507  11.293 -0.2056  0.2156 -0.2757
    1SAPS   O11   17   4.226   5.299  11.180 -0.3068 -0.3774 -0.4470
    1SAPS    C1   18   4.109   5.327  11.102 -0.0056 -0.6389 -0.0662
    1SAPS    HA   19   4.066   5.233  11.061 -1.0378 -0.3869  0.4009
    1SAPS    HB   20   4.033   5.379  11.164  0.1648  0.0671 -0.4427
    1SAPS    C2   21   4.146   5.397  10.976 -1.2461 -0.2472 -0.4830
    1SAPS    HS   22   4.188   5.496  11.003  0.1423 -0.8377 -0.3649
    1SAPS   O21   23   4.038   5.405  10.881  0.1811  0.2401 -0.4370
    1SAPS   C21   24   3.967   5.514  10.891 -0.2812  0.2872  0.2679
    1SAPS   O22   25   3.992   5.603  10.972 -0.5232 -0.0060 -0.1502
    1SAPS   C22   26   3.862   5.537  10.782 -0.2607 -0.2930  0.4608
    1SAPS   H2R   27   3.758   5.515  10.812 -0.4807  0.3883  0.1995
    1SAPS   H2S   28   3.857   5.644  10.753  1.1328 -0.0468  1.0008
    1SAPS    C3   29   4.263   5.317  10.902  0.1862 -0.2306 -0.1810
    1SAPS    HX   30   4.206   5.235  10.854 -2.3729  1.3032 -0.0105
    1SAPS    HY   31   4.339   5.280  10.973  1.4756  1.5299 -0.5537
    1SAPS   O31   32   4.322   5.415  10.805 -0.3198  0.5518 -0.0455
    1SAPS   C31   33   4.427   5.487  10.849 -0.3293  0.4257  0.6897
    1SAPS   O32   34   4.490   5.476  10.954  0.0714 -0.5783 -0.6260
    1SAPS   C32   35   4.442   5.598  10.747 -0.2512  0.3062  0.0338
    1SAPS   H2X   36   4.452   5.692  10.805  0.4603 -1.0998  2.2991
    1SAPS   H2Y   37   4.351   5.614  10.685  0.4597  1.8080 -0.6874
    1SAPS   C23   38   3.902   5.459  10.652  0.1118 -0.3541 -0.3686
    1SAPS   H3R   39   3.899   5.350  10.673 -0.0770 -0.2687  0.0573
    1SAPS   H3S   40   4.008   5.471  10.620  0.8379 -2.8457  0.8440
    1SAPS   C24   41   3.803   5.469  10.534 -0.7329 -0.5929 -0.3261
    1SAPS   H4R   42   3.704   5.473  10.583 -0.5051  0.9488  0.0572
    1SAPS   H4S   43   3.811   5.381  10.467  3.9478 -0.2194 -0.5852
    1SAPS   C25   44   3.817   5.595  10.449  0.4190  0.5879 -0.2951
    1SAPS   H5R   45   3.796   5.690  10.501  0.0204  0.0732  0.5156
    1SAPS   C26   46   3.864   5.600  10.326  0.1544  0.0820 -0.0596
    1SAPS   H6R   47   3.848   5.691  10.266 -0.4195  0.5717  0.8015
    1SAPS   C27   48   3.902   5.483  10.248  0.4505  0.1908  0.6129
    1SAPS   H7R   49   3.834   5.397  10.263  1.6755 -0.8241  0.5464
    1SAPS   H7S   50   4.000   5.446  10.287  0.3076 -0.3544  0.4527
    1SAPS   C28   51   3.906   5.518  10.102 -0.1633 -0.9637 -0.0829
    1SAPS   H8R   52   3.808   5.526  10.052  1.0206  1.7776 -2.2570
    1SAPS   C29   53   4.016   5.537  10.026 -0.2256 -1.2178  0.7305
    1SAPS   H9R   54   3.994   5.591   9.933  0.9347  2.2607  2.2874
    1SAPS  C210   55   4.162   5.537  10.074  0.4466 -0.3814 -0.1243
    1SAPS  H10R   56   4.173   5.586  10.173 -0.2333 -0.9374  0.2293
    1SAPS  H10S   57   4.210   5.602   9.997 -1.8010 -2.1825 -3.2650
    1SAPS  C211   58   4.215   5.398  10.082 -0.0529  0.4545  0.0284
    1SAPS  H11R   59   4.186   5.343  10.173 -2.5607  1.4750 -0.0750
    1SAPS  C212   60   4.302   5.335   9.990  0.3165 -0.3039 -0.6881
    1SAPS  H12R   61   4.311   5.226  10.007  1.0507  0.2180  3.0612
    1SAPS  C213   62   4.356   5.392   9.864  0.7786  0.3416  0.5403
    1SAPS  H13R   63   4.426   5.319   9.817  0.1252 -0.2124  0.4123
    1SAPS  H13S   64   4.427   5.472   9.892  1.1200  1.4483 -3.0499
    1SAPS  C214   65   4.256   5.436   9.753 -0.5487 -0.1466 -0.1947
    1SAPS  H14R   66   4.196   5.523   9.784 -1.8084 -1.2047  0.4298
    1SAPS  C215   67   4.223   5.371   9.642 -0.2993  0.1223  0.0464
    1SAPS  H15R   68   4.158   5.421   9.569 -1.8030  0.1075  1.3263
    1SAPS  C216   69   4.282   5.242   9.596  0.1259 -0.4798  0.2084
    1SAPS  H16R   70   4.196   5.170   9.598  0.2623 -0.6360  1.6632
    1SAPS  H16S   71   4.361   5.197   9.660 -0.3155 -2.9709 -0.8609
    1SAPS  C217   72   4.327   5.246   9.445  0.2779 -0.3804  0.3781
    1SAPS  H17R   73   4.244   5.271   9.376  0.2999  1.7689  1.0609
    1SAPS  H17S   74   4.353   5.140   9.421  3.5772  0.0092  1.7585
    1SAPS  C218   75   4.430   5.353   9.417 -0.0416  0.4059 -0.2939
    1SAPS  H18R   76   4.511   5.335   9.490  0.6433 -0.7999 -1.3130
    1SAPS  H18S   77   4.385   5.454   9.425 -1.6775 -0.2725 -0.3796
    1SAPS  C219   78   4.493   5.343   9.275  0.2144 -0.4646 -0.1394
    1SAPS  H19R   79   4.517   5.235   9.272 -3.0314 -1.3579  1.2773
    1SAPS  H19S   80   4.574   5.419   9.274  1.9618 -2.2081  1.1279
    1SAPS  C220   81   4.395   5.373   9.162 -0.4599  0.5315 -0.1764
    1SAPS  H20R   82   4.405   5.297   9.082 -0.8539 -0.7235  0.9133
    1SAPS  H20S   83   4.404   5.477   9.125  1.4072  0.7123  0.6592
    1SAPS  H20T   84   4.292   5.359   9.202  0.0497 -1.5248  0.5450
    1SAPS   C33   85   4.559   5.579  10.655  0.7864 -0.2719  0.0068
    1SAPS   H3X   86   4.646   5.549  10.718  0.9494  2.2844  1.1172
    1SAPS   H3Y   87   4.595   5.673  10.610  2.5432 -1.2415 -0.7179
    1SAPS   C34   88   4.530   5.485  10.545  0.0012 -0.1642  0.4606
    1SAPS   H4X   89   4.504   5.545  10.455 -1.0577 -2.2647 -0.7184
    1SAPS   H4Y   90   4.446   5.417  10.570  1.3261 -3.2952 -2.6603
    1SAPS   C35   91   4.649   5.386  10.522  0.1655  0.7629 -0.3694
    1SAPS   H5X   92   4.664   5.326  10.614 -3.4930 -0.2760 -0.2797
    1SAPS   H5Y   93   4.740   5.446  10.499  1.1811 -0.9875 -1.1731
    1SAPS   C36   94   4.614   5.301  10.387 -0.4964 -0.7070  0.2624
    1SAPS   H6X   95   4.597   5.389  10.320  0.4219 -1.6485 -1.2633
    1SAPS   H6Y   96   4.520   5.242  10.390 -1.6522  1.0350  0.2116
    1SAPS   C37   97   4.730   5.222  10.333  0.8124 -0.4435 -0.3416
    1SAPS   H7X   98   4.743   5.144  10.410 -0.3818 -0.7553 -0.4366
    1SAPS   H7Y   99   4.821   5.287  10.335 -0.2089  1.0296  1.0493
    1SAPS   C38  100   4.697   5.149  10.202 -0.8179 -0.2303  0.7316
    1SAPS   H8X  101   4.592   5.114  10.189 -0.5709 -1.2052  1.2690
    1SAPS   H8Y  102   4.759   5.058  10.209 -0.0659  0.0126 -1.7630
    1SAPS   C39  103   4.737   5.220  10.074  0.2175  0.5854  0.4049
    1SAPS   H9X  104   4.842   5.257  10.074  0.5779 -0.4105  0.7382
    1SAPS   H9Y  105   4.686   5.319  10.081 -0.3835  0.2753  0.4588
    1SAPS  C310  106   4.702   5.133   9.947 -0.6873 -0.4864  0.0718
    1SAPS  H10X  107   4.592   5.117   9.950 -0.9544  1.2210  2.5786
    1SAPS  H10Y  108   4.751   5.033   9.955  0.0379 -0.2811 -1.5778
    1SAPS  C311  109   4.749   5.187   9.812 -0.3234  0.4911  0.3931
    1SAPS  H11X  110   4.860   5.183   9.821 -0.2515  1.3381 -0.0364
    1SAPS  H11Y  111   4.724   5.295   9.818 -0.2478  0.4503  1.8323
    1SAPS  C312  112   4.715   5.122   9.673  0.0446  0.3566 -0.0316
    1SAPS  H12X  113   4.605   5.137   9.670  0.0543  0.2866 -1.0532
    1SAPS  H12Y  114   4.745   5.015   9.666 -0.7651  0.2418 -3.1994
    1SAPS  C313  115   4.786   5.187   9.565  0.3966 -0.6386 -0.3233
    1SAPS  H13X  116   4.894   5.207   9.584 -0.1302  2.0409  0.2613
    1SAPS  H13Y  117   4.740   5.285   9.542 -2.0577 -1.4432  0.8917
    1SAPS  C314  118   4.778   5.110   9.432  0.1175 -0.3953 -0.1184
    1SAPS  H14X  119   4.672   5.083   9.410  0.1984 -1.0606  0.2742
    1SAPS  H14Y  120   4.825   5.009   9.435  0.3409 -0.3123 -0.7314
    1SAPS  C315  121   4.843   5.179   9.308  0.6579 -0.4333  0.9134
    1SAPS  H15X  122   4.948   5.207   9.331  1.6281 -3.0684  0.1523
    1SAPS  H15Y  123   4.778   5.268   9.299  2.0144  0.5217  0.3373
    1SAPS  C316  124   4.842   5.084   9.187  0.7309  0.1924  0.3665
    1SAPS  H16X  125   4.775   4.996   9.192  1.4731 -0.3006  2.6470
    1SAPS  H16Y  126   4.947   5.046   9.193  0.7067  0.2212  0.9858
    1SAPS  C317  127   4.841   5.172   9.055 -0.4864 -0.0534 -0.5165
    1SAPS  H17X  128   4.893   5.114   8.975  2.9285 -0.8590  2.0599
    1SAPS  H17Y  129   4.910   5.258   9.068  2.3371 -2.0931 -1.1431
    1SAPS  C318  130   4.702   5.220   9.000  0.7967  0.6522  0.0198
    1SAPS  H18X  131   4.670   5.310   9.056  0.9763  0.9746 -0.3857
    1SAPS  H18Y  132   4.633   5.137   9.023  0.9271  0.6933  0.5619
    1SAPS  H18Z  133   4.703   5.244   8.891 -0.3050 -3.4026 -1.0433
    2SAPS     N  134   1.550   0.308  10.898 -0.7317  0.0504 -0.7519
    2SAPS   HN1  135   1.595   0.275  10.986  1.3659  0.5275 -1.5794
    2SAPS   HN2  136   1.466   0.249  10.877 -2.6683  1.2341  2.8279
    2SAPS   HN3  137   1.618   0.309  10.819 -0.5161 -0.9976 -0.6045
    2SAPS   C12  138   1.511   0.452  10.917 -0.4360  0.8642  0.5246
    2SAPS  H12A  139   1.459   0.477  10.826 -1.1607  0.6117  0.8586
    2SAPS   C13  140   1.409   0.474  11.036 -0.4708  1.1390 -0.7839
    2SAPS  O13A  141   1.381   0.370  11.105  0.1657 -0.2178 -0.5634
    2SAPS  O13B  142   1.388   0.591  11.077  0.4960 -0.1251  0.2101
    2SAPS   C11  143   1.630   0.543  10.942  0.2220 -0.0658 -0.2973
    2SAPS  H11A  144   1.653   0.541  11.051  2.7220  2.6705 -0.6483
    2SAPS  H11B  145   1.596   0.639  10.899  0.5985 -0.4730 -1.5333
    2SAPS     P  146   1.877   0.568  10.904  0.1168 -0.2050 -0.1738
    2SAPS   O13  147   1.845   0.710  10.931  0.2558  0.2646  0.3679
    2SAPS   O14  148   1.939   0.490  11.015  0.0009 -0.1653  0.2368
    2SAPS   O12  149   1.738   0.505  10.863  0.0291  0.5106 -0.2709
    2SAPS   O11  150   1.963   0.560  10.766  0.5365 -0.5120  0.3347
    2SAPS    C1  151   1.981   0.432  10.698  0.2384 -0.5298 -0.4398
    2SAPS    HA  152   2.087   0.411  10.675 -0.1038 -3.3368  0.1601
    2SAPS    HB  153   1.949   0.352  10.769  1.5404 -0.3667  0.3603
    2SAPS    C2  154   1.908   0.421  10.565 -0.1138  0.6061  0.4644
    2SAPS    HS  155   1.807   0.467  10.565 -0.3813  0.0421  1.3758
    2SAPS   O21  156   1.901   0.281  10.531 -0.0755 -0.1088 -0.2958
    2SAPS   C21  157   1.825   0.214  10.602  0.0047 -0.2266 -0.2637
    2SAPS   O22  158   1.746   0.251  10.689 -0.2355 -0.2477 -0.3051
    2SAPS   C22  159   1.851   0.068  10.575  0.1631  0.5200 -0.8130
    2SAPS   H2R  160   1.882   0.033  10.475  0.5912 -1.3094 -0.0829
    2SAPS   H2S  161   1.934   0.042  10.645  1.2529  1.9780 -1.5140
    2SAPS    C3  162   1.986   0.502  10.459 -0.2249 -0.4162  0.4761
    2SAPS    HX  163   2.095   0.484  10.467 -0.2175 -0.9579 -0.6742
    2SAPS    HY  164   1.967   0.607  10.489  1.6497 -0.3561  1.6331
    2SAPS   O31  165   1.944   0.476  10.327  0.1590  0.2926  0.7207
    2SAPS   C31  166   2.006   0.557  10.242 -0.4962 -0.0454  0.4983
    2SAPS   O32  167   2.081   0.647  10.273 -1.3335  0.3697 -0.2367
    2SAPS   C32  168   1.980   0.508  10.104 -0.0361 -0.7086 -0.2373
    2SAPS   H2X  169   1.873   0.497  10.074  0.1841  0.5074 -1.5861
    2SAPS   H2Y  170   2.028   0.409  10.090 -1.6745 -1.5422 -0.2215
    2SAPS   C23  171   1.729  -0.020  10.604 -0.0320  0.4017 -0.4633
    2SAPS   H3R  172   1.676   0.016  10.694 -1.6153  1.6055 -1.8099
    2SAPS   H3S  173   1.770  -0.118  10.635 -0.5093  0.4657  0.3941
    2SAPS   C24  174   1.624  -0.043  10.482 -0.4329  0.1255 -1.2425
    2SAPS   H4R  175   1.567  -0.126  10.529 -0.1606  1.2736  1.2813
    2SAPS   H4S  176   1.672  -0.079  10.389  1.9438  1.2840 -0.5406
    2SAPS   C25  177   1.538   0.083  10.455 -0.3468  0.0130  0.3034
    2SAPS   H5R  178   1.480   0.122  10.541 -0.2656 -1.4293  1.0442
    2SAPS   C26  179   1.532   0.159  10.344  0.5982 -0.1138 -0.5334
    2SAPS   H6R  180   1.460   0.242  10.341  0.9266  0.2347  0.6877
    2SAPS   C27  181   1.601   0.131  10.218 -0.1927 -0.0640  0.3178
    2SAPS   H7R  182   1.555   0.160  10.121  0.4511  0.7790  0.2537
    2SAPS   H7S  183   1.615   0.021  10.219 -2.1424 -0.3526  2.3700
    2SAPS   C28  184   1.746   0.177  10.214 -0.1994 -0.0913  0.1788
    2SAPS   H8R  185   1.788   0.207  10.312  0.9754 -2.6225  0.5431
    2SAPS   C29  186   1.839   0.177  10.113 -0.0216 -0.3182 -0.1560
    2SAPS   H9R  187   1.932   0.232  10.136 -0.5001 -0.5480  2.6992
    2SAPS  C210  188   1.829   0.155   9.969  0.0894  0.4040 -0.1632
    2SAPS  H10R  189   1.806   0.047   9.957 -0.3777  0.3762  0.8696
    2SAPS  H10S  190   1.931   0.171   9.927  0.3234  1.5805  0.7752
    2SAPS  C211  191   1.734   0.246   9.887 -0.4093  0.8199 -0.1713
    2SAPS  H11R  192   1.634   0.258   9.930 -0.8728  0.5577 -1.1660
    2SAPS  C212  193   1.762   0.330   9.788 -0.3234  0.2045 -0.2226
    2SAPS  H12R  194   1.679   0.396   9.757  0.7421  0.9494 -1.6331
    2SAPS  C213  195   1.893   0.365   9.720 -0.1736 -0.0649 -0.8243
    2SAPS  H13R  196   1.973   0.374   9.797 -0.7917  2.1135 -0.3573
    2SAPS  H13S  197   1.887   0.466   9.676 -1.2636 -0.0476 -0.6778
    2SAPS  C214  198   1.943   0.268   9.609 -0.2449  0.3456 -0.0769
    2SAPS  H14R  199   2.031   0.203   9.624  0.1464  0.0947 -2.9362
    2SAPS  C215  200   1.895   0.271   9.479  0.3242 -0.3676 -0.0293
    2SAPS  H15R  201   1.927   0.202   9.400  0.4167  1.7532 -1.9512
    2SAPS  C216  202   1.794   0.360   9.431 -0.8375  0.5578 -0.2051
    2SAPS  H16R  203   1.754   0.432   9.506 -0.3760 -0.9365  1.5461
    2SAPS  H16S  204   1.713   0.302   9.381  0.6608 -1.1202 -0.7645
    2SAPS  C217  205   1.873   0.453   9.329 -0.3730 -0.2662  0.7602
    2SAPS  H17R  206   1.955   0.506   9.383  0.3530 -0.8618  0.2638
    2SAPS  H17S  207   1.801   0.535   9.308  1.5842  1.1434 -0.8443
    2SAPS  C218  208   1.911   0.382   9.196 -0.2361 -0.7996  0.3558
    2SAPS  H18R  209   1.814   0.337   9.168 -1.5038 -0.2194  3.4162
    2SAPS  H18S  210   1.979   0.294   9.200 -0.4747 -0.9266  2.5484
    2SAPS  C219  211   1.961   0.478   9.088 -0.5965  0.4581  0.3801
    2SAPS  H19R  212   1.878   0.547   9.062  0.4754  1.2634 -1.0892
    2SAPS  H19S  213   1.967   0.418   8.994 -3.2353 -0.6909  0.8483
    2SAPS  C220  214   2.095   0.550   9.118 -0.3718 -0.2679 -0.2309
    2SAPS  H20R  215   2.062   0.642   9.169 -2.2580 -0.8124 -0.4128
    2SAPS  H20S  216   2.151   0.577   9.025  2.5125  2.1589  2.0109
    2SAPS  H20T  217   2.160   0.484   9.180 -0.6412  1.4421  1.9676
    2SAPS   C33  218   2.027   0.610   9.996 -0.4836 -0.7675 -0.1599
    2SAPS   H3X  219   1.995   0.560   9.902 -1.6242 -0.0524 -0.1652
    2SAPS   H3Y  220   2.137   0.626   9.992 -0.6831  1.0596  0.7834
    2SAPS   C34  221   1.950   0.738  10.008  0.4661 -0.7465 -0.0000
    2SAPS   H4X  222   1.981   0.786  10.103  0.3829 -1.3954  0.3636
    2SAPS   H4Y  223   1.841   0.716  10.017  0.3130  0.2381  0.6591
    2SAPS   C35  224   1.966   0.839   9.891  0.5374 -0.0672 -0.4453
    2SAPS   H5X  225   2.072   0.855   9.863  0.4678 -1.2308 -1.4780
    2SAPS   H5Y  226   1.927   0.937   9.926 -0.1109 -0.4694 -0.0195
    2SAPS   C36  227   1.893   0.779   9.764 -0.0114 -0.2775 -0.5186
    2SAPS   H6X  228   1.789   0.765   9.800 -0.4472  2.4080 -0.5479
    2SAPS   H6Y  229   1.936   0.680   9.734  3.5915  1.1628 -0.6345
    2SAPS   C37  230   1.904   0.873   9.652  0.2884 -0.2007  2.0716
    2SAPS   H7X  231   1.946   0.972   9.677  0.7952  0.3286 -0.5678
    2SAPS   H7Y  232   1.799   0.887   9.618  0.8240 -1.5393 -0.4340
    2SAPS   C38  233   1.992   0.824   9.537  0.4357 -0.0240  0.2733
    2SAPS   H8X  234   1.971   0.719   9.509  0.2239  0.1134 -0.1012
    2SAPS   H8Y  235   2.097   0.822   9.571 -0.7051 -0.3776  4.2126
    2SAPS   C39  236   1.961   0.900   9.407 -0.0859  0.3669 -0.0060
    2SAPS   H9X  237   1.940   1.003   9.442 -0.3603 -0.4367  2.3728
    2SAPS   H9Y  238   1.873   0.865   9.348 -0.2366  0.4106  0.1914
    2SAPS  C310  239   2.088   0.915   9.321  0.6550  0.0987  0.2057
    2SAPS  H10X  240   2.131   0.816   9.297 -0.4607 -0.2710 -0.3435
    2SAPS  H10Y  241   2.172   0.974   9.363  1.2555 -1.2249  0.9301
    2SAPS  C311  242   2.039   0.978   9.193  0.4557 -0.9794  0.4591
    2SAPS  H11X  243   2.035   1.086   9.217  0.0089 -1.4311  2.7402
    2SAPS  H11Y  244   1.940   0.944   9.156  1.8777 -2.8582 -1.9018
    2SAPS  C312  245   2.125   0.945   9.075 -0.5043  0.4875  1.2281
    2SAPS  H12X  246   2.131   0.834   9.071 -0.6182  0.4861  1.0730
    2SAPS  H12Y  247   2.229   0.977   9.098  0.9521 -2.3173 -0.8832
    2SAPS  C313  248   2.084   1.003   8.943  0.5818  0.7719 -0.2315
    2SAPS  H13X  249   2.093   1.113   8.955 -0.0883  0.7943  0.1273
    2SAPS  H13Y  250   1.983   0.975   8.905  1.2763 -0.3444 -1.3212
    2SAPS  C314  251   2.187   0.972   8.832  0.0022 -0.0089 -0.3261
    2SAPS  H14X  252   2.189   0.861   8.819  1.0448 -0.0433  0.0481
    2SAPS  H14Y  253   2.287   1.005   8.867  0.3544  0.6055 -1.8571
    2SAPS  C315  254   2.169   1.051   8.700 -0.6242  0.4104 -0.1704
    2SAPS  H15X  255   2.172   1.161   8.716 -1.2863  0.4870 -0.5603
    2SAPS  H15Y  256   2.064   1.029   8.671 -1.0535  1.8063  0.2148
    2SAPS  C316  257   2.268   1.003   8.592 -0.1319 -0.0026 -0.4119
    2SAPS  H16X  258   2.266   0.897   8.559 -0.3759 -0.1485  0.0627
    2SAPS  H16Y  259   2.373   1.028   8.620 -0.1955  2.1048 -1.8384
    2SAPS  C317  260   2.239   1.082   8.457  0.6162 -0.3558 -0.7409
    2SAPS  H17X  261   2.238   1.190   8.483 -2.2976 -0.5439  0.3086
    2SAPS  H17Y  262   2.135   1.046   8.441 -0.2809  2.4182 -1.8264
    2SAPS  C318  263   2.331   1.051   8.339  0.1896  0.0138 -0.6005
    2SAPS  H18X  264   2.298   1.112   8.252  0.0258 -0.3883 -0.8227
    2SAPS  H18Y  265   2.331   0.944   8.307  1.3814 -0.5385  1.1003
    2SAPS  H18Z  266   2.438   1.075   8.355  0.3855 -0.9482 -0.3928
    3SAPS     N  267   5.484   4.695  11.282  0.3580  0.3936 -0.2752
    3SAPS   HN1  268   5.424   4.700  11.197 -0.0720 -0.3724 -0.0281
    3SAPS   HN2  269   5.555   4.625  11.251  0.3724  1.6926 -3.5205
    3SAPS   HN3  270   5.418   4.667  11.357 -2.5326  0.3463 -2.6753
    3SAPS   C12  271   5.548   4.825  11.315 -0.4495  0.1772 -0.0332
    3SAPS  H12A  272   5.471   4.894  11.346  1.5354  2.3358  0.3606
    3SAPS   C13  273   5.653   4.807  11.428 -0.7367 -0.6722 -0.3938
    3SAPS  O13A  274   5.676   4.696  11.476 -0.1605 -0.0119 -0.0939
    3SAPS  O13B  275   5.713   4.912  11.470  0.5462 -0.6505  0.6795
    3SAPS   C11  276   5.613   4.896  11.192 -0.3450  0.2651 -0.2988
    3SAPS  H11A  277   5.652   4.993  11.228 -1.9985  1.6454 -2.0312
    3SAPS  H11B  278   5.532   4.919  11.119 -0.4712 -1.3283 -0.7050
    3SAPS     P  279   5.831   4.870  11.047 -0.1857  0.2246  0.3092
    3SAPS   O13  280   5.836   5.015  11.069  0.6857 -0.6823 -0.4245
    3SAPS   O14  281   5.957   4.798  11.081 -0.1866  0.1633  1.2220
    3SAPS   O12  282   5.716   4.823  11.141 -0.9373 -0.1710  0.2014
    3SAPS   O11  283   5.782   4.833  10.901 -0.2078  0.4386 -0.5239
    3SAPS    C1  284   5.836   4.718  10.833  0.1294  1.0090 -0.5893
    3SAPS    HA  285   5.944   4.712  10.856  0.0654  0.0571 -0.5187
    3SAPS    HB  286   5.795   4.626  10.878 -0.5807  0.1113 -2.8945
    3SAPS    C2  287   5.825   4.720  10.677 -0.0903 -0.2631 -0.3527
    3SAPS    HS  288   5.880   4.630  10.644 -0.2084 -0.3064 -0.4338
    3SAPS   O21  289   5.886   4.850  10.644  0.4327  0.1935 -0.0659
    3SAPS   C21  290   5.922   4.849  10.514 -0.1887  0.4090  0.0117
    3SAPS   O22  291   5.910   4.752  10.441  0.1536  0.9190 -0.1561
    3SAPS   C22  292   5.984   4.982  10.469  0.2126  0.2232  0.4294
    3SAPS   H2R  293   5.990   5.051  10.555 -0.9259 -0.5973  1.2011
    3SAPS   H2S  294   6.090   4.958  10.444 -0.6307 -1.6891 -1.6181
    3SAPS    C3  295   5.685   4.718  10.618 -0.0303  0.4306 -0.6364
    3SAPS    HX  296   5.678   4.749  10.512  0.6513  1.2328 -0.4605
    3SAPS    HY  297   5.626   4.793  10.674 -0.9341 -1.0746  0.4797
    3SAPS   O31  298   5.633   4.586  10.645 -0.0370  0.2727 -1.4912
    3SAPS   C31  299   5.514   4.573  10.594  0.2058  0.4894 -0.0078
    3SAPS   O32  300   5.448   4.659  10.541  0.7429 -0.1419 -0.3971
    3SAPS   C32  301   5.458   4.431  10.610 -0.5853 -0.6749 -0.0936
    3SAPS   H2X  302   5.394   4.412  10.521 -0.0855 -1.0405 -0.3818
    3SAPS   H2Y  303   5.406   4.431  10.708  0.0908  1.8489  0.3165
    3SAPS   C23  304   5.918   5.044  10.343 -0.0027  0.3176 -0.0238
    3SAPS   H3R  305   5.875   4.962  10.281  0.7616  1.2078 -1.8130
    3SAPS   H3S  306   5.990   5.099  10.278 -0.8111  1.5380  0.0937
    3SAPS   C24  307   5.813   5.148  10.383 -0.7921  0.6366  0.2670
    3SAPS   H4R  308   5.783   5.215  10.300  0.1556  0.3608 -0.3166
    3SAPS   H4S  309   5.857   5.227  10.448 -0.5399  0.2138  0.6131
    3SAPS   C25  310   5.688   5.091  10.449  0.1765 -0.5097 -0.0819
    3SAPS   H5R  311   5.684   5.101  10.558 -2.4228 -0.5768 -0.1008
    3SAPS   C26  312   5.577   5.048  10.394 -0.8337  0.3029  0.8308
    3SAPS   H6R  313   5.503   5.000  10.461 -0.4816  2.1763  2.6585
    3SAPS   C27  314   5.561   5.047  10.245  0.0838 -0.1318  0.3522
    3SAPS   H7R  315   5.642   4.991  10.194 -2.4672 -1.6372 -2.3537
    3SAPS   H7S  316   5.569   5.150  10.205  1.2394 -0.4034 -0.1500
    3SAPS   C28  317   5.435   4.981  10.188 -0.4698 -0.0138  0.5618
    3SAPS   H8R  318   5.373   4.922  10.256  0.2485 -0.4185  0.8845
    3SAPS   C29  319   5.406   4.982  10.056  0.6434  0.6183 -0.1665
    3SAPS   H9R  320   5.309   4.943  10.021  1.0660  1.4569 -2.5042
    3SAPS  C210  321   5.494   5.048   9.955 -1.1484 -0.1905  0.3118
    3SAPS  H10R  322   5.573   4.974   9.934 -0.3521  0.6701  0.1836
    3SAPS  H10S  323   5.553   5.130  10.002 -0.7797 -0.2322 -0.0782
    3SAPS  C211  324   5.431   5.082   9.829 -0.2261  0.3845 -0.0679
    3SAPS  H11R  325   5.401   5.188   9.832 -1.1347  0.1477 -0.2829
    3SAPS  C212  326   5.408   5.000   9.728 -0.3613 -0.1629  0.7728
    3SAPS  H12R  327   5.372   5.040   9.633 -1.6760 -1.0914  0.8504
    3SAPS  C213  328   5.454   4.854   9.719  1.0793  0.8136 -0.6116
    3SAPS  H13R  329   5.378   4.791   9.770  1.6014 -0.6685 -1.5837
    3SAPS  H13S  330   5.556   4.850   9.763 -0.0853 -1.2572  2.2350
    3SAPS  C214  331   5.473   4.796   9.578 -0.1807  0.2765  1.1188
    3SAPS  H14R  332   5.479   4.861   9.489  1.8965 -3.3416 -1.6302
    3SAPS  C215  333   5.487   4.666   9.537 -0.0666 -0.1623 -0.2717
    3SAPS  H15R  334   5.508   4.649   9.431 -0.7065 -1.2181 -0.2378
    3SAPS  C216  335   5.496   4.553   9.639 -0.1674  0.1001  0.5425
    3SAPS  H16R  336   5.455   4.471   9.577  0.0090  1.0339 -0.8655
    3SAPS  H16S  337   5.428   4.568   9.725 -0.0707 -2.3646  1.1230
    3SAPS  C217  338   5.638   4.527   9.689 -0.4825 -0.0469 -0.5556
    3SAPS  H17R  339   5.647   4.447   9.766  0.3543  0.9122  0.3772
    3SAPS  H17S  340   5.681   4.615   9.742  3.4768 -2.9376  1.5870
    3SAPS  C218  341   5.724   4.478   9.570  0.4500 -0.0113  0.3044
    3SAPS  H18R  342   5.775   4.557   9.510  1.3117  0.0594  1.1006
    3SAPS  H18S  343   5.658   4.419   9.504  1.2891  1.2886 -1.8009
    3SAPS  C219  344   5.838   4.375   9.608 -0.5683  0.4215  0.1050
    3SAPS  H19R  345   5.878   4.325   9.517 -0.8810 -0.1448  0.2728
    3SAPS  H19S  346   5.795   4.298   9.676  0.7274  1.4271  2.1943
    3SAPS  C220  347   5.957   4.443   9.677  0.4811  0.1390  0.1195
    3SAPS  H20R  348   5.916   4.461   9.778 -0.0362 -0.0456 -0.0559
    3SAPS  H20S  349   5.970   4.543   9.631 -0.0099 -1.1010 -2.9331
    3SAPS  H20T  350   6.048   4.378   9.672 -0.4636 -1.1438 -2.7295
    3SAPS   C33  351   5.569   4.323  10.618 -0.1244 -0.5627  0.4288
    3SAPS   H3X  352   5.634   4.336  10.707  0.4872  0.1617 -0.1115
    3SAPS   H3Y  353   5.636   4.320  10.530 -0.5071 -1.4064  0.1522
    3SAPS   C34  354   5.503   4.179  10.624 -0.8510  0.1397  0.2748
    3SAPS   H4X  355   5.424   4.192  10.700  1.3641 -0.7268  2.8680
    3SAPS   H4Y  356   5.570   4.102  10.669 -0.6621  1.5114  2.4786
    3SAPS   C35  357   5.437   4.130  10.498 -0.7470  0.8794  0.3405
    3SAPS   H5X  358   5.397   4.216  10.439 -1.5216  1.0036  1.0237
    3SAPS   H5Y  359   5.346   4.067  10.509  0.4635 -1.7047 -3.0112
    3SAPS   C36  360   5.537   4.046  10.415  0.1306 -0.1701 -0.0949
    3SAPS   H6X  361   5.584   3.972  10.484  0.7658  0.8161  0.5596
    3SAPS   H6Y  362   5.617   4.118  10.388 -0.7836  0.9351  0.0667
    3SAPS   C37  363   5.478   3.989  10.285  0.2558 -0.4686 -0.5950
    3SAPS   H7X  364   5.396   3.917  10.306 -0.9612  1.3080  1.0211
    3SAPS   H7Y  365   5.557   3.929  10.235  1.4445  0.4679  0.0933
    3SAPS   C38  366   5.434   4.089  10.176  0.5300  0.3664  1.0451
    3SAPS   H8X  367   5.511   4.169  10.181 -0.0772  0.9952  0.4548
    3SAPS   H8Y  368   5.338   4.139  10.201  0.9277  1.6351  0.1206
    3SAPS   C39  369   5.424   4.025  10.035  0.0167  0.1591  0.6966
    3SAPS   H9X  370   5.350   3.942  10.039  2.0804 -1.8070 -0.0585
    3SAPS   H9Y  371   5.522   3.983  10.003 -0.6146  0.5855 -2.0757
    3SAPS  C310  372   5.377   4.121   9.927 -0.8523 -0.4905 -0.4875
    3SAPS  H10X  373   5.442   4.210   9.938 -1.4396 -0.3952  3.6367
    3SAPS  H10Y  374   5.271   4.136   9.957 -0.8951 -3.4999  1.3257
    3SAPS  C311  375   5.370   4.087   9.777 -0.2039 -0.2562 -0.3135
    3SAPS  H11X  376   5.330   4.184   9.740  0.4904  1.2257  2.5122
    3SAPS  H11Y  377   5.303   4.001   9.754  0.8583 -0.9069 -1.0338
    3SAPS  C312  378   5.511   4.061   9.719 -0.1696 -0.1398  0.2749
    3SAPS  H12X  379   5.538   3.964   9.766 -0.4613 -0.5963 -0.4890
    3SAPS  H12Y  380   5.577   4.141   9.760 -0.1241  0.3589 -0.7432
    3SAPS  C313  381   5.523   4.060   9.565  0.3349  0.1045 -0.6029
    3SAPS  H13X  382   5.484   4.154   9.520  1.9000  0.6563 -0.8595
    3SAPS  H13Y  383   5.453   3.985   9.523  2.4805 -0.9980 -2.3940
    3SAPS  C314  384   5.667   4.021   9.529 -0.1307 -0.2195 -0.4243
    3SAPS  H14X  385   5.693   3.919   9.563  0.5766  0.4753  1.1986
    3SAPS  H14Y  386   5.728   4.090   9.590 -0.8805 -1.9498  2.4478
    3SAPS  C315  387   5.688   4.026   9.373 -0.0712 -0.0812 -0.0664
    3SAPS  H15X  388   5.678   4.135   9.351 -0.1030  0.0943  0.7492
    3SAPS  H15Y  389   5.615   3.967   9.313 -0.8895  1.0012 -0.1758
    3SAPS  C316  390   5.825   3.972   9.344 -1.1335 -0.4210 -0.0203
    3SAPS  H16X  391   5.829   3.870   9.389 -4.1333 -0.2921  0.7156
    3SAPS  H16Y  392   5.912   4.025   9.390  0.7306 -0.8838 -2.7736
    3SAPS  C317  393   5.852   3.962   9.194 -0.4135 -0.4697 -0.1218
    3SAPS  H17X  394   5.804   4.049   9.142  1.0362  0.5234  0.1248
    3SAPS  H17Y  395   5.800   3.875   9.150 -0.6216  0.0853 -1.0113
    3SAPS  C318  396   5.996   3.976   9.144  0.0796 -0.0591  0.2033
    3SAPS  H18X  397   6.029   4.080   9.161  0.1041 -0.0062 -0.1585
    3SAPS  H18Y  398   5.983   3.959   9.035 -0.7835 -2.8687  0.6503
    3SAPS  H18Z  399   6.074   3.910   9.187 -0.5270 -0.3971  0.8080
    4SAPS     N  400   6.708   2.008  11.486  0.7088  0.0152  0.1043
    4SAPS   HN1  401   6.740   1.910  11.477  2.0218  0.4740 -0.5808
    4SAPS   HN2  402   6.773   2.081  11.448 -0.6353  1.1087 -0.2020
    4SAPS   HN3  403   6.695   2.021  11.588 -1.5170 -0.1370 -0.1002
    4SAPS   C12  404   6.579   2.039  11.417 -0.3981 -0.9897 -0.1160
    4SAPS  H12A  405   6.508   1.958  11.413 -1.1612 -0.2815 -2.0192
    4SAPS   C13  406   6.511   2.164  11.480  0.0041  0.0868 -0.1024
    4SAPS  O13A  407   6.549   2.222  11.584 -0.6688  0.4759 -0.1078
    4SAPS  O13B  408   6.420   2.212  11.410  0.1534  0.4598  0.2606
    4SAPS   C11  409   6.606   2.060  11.261  0.5166  0.3079  0.3723
    4SAPS  H11A  410   6.683   2.136  11.236 -0.5880  1.7090  1.1126
    4SAPS  H11B  411   6.511   2.095  11.215  0.0265 -1.3403  0.0502
    4SAPS     P  412   6.544   1.840  11.134  0.0768  0.0569  0.6503
    4SAPS   O13  413   6.504   1.734  11.225 -0.1447  0.2749 -0.5183
    4SAPS   O14  414   6.433   1.931  11.087 -0.8925 -0.3046  0.4617
    4SAPS   O12  415   6.645   1.931  11.206  0.6773  0.3821 -0.1678
    4SAPS   O11  416   6.629   1.780  11.014 -0.1893  0.3523 -0.2762
    4SAPS    C1  417   6.761   1.824  10.987 -0.4846 -0.1711 -0.1586
    4SAPS    HA  418   6.826   1.823  11.077 -0.6849  0.4465  0.0026
    4SAPS    HB  419   6.812   1.748  10.924 -0.2200  0.7549 -1.0913
    4SAPS    C2  420   6.769   1.960  10.913  0.0161 -0.1428 -0.2416
    4SAPS    HS  421   6.725   2.028  10.988 -1.7171 -0.4602 -0.9285
    4SAPS   O21  422   6.692   1.954  10.797 -0.4198 -0.0029  0.5237
    4SAPS   C21  423   6.646   2.059  10.748 -0.1796  0.7129  0.0192
    4SAPS   O22  424   6.628   2.165  10.807  0.3319 -0.0076  0.4441
    4SAPS   C22  425   6.596   2.031  10.612  0.6442  0.7720  0.3637
    4SAPS   H2R  426   6.649   2.099  10.542  0.9303  0.5943  0.4108
    4SAPS   H2S  427   6.629   1.936  10.566 -0.4600  0.6433 -0.2096
    4SAPS    C3  428   6.921   1.996  10.884  0.1946 -0.0444 -0.1137
    4SAPS    HX  429   6.961   1.997  10.987 -3.1867 -1.3308  1.3595
    4SAPS    HY  430   6.930   2.104  10.859 -1.3084 -0.0973 -1.0420
    4SAPS   O31  431   6.991   1.895  10.799  0.4160 -0.0912 -0.7493
    4SAPS   C31  432   6.975   1.915  10.670 -0.1694 -1.2997  0.0396
    4SAPS   O32  433   6.933   2.022  10.633  0.4078  0.4824 -0.2770
    4SAPS   C32  434   7.022   1.803  10.583  0.9025  0.0132  0.8137
    4SAPS   H2X  435   7.010   1.713  10.647  1.8674 -1.0928 -0.5085
    4SAPS   H2Y  436   7.129   1.821  10.559  1.2286 -1.3123  1.2022
    4SAPS   C23  437   6.440   2.039  10.587 -0.8232 -0.7557 -0.2234
    4SAPS   H3R  438   6.403   2.137  10.623 -0.7943 -1.1281  0.8582
    4SAPS   H3S  439   6.388   1.954  10.636 -0.7165 -0.3388  0.6297
    4SAPS   C24  440   6.409   2.024  10.437  0.4180  0.3062  0.8280
    4SAPS   H4R  441   6.298   2.025  10.425  0.6199 -2.6707 -3.3976
    4SAPS   H4S  442   6.447   1.925  10.406  0.9535 -0.0147  2.3907
    4SAPS   C25  443   6.484   2.119  10.342 -0.3374 -0.4982  0.2002
    4SAPS   H5R  444   6.573   2.080  10.289 -1.4843 -1.1938 -1.3057
    4SAPS   C26  445   6.443   2.241  10.319 -0.3259 -0.2987  0.3448
    4SAPS   H6R  446   6.508   2.299  10.251  1.8354 -2.2132  0.6340
    4SAPS   C27  447   6.326   2.311  10.384  0.1864  0.2549 -0.8929
    4SAPS   H7R  448   6.285   2.252  10.469  3.2871  0.6800  1.0404
    4SAPS   H7S  449   6.243   2.306  10.311 -0.7840 -2.9121  0.2464
    4SAPS   C28  450   6.372   2.444  10.436  0.2696  0.1615  0.2179
    4SAPS   H8R  451   6.454   2.452  10.509  0.3298 -0.6877  0.2567
    4SAPS   C29  452   6.318   2.566  10.388 -0.4485 -0.2541 -0.8319
    4SAPS   H9R  453   6.368   2.658  10.420 -2.3073  0.9532 -1.2230
    4SAPS  C210  454   6.205   2.585  10.289 -0.4268 -0.1220 -0.1570
    4SAPS  H10R  455   6.105   2.592  10.335 -1.3137 -0.4193 -1.9718
    4SAPS  H10S  456   6.185   2.493  10.229 -1.0076  0.1029 -0.3063
    4SAPS  C211  457   6.228   2.706  10.197 -0.7883  0.1630 -0.0237
    4SAPS  H11R  458   6.278   2.795  10.239 -0.0666 -0.5132  0.5871
    4SAPS  C212  459   6.214   2.701  10.065  0.0070 -0.4882  0.0227
    4SAPS  H12R  460   6.228   2.793  10.006  0.7714 -1.0624 -0.7203
    4SAPS  C213  461   6.155   2.593   9.981  0.0098  0.4930 -0.4225
    4SAPS  H13R  462   6.083   2.630   9.906 -0.8713 -0.6850 -0.1858
    4SAPS  H13S  463   6.086   2.530  10.042  2.1113 -0.8252  0.7466
    4SAPS  C214  464   6.269   2.506   9.931 -0.3720 -0.7347 -0.1841
    4SAPS  H14R  465   6.356   2.506   9.999 -0.9682  2.0238  0.7000
    4SAPS  C215  466   6.280   2.442   9.813 -0.7946 -0.0958  0.7845
    4SAPS  H15R  467   6.376   2.389   9.800 -0.9006 -0.4079  1.2661
    4SAPS  C216  468   6.187   2.444   9.690 -0.5961  0.0650  0.2360
    4SAPS  H16R  469   6.136   2.541   9.676 -0.8017 -0.0231  0.3703
    4SAPS  H16S  470   6.103   2.373   9.705  0.0592 -1.6549 -3.1472
    4SAPS  C217  471   6.256   2.402   9.559 -0.8326 -0.4374 -0.0087
    4SAPS  H17R  472   6.200   2.410   9.463  2.6246 -1.6911 -2.3090
    4SAPS  H17S  473   6.294   2.299   9.569 -1.2590 -0.5989 -0.0138
    4SAPS  C218  474   6.388   2.480   9.537  0.2819  0.4953  0.0796
    4SAPS  H18R  475   6.467   2.435   9.600 -0.5596 -1.3549 -0.1037
    4SAPS  H18S  476   6.367   2.587   9.561 -1.8335 -0.0662  0.9241
    4SAPS  C219  477   6.441   2.460   9.389 -1.0219  0.1850 -0.1100
    4SAPS  H19R  478   6.356   2.495   9.326 -2.0865 -1.1442  0.5172
    4SAPS  H19S  479   6.469   2.356   9.362 -0.1263  0.0049  1.3628
    4SAPS  C220  480   6.573   2.537   9.367  0.0869  0.4482 -0.1105
    4SAPS  H20R  481   6.556   2.643   9.396 -0.0629  0.0386  1.3678
    4SAPS  H20S  482   6.615   2.526   9.264 -1.0705  1.0663 -0.6668
    4SAPS  H20T  483   6.651   2.500   9.437  0.2265  1.5772  0.3502
    4SAPS   C33  484   6.943   1.804  10.443  0.0578 -0.7441  0.1682
    4SAPS   H3X  485   6.839   1.840  10.462 -0.5907 -3.0003  1.3232
    4SAPS   H3Y  486   6.927   1.699  10.409  1.3028 -1.2151  0.9760
    4SAPS   C34  487   7.011   1.902  10.348  1.0111  0.4119  0.7067
    4SAPS   H4X  488   7.102   1.851  10.309 -0.2123 -0.0140 -1.7070
    4SAPS   H4Y  489   7.042   1.998  10.394 -3.4841  1.9425  1.0294
    4SAPS   C35  490   6.933   1.928  10.213 -0.4259  0.0203  0.3711
    4SAPS   H5X  491   6.860   2.010  10.232  0.3374  0.1413  3.2109
    4SAPS   H5Y  492   6.870   1.840  10.187  0.0777  0.2118 -1.6390
    4SAPS   C36  493   7.016   1.964  10.087  0.4615  0.2272  0.6958
    4SAPS   H6X  494   7.099   1.889  10.084  0.2285 -0.0081 -1.9192
    4SAPS   H6Y  495   7.062   2.064  10.101 -1.8614  1.4474 -0.0169
    4SAPS   C37  496   6.939   1.980   9.958  1.2052  0.6264  0.1181
    4SAPS   H7X  497   6.849   2.037   9.988  1.4645 -0.3727  3.1114
    4SAPS   H7Y  498   6.906   1.881   9.920  1.4054  0.4625  0.3680
    4SAPS   C38  499   7.020   2.049   9.841 -0.1298  0.3220 -0.0079
    4SAPS   H8X  500   7.106   1.989   9.806  0.3815  0.5406  0.8441
    4SAPS   H8Y  501   7.057   2.149   9.875 -4.3439  2.7104 -1.7029
    4SAPS   C39  502   6.933   2.085   9.710 -0.2969 -0.4415 -0.3445
    4SAPS   H9X  503   6.834   2.118   9.749  0.1555  0.2407  0.2688
    4SAPS   H9Y  504   6.929   1.991   9.652  0.0737 -0.5686 -0.1672
    4SAPS  C310  505   6.976   2.205   9.632  0.7296  0.2888 -0.1171
    4SAPS  H10X  506   7.082   2.188   9.603  0.3397 -0.6548 -1.0435
    4SAPS  H10Y  507   6.970   2.291   9.702  1.2069  0.3067 -0.0953
    4SAPS  C311  508   6.892   2.229   9.505 -0.3002 -0.3311  0.2290
    4SAPS  H11X  509   6.907   2.331   9.462 -1.4215 -0.5859 -0.8051
    4SAPS  H11Y  510   6.782   2.226   9.522 -0.6348  3.7808 -0.1296
    4SAPS  C312  511   6.937   2.157   9.375 -0.8421 -0.1602 -0.5093
    4SAPS  H12X  512   6.923   2.048   9.389 -0.6976  0.1225  2.3504
    4SAPS  H12Y  513   7.044   2.177   9.356 -0.8740 -0.9268 -1.5905
    4SAPS  C313  514   6.865   2.213   9.254  0.2283  0.4097  1.1755
    4SAPS  H13X  515   6.754   2.208   9.259 -0.0393  3.4198  0.1563
    4SAPS  H13Y  516   6.900   2.150   9.169 -2.1730  0.9636 -0.3166
    4SAPS  C314  517   6.911   2.350   9.201 -0.2155  0.6890  0.0638
    4SAPS  H14X  518   6.893   2.415   9.289  0.1895 -0.5404  1.0748
    4SAPS  H14Y  519   6.849   2.383   9.114 -2.4181 -1.5119  0.6799
    4SAPS  C315  520   7.064   2.356   9.165 -0.5076  0.4269  0.0883
    4SAPS  H15X  521   7.094   2.286   9.084  1.3664  1.0273  0.2181
    4SAPS  H15Y  522   7.128   2.331   9.252 -0.8698  0.8697  0.4845
    4SAPS  C316  523   7.100   2.495   9.126  0.5815 -0.1110  0.2284
    4SAPS  H16X  524   7.069   2.568   9.204 -0.4019  0.4237 -0.6368
    4SAPS  H16Y  525   7.038   2.531   9.042 -2.4584  0.8723  2.7029
    4SAPS  C317  526   7.254   2.514   9.098  0.0816  0.1213 -0.8425
    4SAPS  H17X  527   7.287   2.447   9.015 -1.2818  0.3264 -1.5704
    4SAPS  H17Y  528   7.305   2.487   9.193 -0.2034  1.6098 -0.2348
    4SAPS  C318  529   7.285   2.656   9.052  0.6839 -0.5202  0.6025
    4SAPS  H18X  530   7.256   2.667   8.945 -0.4233 -2.5374  0.6410
    4SAPS  H18Y  531   7.391   2.687   9.045  0.3706  0.2363 -1.7162
    4SAPS  H18Z  532   7.226   2.728   9.112 -0.6957 -0.4397 -0.7755
    5SAPS     N  533   5.507   0.435  11.415 -0.1732  0.9162 -0.4325
    5SAPS   HN1  534   5.484   0.335  11.397 -0.3770  0.3975  2.2352
    5SAPS   HN2  535   5.524   0.434  11.517  0.4261  0.4849 -0.5332
    5SAPS   HN3  536   5.419   0.489  11.399  0.5358  1.3592 -3.3430
    5SAPS   C12  537   5.620   0.471  11.335 -0.1556 -0.0991 -0.8471
    5SAPS  H12A  538   5.654   0.567  11.370  0.5188  0.1517 -2.1377
    5SAPS   C13  539   5.739   0.379  11.353 -0.2721 -0.2837 -0.5919
    5SAPS  O13A  540   5.734   0.273  11.424  0.8330 -0.4365  0.6864
    5SAPS  O13B  541   5.841   0.414  11.290 -0.2606  0.4342  0.0831
    5SAPS   C11  542   5.575   0.488  11.182  0.5459  0.0089 -0.4354
    5SAPS  H11A  543   5.554   0.380  11.163 -0.0451  0.0073  0.1552
    5SAPS  H11B  544   5.656   0.515  11.111 -0.9049  0.3358 -2.0297
    5SAPS     P  545   5.488   0.724  11.138 -0.3607 -0.2921  0.4184
    5SAPS   O13  546   5.355   0.795  11.130 -0.2214 -0.0296  0.0957
    5SAPS   O14  547   5.595   0.770  11.232  0.0250 -0.1491  0.2368
    5SAPS   O12  548   5.458   0.579  11.163 -0.0182  0.3904  0.9492
    5SAPS   O11  549   5.540   0.726  10.991  0.1771  0.5942 -0.4226
    5SAPS    C1  550   5.475   0.672  10.877 -0.4739  0.4490  0.0578
    5SAPS    HA  551   5.406   0.590  10.906  0.4343 -0.2251  0.3648
    5SAPS    HB  552   5.409   0.750  10.833 -0.4145  0.9977  0.9090
    5SAPS    C2  553   5.577   0.623  10.761  0.7209 -0.4312 -0.1993
    5SAPS    HS  554   5.628   0.530  10.793  1.8033  0.6004  1.1923
    5SAPS   O21  555   5.656   0.736  10.728 -1.2937  0.0423  0.5325
    5SAPS   C21  556   5.783   0.702  10.694 -1.0569  0.1325 -0.7488
    5SAPS   O22  557   5.843   0.593  10.715  0.2260 -0.0027  0.3726
    5SAPS   C22  558   5.848   0.833  10.649  0.1762 -0.0250 -0.3717
    5SAPS   H2R  559   5.795   0.917  10.699  2.0254  0.9214  0.1007
    5SAPS   H2S  560   5.954   0.818  10.680  0.7241 -0.2304 -2.2294
    5SAPS    C3  561   5.501   0.581  10.633  0.3641  0.6878  0.5629
    5SAPS    HX  562   5.444   0.669  10.597 -1.6357 -1.1883 -1.1791
    5SAPS    HY  563   5.414   0.518  10.659 -1.4181  2.8824  0.1695
    5SAPS   O31  564   5.583   0.519  10.522  0.0835  0.2395 -0.0416
    5SAPS   C31  565   5.599   0.386  10.540  0.2197 -0.2344 -0.3440
    5SAPS   O32  566   5.559   0.327  10.640  0.1363 -0.1864 -0.1367
    5SAPS   C32  567   5.670   0.318  10.417  0.2746 -0.0321  0.5184
    5SAPS   H2X  568   5.590   0.301  10.342 -0.0898  1.7745  0.4510
    5SAPS   H2Y  569   5.711   0.219  10.445  1.7284  0.6358  0.8191
    5SAPS   C23  570   5.858   0.857  10.491 -0.9010 -0.3437 -0.4285
    5SAPS   H3R  571   5.766   0.861  10.429 -2.1819 -2.8608  1.1418
    5SAPS   H3S  572   5.904   0.766  10.446  3.5261  1.3975  0.0627
    5SAPS   C24  573   5.952   0.972  10.442  0.7157 -0.3689  0.2585
    5SAPS   H4R  574   5.967   0.962  10.333  0.0081  1.4929 -0.0461
    5SAPS   H4S  575   6.052   0.961  10.490  0.6563  1.8548  1.0154
    5SAPS   C25  576   5.884   1.105  10.470 -0.9854 -0.0649  0.3089
    5SAPS   H5R  577   5.908   1.155  10.564  2.8013  3.8486 -2.3362
    5SAPS   C26  578   5.813   1.181  10.378  0.5438  0.0694  0.3712
    5SAPS   H6R  579   5.755   1.265  10.418  1.4291  1.2841 -0.7778
    5SAPS   C27  580   5.774   1.153  10.234 -0.5594  0.0079  0.8055
    5SAPS   H7R  581   5.665   1.154  10.215 -0.0499  0.8666 -2.8847
    5SAPS   H7S  582   5.806   1.050  10.207  0.0880  0.0246  1.4845
    5SAPS   C28  583   5.829   1.251  10.128  0.1182  0.0596 -0.0674
    5SAPS   H8R  584   5.907   1.322  10.159 -0.2948 -0.2882  1.9536
    5SAPS   C29  585   5.779   1.271  10.002 -0.8317 -0.6242 -0.2415
    5SAPS   H9R  586   5.834   1.339   9.936 -0.0565 -1.8549 -0.9072
    5SAPS  C210  587   5.661   1.199   9.945  0.0192 -0.2557  0.5787
    5SAPS  H10R  588   5.607   1.130  10.014 -0.5631 -1.1772 -0.7394
    5SAPS  H10S  589   5.704   1.139   9.862  0.6197 -0.5436  1.0912
    5SAPS  C211  590   5.550   1.282   9.897 -0.5841 -0.4863  0.0435
    5SAPS  H11R  591   5.455   1.274   9.952 -1.7754 -3.2075 -2.1529
    5SAPS  C212  592   5.546   1.374   9.795  0.1668  0.4074  0.5629
    5SAPS  H12R  593   5.446   1.411   9.771  0.0768 -0.7135 -0.9309
    5SAPS  C213  594   5.658   1.400   9.698 -0.5024 -0.3520  0.2410
    5SAPS  H13R  595   5.633   1.330   9.616 -0.7273 -1.1276  0.9570
    5SAPS  H13S  596   5.755   1.363   9.738  0.1509  0.9456 -0.0777
    5SAPS  C214  597   5.661   1.542   9.663 -0.1816  0.2428 -0.1308
    5SAPS  H14R  598   5.559   1.584   9.662 -0.4342 -0.3152 -2.4983
    5SAPS  C215  599   5.769   1.623   9.633 -0.3159  0.1714 -0.3716
    5SAPS  H15R  600   5.759   1.727   9.599 -0.1482  0.2903 -0.0577
    5SAPS  C216  601   5.918   1.579   9.637  0.4369 -0.4652 -0.2527
    5SAPS  H16R  602   5.924   1.469   9.654 -0.5162 -0.5043 -0.1178
    5SAPS  H16S  603   5.971   1.638   9.714 -1.3668 -0.2085  0.8367
    5SAPS  C217  604   5.978   1.618   9.500 -0.5661 -0.1334 -0.4154
    5SAPS  H17R  605   6.086   1.622   9.525 -0.8825  0.9374  0.9268
    5SAPS  H17S  606   5.941   1.717   9.467  1.5286  1.1315  0.8324
    5SAPS  C218  607   5.930   1.528   9.382 -0.9728 -0.4837  0.1780
    5SAPS  H18R  608   5.822   1.548   9.367 -0.6949  0.6757 -0.4254
    5SAPS  H18S  609   5.976   1.555   9.284 -0.0551  0.5376  0.8662
    5SAPS  C219  610   5.979   1.383   9.405  0.2674  0.1770  0.4845
    5SAPS  H19R  611   5.942   1.334   9.498  0.4173  1.6181  1.3294
    5SAPS  H19S  612   6.089   1.384   9.418  0.9025  0.8524 -3.5754
    5SAPS  C220  613   5.949   1.293   9.291  0.4271  0.4952  0.1603
    5SAPS  H20R  614   5.843   1.262   9.277  1.0866 -1.0376 -1.9589
    5SAPS  H20S  615   5.992   1.195   9.320  2.3737  1.0284 -0.7506
    5SAPS  H20T  616   5.994   1.319   9.193 -2.7919 -0.3650 -1.6912
    5SAPS   C33  617   5.782   0.410  10.358  0.0305 -1.0860  0.2393
    5SAPS   H3X  618   5.860   0.430  10.434  1.9825 -0.7405 -1.7544
    5SAPS   H3Y  619   5.752   0.509  10.317 -0.8825 -1.2829  0.4116
    5SAPS   C34  620   5.870   0.326  10.260 -0.3162 -0.0838 -0.7002
    5SAPS   H4X  621   5.911   0.245  10.324 -0.4182  1.8523  2.0254
    5SAPS   H4Y  622   5.949   0.391  10.217 -1.0271  0.0523 -1.8332
    5SAPS   C35  623   5.810   0.267  10.132 -0.3679 -0.0307  0.3571
    5SAPS   H5X  624   5.705   0.236  10.147 -0.1636 -0.0215  2.0176
    5SAPS   H5Y  625   5.870   0.176  10.108 -1.6848 -0.5949 -0.9145
    5SAPS   C36  626   5.826   0.355  10.011  0.0702  0.3560  0.1129
    5SAPS   H6X  627   5.930   0.389   9.996  0.5447 -0.5158  1.2881
    5SAPS   H6Y  628   5.762   0.446  10.010 -1.9126 -0.8664 -3.8513
    5SAPS   C37  629   5.766   0.279   9.883 -0.2444  0.7246  0.7014
    5SAPS   H7X  630   5.664   0.239   9.903 -0.1062 -0.1694 -0.2581
    5SAPS   H7Y  631   5.835   0.193   9.874 -0.0411  0.9155  0.4478
    5SAPS   C38  632   5.763   0.367   9.762 -0.3921  0.4213 -0.2860
    5SAPS   H8X  633   5.870   0.399   9.756 -0.3488  0.6445  1.3325
    5SAPS   H8Y  634   5.700   0.458   9.768 -0.4466  0.3315  0.6729
    5SAPS   C39  635   5.721   0.291   9.643 -0.0566  0.8879 -0.3899
    5SAPS   H9X  636   5.611   0.284   9.657 -0.1717  0.1689 -1.5757
    5SAPS   H9Y  637   5.767   0.190   9.634 -2.9623 -0.4640 -1.3430
    5SAPS  C310  638   5.743   0.372   9.515 -0.6720 -0.3902  0.7788
    5SAPS  H10X  639   5.851   0.401   9.519 -0.8330  0.0306  3.0462
    5SAPS  H10Y  640   5.680   0.463   9.512  0.8978  0.8037  2.0021
    5SAPS  C311  641   5.713   0.309   9.380 -0.5161 -0.1310 -0.1855
    5SAPS  H11X  642   5.611   0.265   9.387  1.0343 -3.9010  1.2915
    5SAPS  H11Y  643   5.775   0.217   9.374 -0.2155  0.1058 -0.8890
    5SAPS  C312  644   5.725   0.394   9.248 -0.3134 -0.0329  0.2299
    5SAPS  H12X  645   5.638   0.463   9.240 -0.2980 -0.1652 -1.8690
    5SAPS  H12Y  646   5.715   0.313   9.172  1.9722 -1.8676  1.7814
    5SAPS  C313  647   5.848   0.472   9.227 -0.3230 -0.2824  0.2878
    5SAPS  H13X  648   5.932   0.402   9.210  0.2789  0.0899  1.5773
    5SAPS  H13Y  649   5.886   0.511   9.324  0.4442 -2.0334  0.7210
    5SAPS  C314  650   5.824   0.570   9.118  0.4399 -0.7798  0.4906
    5SAPS  H14X  651   5.756   0.653   9.147  0.4189 -0.3393 -0.7586
    5SAPS  H14Y  652   5.761   0.516   9.044 -1.8447 -0.3059  2.0022
    5SAPS  C315  653   5.962   0.627   9.068  0.5152 -0.2548  0.0956
    5SAPS  H15X  654   6.028   0.544   9.033 -0.9122 -0.6568 -1.7633
    5SAPS  H15Y  655   6.007   0.671   9.160 -0.2318 -0.0886  0.3930
    5SAPS  C316  656   5.962   0.738   8.958  0.1709  0.2679 -0.0121
    5SAPS  H16X  657   6.066   0.775   8.946  1.2333 -2.8339 -1.4015
    5SAPS  H16Y  658   5.903   0.823   8.999  0.2964  0.4147 -0.1344
    5SAPS  C317  659   5.929   0.692   8.821 -0.2379 -0.1509  0.0882
    5SAPS  H17X  660   5.818   0.685   8.823 -0.2959  0.5816 -0.2991
    5SAPS  H17Y  661   5.976   0.591   8.819 -0.4707 -0.3550  2.5118
    5SAPS  C318  662   5.961   0.781   8.701  0.0574 -0.1415 -0.2872
    5SAPS  H18X  663   5.925   0.733   8.607 -0.2838 -1.2542  0.3999
    5SAPS  H18Y  664   6.069   0.807   8.698  0.5932 -2.1774 -0.2063
    5SAPS  H18Z  665   5.907   0.877   8.717 -0.7170 -1.0660  3.7045
    6SAPS     N  666   1.892   0.043  11.229 -0.3140  0.4798  0.0430
    6SAPS   HN1  667   1.858   0.062  11.326 -0.0741 -2.0558  0.6889
    6SAPS   HN2  668   1.964  -0.031  11.238 -1.0715 -0.7012 -2.7573
    6SAPS   HN3  669   1.924   0.130  11.182  0.3533  1.5961  2.3817
    6SAPS   C12  670   1.780  -0.013  11.155  0.6871 -0.1574 -0.0234
    6SAPS  H12A  671   1.736  -0.078  11.228  2.3539 -2.7901 -1.2173
    6SAPS   C13  672   1.675   0.078  11.089 -0.2470  0.1474 -0.4486
    6SAPS  O13A  673   1.706   0.200  11.094 -0.1486  0.1551 -0.7694
    6SAPS  O13B  674   1.564   0.032  11.047  0.2239 -0.2239  0.4100
    6SAPS   C11  675   1.837  -0.110  11.045  0.0980 -0.4598 -0.1038
    6SAPS  H11A  676   1.874  -0.063  10.952 -0.2164 -2.1357 -1.1245
    6SAPS  H11B  677   1.757  -0.177  11.006  0.4944  0.2415 -2.2485
    6SAPS     P  678   2.041  -0.273  11.027  0.1368  0.1923  0.0716
    6SAPS   O13  679   2.143  -0.177  10.979  1.0695 -0.3039 -0.3662
    6SAPS   O14  680   2.076  -0.386  11.116  0.0343  0.3811  0.0690
    6SAPS   O12  681   1.933  -0.195  11.108  0.3055  0.0951 -0.0593
    6SAPS   O11  682   1.949  -0.329  10.909 -0.7511 -0.0802  0.5567
    6SAPS    C1  683   2.001  -0.381  10.785  0.1122  0.2719 -0.2598
    6SAPS    HA  684   1.959  -0.315  10.707  1.0157 -1.2467 -2.1104
    6SAPS    HB  685   2.111  -0.382  10.769 -0.0163  0.9590 -1.2577
    6SAPS    C2  686   1.943  -0.531  10.761  0.3187 -0.5290 -0.4791
    6SAPS    HS  687   1.942  -0.581  10.861  0.0676 -2.7715 -1.5265
    6SAPS   O21  688   2.032  -0.607  10.676  0.1613  0.3399  0.8309
    6SAPS   C21  689   2.008  -0.737  10.649  0.1302  0.1293 -0.6598
    6SAPS   O22  690   1.925  -0.803  10.709  0.3317 -0.2077  0.1064
    6SAPS   C22  691   2.075  -0.774  10.523 -0.8467  0.0573  0.5365
    6SAPS   H2R  692   2.087  -0.687  10.454  3.0965  0.1111  1.0601
    6SAPS   H2S  693   2.181  -0.805  10.533 -0.9533 -0.7207 -0.5281
    6SAPS    C3  694   1.806  -0.527  10.698  0.3083  0.5625 -0.8418
    6SAPS    HX  695   1.739  -0.475  10.770 -0.7529 -0.4165 -1.0867
    6SAPS    HY  696   1.750  -0.624  10.699  0.0850  0.6076  2.5769
    6SAPS   O31  697   1.808  -0.465  10.567  0.2407  0.3486 -0.1645
    6SAPS   C31  698   1.692  -0.453  10.496 -0.3987  0.3077 -0.6555
    6SAPS   O32  699   1.590  -0.509  10.533  0.0213 -0.0448  0.4961
    6SAPS   C32  700   1.726  -0.400  10.357 -0.2053  0.1437  0.1801
    6SAPS   H2X  701   1.770  -0.300  10.375 -0.4682  0.0787  1.2501
    6SAPS   H2Y  702   1.626  -0.385  10.311 -0.5808 -1.7576  0.3197
    6SAPS   C23  703   1.997  -0.887  10.452  0.4516 -0.2806 -0.6349
    6SAPS   H3R  704   1.892  -0.854  10.436 -0.0594 -1.0093  1.0469
    6SAPS   H3S  705   1.994  -0.973  10.522 -2.4031  0.5702  0.4746
    6SAPS   C24  706   2.045  -0.932  10.310  0.3767  0.3459 -0.4826
    6SAPS   H4R  707   1.999  -0.859  10.240 -1.2494 -1.3301 -1.2578
    6SAPS   H4S  708   2.001  -1.034  10.298  1.0127 -0.2252  1.5517
    6SAPS   C25  709   2.194  -0.946  10.305 -0.4439 -0.1225 -0.0546
    6SAPS   H5R  710   2.256  -0.982  10.388  2.2516  1.2021 -1.3547
    6SAPS   C26  711   2.260  -0.898  10.200 -0.1743  0.2309  0.3885
    6SAPS   H6R  712   2.370  -0.906  10.204 -0.2898 -1.2419  3.1645
    6SAPS   C27  713   2.199  -0.841  10.076  0.5556  0.2672  0.7800
    6SAPS   H7R  714   2.136  -0.754  10.103 -2.2034 -1.1548 -0.6126
    6SAPS   H7S  715   2.126  -0.915  10.037  0.8206 -0.0604  0.9050
    6SAPS   C28  716   2.312  -0.795   9.982  0.5913  0.0127 -0.8727
    6SAPS   H8R  717   2.387  -0.729  10.028 -0.4262 -1.5933  3.6741
    6SAPS   C29  718   2.323  -0.836   9.857 -0.0700  0.5518  0.0544
    6SAPS   H9R  719   2.421  -0.823   9.807 -0.8970  0.4163 -1.6925
    6SAPS  C210  720   2.244  -0.945   9.787 -0.5166 -0.6516  0.0088
    6SAPS  H10R  721   2.232  -1.036   9.850 -1.3006 -0.0861  0.6723
    6SAPS  H10S  722   2.300  -0.982   9.698  1.0433  2.1229 -0.2706
    6SAPS  C211  723   2.104  -0.908   9.748 -0.5805 -0.6965  0.3891
    6SAPS  H11R  724   2.030  -0.941   9.824 -2.6087 -0.4487 -1.3850
    6SAPS  C212  725   2.062  -0.846   9.635  0.0035  0.4522 -0.1530
    6SAPS  H12R  726   1.957  -0.812   9.629 -0.9981 -1.8729  2.3427
    6SAPS  C213  727   2.158  -0.805   9.523  0.2459  0.4172  0.1555
    6SAPS  H13R  728   2.196  -0.898   9.475  0.6506  0.3767  0.5425
    6SAPS  H13S  729   2.248  -0.754   9.566  0.8987  0.7698 -1.5545
    6SAPS  C214  730   2.104  -0.711   9.424  0.0349  0.1919  1.4330
    6SAPS  H14R  731   2.027  -0.641   9.461 -0.0303  1.2953 -0.6421
    6SAPS  C215  732   2.118  -0.719   9.291 -0.4530 -0.7851  0.0175
    6SAPS  H15R  733   2.059  -0.646   9.233 -1.4984 -1.6519 -0.0504
    6SAPS  C216  734   2.203  -0.812   9.212 -0.5178  0.2144 -0.0296
    6SAPS  H16R  735   2.294  -0.823   9.274  0.6692  1.0785 -1.5595
    6SAPS  H16S  736   2.228  -0.772   9.111  1.6713 -0.7686  0.0745
    6SAPS  C217  737   2.141  -0.949   9.189 -0.4432 -0.7005 -0.4688
    6SAPS  H17R  738   2.037  -0.939   9.151 -0.3880  1.8795 -0.1109
    6SAPS  H17S  739   2.132  -0.998   9.288  2.5597 -0.3662  0.0519
    6SAPS  C218  740   2.237  -1.032   9.102  0.3356 -0.3755  0.2192
    6SAPS  H18R  741   2.317  -1.077   9.164  0.1885 -0.1860  0.5514
    6SAPS  H18S  742   2.283  -0.960   9.030  1.9933 -1.4842  0.1139
    6SAPS  C219  743   2.168  -1.145   9.023  0.3492  0.0788  0.0360
    6SAPS  H19R  744   2.062  -1.115   9.006  0.4424 -0.4344 -1.6271
    6SAPS  H19S  745   2.160  -1.234   9.089  0.6164  0.1188  0.1270
    6SAPS  C220  746   2.240  -1.184   8.894  0.1447  0.2675 -0.4935
    6SAPS  H20R  747   2.297  -1.273   8.928 -0.7434  1.3640  4.9436
    6SAPS  H20S  748   2.294  -1.104   8.839 -2.0347  0.8120 -1.9422
    6SAPS  H20T  749   2.167  -1.209   8.815 -0.0186  0.0484 -0.2721
    6SAPS   C33  750   1.807  -0.504  10.277  0.3959 -0.0584 -0.2837
    6SAPS   H3X  751   1.854  -0.577  10.346 -1.8960 -2.0639 -0.7042
    6SAPS   H3Y  752   1.890  -0.451  10.224  0.5644 -1.2020 -1.1982
    6SAPS   C34  753   1.731  -0.573  10.161  0.1935  0.5538 -0.6673
    6SAPS   H4X  754   1.690  -0.486  10.104 -0.9757  0.8669  0.5778
    6SAPS   H4Y  755   1.641  -0.622  10.203  0.2008  0.3624 -0.8757
    6SAPS   C35  756   1.822  -0.653  10.067 -0.0638 -0.3573  0.2127
    6SAPS   H5X  757   1.867  -0.735  10.127  0.4877  0.8917  1.5719
    6SAPS   H5Y  758   1.902  -0.582  10.035 -0.6242 -0.7193 -2.1794
    6SAPS   C36  759   1.743  -0.704   9.942 -0.2615  0.1592 -0.4149
    6SAPS   H6X  760   1.671  -0.777   9.984  0.4802 -1.2442 -1.5282
    6SAPS   H6Y  761   1.813  -0.761   9.878 -0.5208 -0.1988 -0.3775
    6SAPS   C37  762   1.675  -0.593   9.864  0.0194  0.1778 -0.5567
    6SAPS   H7X  763   1.744  -0.510   9.837  0.9478 -0.0172  1.0849
    6SAPS   H7Y  764   1.602  -0.536   9.925 -0.5515  0.0869 -1.1461
    6SAPS   C38  765   1.613  -0.649   9.740  0.4175 -0.6396  0.5748
    6SAPS   H8X  766   1.527  -0.712   9.771 -0.7131  0.5610 -0.0275
    6SAPS   H8Y  767   1.679  -0.722   9.687  1.0036 -0.8132  1.5269
    6SAPS   C39  768   1.553  -0.544   9.642  0.2762 -0.5885 -0.5318
    6SAPS   H9X  769   1.477  -0.481   9.694  1.1456  0.2336 -0.2336
    6SAPS   H9Y  770   1.504  -0.601   9.560  0.8430  0.0438 -1.3298
    6SAPS  C310  771   1.659  -0.465   9.567  0.0823 -0.2442  1.1360
    6SAPS  H10X  772   1.709  -0.398   9.640  0.2481  2.0030 -0.8951
    6SAPS  H10Y  773   1.614  -0.395   9.494  2.1141  0.5617  0.5756
    6SAPS  C311  774   1.763  -0.542   9.487 -0.6407  0.1260 -0.0369
    6SAPS  H11X  775   1.839  -0.586   9.555  0.2002  0.6507 -0.6157
    6SAPS  H11Y  776   1.837  -0.470   9.445  1.5873 -0.9807  1.7367
    6SAPS  C312  777   1.730  -0.644   9.379 -0.6634  0.2511 -0.2809
    6SAPS  H12X  778   1.672  -0.729   9.421  0.4254  0.6461  2.2123
    6SAPS  H12Y  779   1.827  -0.677   9.337 -0.6252  0.2889 -0.2235
    6SAPS  C313  780   1.650  -0.585   9.264  0.7170 -0.4288  0.3120
    6SAPS  H13X  781   1.716  -0.504   9.224  1.5806 -1.3150 -0.1146
    6SAPS  H13Y  782   1.551  -0.557   9.305  1.9335  0.9528  2.4725
    6SAPS  C314  783   1.629  -0.685   9.146 -0.4398 -0.1543  0.2888
    6SAPS  H14X  784   1.546  -0.646   9.082  0.3917  1.0306 -0.1039
    6SAPS  H14Y  785   1.610  -0.784   9.193  0.9465 -1.5454 -1.8977
    6SAPS  C315  786   1.749  -0.716   9.054  0.5776  0.7637 -0.6556
    6SAPS  H15X  787   1.823  -0.747   9.131 -0.8373 -0.5644  0.2615
    6SAPS  H15Y  788   1.799  -0.634   9.000  1.5755  0.7207  0.1835
    6SAPS  C316  789   1.724  -0.816   8.948  0.5428  0.4757  0.0229
    6SAPS  H16X  790   1.638  -0.785   8.885  0.8187 -0.7068 -0.9693
    6SAPS  H16Y  791   1.691  -0.915   8.984 -0.4074  1.0660  0.8390
    6SAPS  C317  792   1.843  -0.840   8.849 -0.3175  0.0824  0.9266
    6SAPS  H17X  793   1.933  -0.861   8.910 -1.0174 -1.8284  1.3680
    6SAPS  H17Y  794   1.856  -0.735   8.814 -1.3617  0.0147  0.2937
    6SAPS  C318  795   1.831  -0.947   8.742 -0.3537 -0.8944 -0.6307
    6SAPS  H18X  796   1.931  -0.969   8.698  1.2326  1.8869  1.2797
    6SAPS  H18Y  797   1.764  -0.900   8.667 -0.8319 -0.0106  0.3198
    6SAPS  H18Z  798   1.783  -1.034   8.791  1.1036 -2.6734 -2.2210
    7SAPS     N  799   4.394   0.302  11.140 -0.4174  0.2141  0.0820
    7SAPS   HN1  800   4.466   0.346  11.201 -1.6565  1.8256  0.4599
    7SAPS   HN2  801   4.431   0.213  11.101  0.5493  1.0915 -1.0834
    7SAPS   HN3  802   4.371   0.369  11.063 -1.3033 -1.1403 -0.8558
    7SAPS   C12  803   4.276   0.274  11.219 -0.2446 -0.1583  0.1800
    7SAPS  H12A  804   4.291   0.178  11.268 -0.9422  0.2005  1.1343
    7SAPS   C13  805   4.246   0.351  11.347 -0.4800  0.1673 -0.5737
    7SAPS  O13A  806   4.325   0.443  11.378 -0.4537  0.4610 -0.1758
    7SAPS  O13B  807   4.159   0.313  11.425  0.9433 -0.4377  0.2092
    7SAPS   C11  808   4.151   0.276  11.124  0.1100 -0.0730 -0.3584
    7SAPS  H11A  809   4.136   0.382  11.094  1.3392  0.0446 -0.5758
    7SAPS  H11B  810   4.065   0.246  11.188 -2.2812  1.8723 -2.4042
    7SAPS     P  811   4.081   0.188  10.887 -0.2456  0.3101  0.2579
    7SAPS   O13  812   3.939   0.147  10.905 -0.1055 -1.0822 -0.1849
    7SAPS   O14  813   4.115   0.311  10.822 -0.3521  0.4772 -0.3000
    7SAPS   O12  814   4.160   0.182  11.020 -0.4099  0.1842  0.2937
    7SAPS   O11  815   4.156   0.064  10.810  0.4243 -0.5362  0.7021
    7SAPS    C1  816   4.284   0.099  10.761 -0.2769 -0.5546  0.2560
    7SAPS    HA  817   4.326   0.200  10.779  1.9510 -0.9003 -2.4008
    7SAPS    HB  818   4.361   0.039  10.814  1.2299 -0.2931 -1.5134
    7SAPS    C2  819   4.305   0.063  10.614  0.0301  0.5767  0.2464
    7SAPS    HS  820   4.415   0.062  10.601  0.1573  1.1190  1.1890
    7SAPS   O21  821   4.240   0.165  10.527 -0.1088 -0.3168 -0.6339
    7SAPS   C21  822   4.282   0.290  10.534  0.1039 -0.3276 -0.5500
    7SAPS   O22  823   4.375   0.333  10.598  0.2717  0.0845 -0.8505
    7SAPS   C22  824   4.192   0.384  10.448 -0.4594  0.4815  0.5576
    7SAPS   H2R  825   4.130   0.319  10.383  0.6384  0.1048 -0.1572
    7SAPS   H2S  826   4.132   0.440  10.522  0.3076  0.7705  0.9685
    7SAPS    C3  827   4.241  -0.076  10.580 -1.1012  0.8627  0.1125
    7SAPS    HX  828   4.133  -0.073  10.608 -1.2070 -1.1134  0.0671
    7SAPS    HY  829   4.289  -0.152  10.645 -1.9256 -0.7810 -1.1112
    7SAPS   O31  830   4.245  -0.112  10.439 -0.5092  0.2162 -0.1262
    7SAPS   C31  831   4.374  -0.119  10.397 -0.8434  0.1167 -0.0641
    7SAPS   O32  832   4.467  -0.150  10.472  0.1158  0.0336  0.0187
    7SAPS   C32  833   4.390  -0.094  10.246 -0.4119 -0.2715 -0.0037
    7SAPS   H2X  834   4.367   0.013  10.227  0.6605  0.2033  1.2273
    7SAPS   H2Y  835   4.323  -0.162  10.188  0.0050 -0.1567 -0.6300
    7SAPS   C23  836   4.249   0.487  10.355 -0.2327  0.0030 -0.0975
    7SAPS   H3R  837   4.290   0.570  10.416  0.1573 -0.7054  0.6309
    7SAPS   H3S  838   4.162   0.522  10.297 -0.3187 -1.8574 -1.2084
    7SAPS   C24  839   4.376   0.449  10.272 -0.3521 -0.3471  0.0606
    7SAPS   H4R  840   4.465   0.445  10.338  0.1229  3.0124 -0.1979
    7SAPS   H4S  841   4.392   0.538  10.207  0.5048  1.2410  2.3295
    7SAPS   C25  842   4.363   0.320  10.195 -0.3117  0.1956  0.3767
    7SAPS   H5R  843   4.360   0.236  10.265 -3.3858  2.2509  2.9805
    7SAPS   C26  844   4.358   0.304  10.063  0.2081  0.1934  1.1696
    7SAPS   H6R  845   4.352   0.199  10.031  1.6584 -0.6425  3.3767
    7SAPS   C27  846   4.369   0.400   9.943 -0.1802 -0.4799 -0.3538
    7SAPS   H7R  847   4.437   0.358   9.866 -0.9037  0.2904 -1.4307
    7SAPS   H7S  848   4.426   0.490   9.975  2.0721 -1.9297 -0.0301
    7SAPS   C28  849   4.241   0.442   9.892  0.2981 -0.2414  0.5759
    7SAPS   H8R  850   4.180   0.477   9.977 -1.1747 -2.6019  0.5772
    7SAPS   C29  851   4.201   0.446   9.761 -0.9118  0.0133  0.4534
    7SAPS   H9R  852   4.100   0.482   9.734 -0.6168  0.4863 -0.0328
    7SAPS  C210  853   4.280   0.402   9.640  0.0566  0.4612 -0.5645
    7SAPS  H10R  854   4.226   0.315   9.597 -0.0355  1.3833 -2.4109
    7SAPS  H10S  855   4.383   0.369   9.665  0.2262  1.8915  0.7244
    7SAPS  C211  856   4.309   0.511   9.543 -0.1920  0.5689  0.8480
    7SAPS  H11R  857   4.365   0.598   9.580  2.8218 -0.7334 -0.2432
    7SAPS  C212  858   4.285   0.499   9.411 -0.4677 -0.3832 -0.4633
    7SAPS  H12R  859   4.317   0.586   9.353 -3.5503  0.1321 -1.5832
    7SAPS  C213  860   4.229   0.380   9.333  0.4190 -0.4217  0.1321
    7SAPS  H13R  861   4.213   0.285   9.388 -3.4123 -1.1511 -1.9521
    7SAPS  H13S  862   4.300   0.373   9.248  2.3680  0.7516  1.5746
    7SAPS  C214  863   4.089   0.420   9.291 -0.4506 -0.1006 -0.1917
    7SAPS  H14R  864   4.025   0.458   9.372 -0.6482 -0.1098 -0.3433
    7SAPS  C215  865   4.042   0.438   9.169  0.4198  0.1782 -0.4891
    7SAPS  H15R  866   3.933   0.456   9.165  0.1724 -1.2996 -0.7642
    7SAPS  C216  867   4.105   0.418   9.033 -0.1372 -0.0641  0.5940
    7SAPS  H16R  868   4.037   0.367   8.962  1.1300 -0.3053 -0.5022
    7SAPS  H16S  869   4.207   0.373   9.041 -0.1123 -0.6192 -1.9388
    7SAPS  C217  870   4.117   0.562   8.964  0.3475  0.1968  0.1240
    7SAPS  H17R  871   4.161   0.631   9.039  1.3484 -1.9789  1.6616
    7SAPS  H17S  872   4.012   0.585   8.934  0.4477 -0.1579 -0.5163
    7SAPS  C218  873   4.214   0.564   8.840 -0.1280 -0.3252 -0.4532
    7SAPS  H18R  874   4.162   0.538   8.745 -0.6637 -2.0841  0.2794
    7SAPS  H18S  875   4.282   0.479   8.863 -0.3960 -0.0525  1.5374
    7SAPS  C219  876   4.294   0.699   8.825  0.1052 -0.1438  0.7309
    7SAPS  H19R  877   4.364   0.705   8.911 -1.3302  0.8863  1.8945
    7SAPS  H19S  878   4.218   0.778   8.843 -0.2674 -0.8274  2.2883
    7SAPS  C220  879   4.364   0.710   8.693 -0.2539 -0.9880 -0.2693
    7SAPS  H20R  880   4.309   0.649   8.618 -1.7387 -0.0437  0.0084
    7SAPS  H20S  881   4.471   0.680   8.694  0.3904  1.1384 -0.2491
    7SAPS  H20T  882   4.358   0.817   8.665  2.3697 -1.0099 -1.1687
    7SAPS   C33  883   4.541  -0.114  10.196  0.0144  0.4885  0.1784
    7SAPS   H3X  884   4.590  -0.202  10.242 -0.8634 -1.1758 -1.8851
    7SAPS   H3Y  885   4.588  -0.014  10.210  0.1872  0.5447 -0.7193
    7SAPS   C34  886   4.548  -0.154  10.043 -0.2296  1.0985 -0.1969
    7SAPS   H4X  887   4.492  -0.247  10.019  2.7261 -1.0328  0.5821
    7SAPS   H4Y  888   4.652  -0.186  10.020 -0.5522  0.1561 -0.3963
    7SAPS   C35  889   4.499  -0.045   9.946  0.4899  0.1123 -0.1280
    7SAPS   H5X  890   4.538   0.052   9.983 -1.0772  1.0515 -0.8397
    7SAPS   H5Y  891   4.389  -0.031   9.941  0.2641 -0.4145  2.2474
    7SAPS   C36  892   4.546  -0.067   9.803  0.0067  0.0339  0.1152
    7SAPS   H6X  893   4.521  -0.168   9.763  0.6681  0.1200 -0.5283
    7SAPS   H6Y  894   4.656  -0.066   9.789 -0.0603  0.0915 -0.4191
    7SAPS   C37  895   4.492   0.041   9.703 -0.2237 -0.3799  0.2132
    7SAPS   H7X  896   4.495   0.145   9.745 -0.6068  0.2628 -1.3013
    7SAPS   H7Y  897   4.384   0.023   9.688  0.3043 -0.7705 -4.5832
    7SAPS   C38  898   4.561   0.029   9.563 -0.1122  0.4431  0.1845
    7SAPS   H8X  899   4.580  -0.076   9.532 -0.0149  0.9328 -1.5488
    7SAPS   H8Y  900   4.662   0.072   9.580  1.1233 -1.2194 -2.3075
    7SAPS   C39  901   4.502   0.112   9.444 -0.4317 -0.4109  0.1777
    7SAPS   H9X  902   4.486   0.215   9.482 -0.2647 -0.7423  1.1548
    7SAPS   H9Y  903   4.399   0.076   9.425 -0.1211 -0.9523 -0.5192
    7SAPS  C310  904   4.592   0.096   9.321  0.7184 -0.1110 -0.0956
    7SAPS  H10X  905   4.579  -0.009   9.287 -1.6621  0.4708 -1.2102
    7SAPS  H10Y  906   4.694   0.104   9.363  0.4130  2.1178  0.3329
    7SAPS  C311  907   4.558   0.191   9.207  1.3616 -0.6804  0.4343
    7SAPS  H11X  908   4.576   0.297   9.234  0.1527  0.1599 -1.8142
    7SAPS  H11Y  909   4.449   0.203   9.186  1.8984  0.7472 -1.8502
    7SAPS  C312  910   4.629   0.161   9.073 -0.2817 -0.4873 -0.2109
    7SAPS  H12X  911   4.649   0.052   9.069  0.8485 -0.2698 -1.0255
    7SAPS  H12Y  912   4.722   0.222   9.067  1.6027 -3.2551 -0.8142
    7SAPS  C313  913   4.547   0.203   8.951  0.1443 -0.2506 -0.2780
    7SAPS  H13X  914   4.506   0.305   8.965  0.9225  0.0644 -0.2749
    7SAPS  H13Y  915   4.453   0.145   8.936 -0.2725  0.7802 -1.8851
    7SAPS  C314  916   4.646   0.194   8.831  0.3125  0.9041 -0.3333
    7SAPS  H14X  917   4.684   0.089   8.828  2.6163  1.6827 -2.2901
    7SAPS  H14Y  918   4.729   0.265   8.854  1.2848 -0.8433  1.9625
    7SAPS  C315  919   4.585   0.218   8.693  0.0947  0.1118 -0.7735
    7SAPS  H15X  920   4.494   0.155   8.691 -1.4909  2.2829  0.1080
    7SAPS  H15Y  921   4.658   0.188   8.614  1.1922 -0.6111  0.4807
    7SAPS  C316  922   4.535   0.365   8.684 -0.3379 -0.6821  1.0094
    7SAPS  H16X  923   4.609   0.445   8.700 -0.4084 -0.6021  0.9293
    7SAPS  H16Y  924   4.466   0.389   8.768 -0.7917 -0.2300  0.5141
    7SAPS  C317  925   4.484   0.379   8.544  0.5658  0.2872  0.1295
    7SAPS  H17X  926   4.562   0.353   8.470 -1.7653  0.0535 -2.4126
    7SAPS  H17Y  927   4.459   0.485   8.520  0.8118  0.1140 -0.8911
    7SAPS  C318  928   4.351   0.299   8.521  0.0975  0.5117  0.0552
    7SAPS  H18X  929   4.369   0.190   8.513  0.6565  0.6540 -0.7239
    7SAPS  H18Y  930   4.298   0.334   8.429 -0.0809 -1.1898 -0.5221
    7SAPS  H18Z  931   4.287   0.321   8.609 -0.3409  1.2729 -0.4441
    8SAPS     N  932   1.528   3.466  11.262 -0.2832  0.2682 -0.0804
    8SAPS   HN1  933   1.600   3.412  11.315 -1.9396 -0.1533  1.8980
    8SAPS   HN2  934   1.471   3.399  11.206  0.1717 -2.7117  2.6704
    8SAPS   HN3  935   1.579   3.533  11.201 -0.6999  1.5101  0.8912
    8SAPS   C12  936   1.447   3.536  11.358 -0.6459  0.2147 -0.5923
    8SAPS  H12A  937   1.380   3.458  11.394 -2.0225  1.1311 -1.0868
    8SAPS   C13  938   1.530   3.601  11.478 -0.9487  0.4312  0.6108
    8SAPS  O13A  939   1.655   3.597  11.482  0.1958  0.9454  0.1501
    8SAPS  O13B  940   1.457   3.655  11.569  0.1533  0.2302  0.1327
    8SAPS   C11  941   1.365   3.646  11.289  0.4263 -0.1849  0.0791
    8SAPS  H11A  942   1.306   3.700  11.366 -0.6369 -1.5519  0.2619
    8SAPS  H11B  943   1.284   3.589  11.239 -1.1460  1.0662  1.1212
    8SAPS     P  944   1.425   3.886  11.185  0.5978  0.3195 -0.0560
    8SAPS   O13  945   1.368   3.939  11.304  0.1215  0.1460  0.1441
    8SAPS   O14  946   1.554   3.937  11.134  0.3288  0.2063 -0.3009
    8SAPS   O12  947   1.441   3.724  11.197  0.1200 -0.7572 -0.2830
    8SAPS   O11  948   1.316   3.903  11.071 -0.3690 -0.0790  0.1868
    8SAPS    C1  949   1.268   3.808  10.972  0.0520  0.3913 -0.2728
    8SAPS    HA  950   1.344   3.770  10.900 -0.1916 -1.9393  0.6274
    8SAPS    HB  951   1.228   3.717  11.021  3.1789 -0.7882  0.3584
    8SAPS    C2  952   1.153   3.866  10.894  0.0928 -0.4625 -0.3126
    8SAPS    HS  953   1.119   3.796  10.815  0.5676 -1.2145  0.1488
    8SAPS   O21  954   1.199   3.990  10.845 -0.0186 -0.0512  0.6624
    8SAPS   C21  955   1.149   4.020  10.726  0.1513 -0.5048 -0.3899
    8SAPS   O22  956   1.090   3.942  10.659  0.1303  0.0567  0.9628
    8SAPS   C22  957   1.178   4.160  10.683 -0.1446 -0.2205  0.0076
    8SAPS   H2R  958   1.109   4.167  10.596  0.7866 -1.2227 -0.8414
    8SAPS   H2S  959   1.134   4.231  10.756 -2.4656 -1.5936  0.0449
    8SAPS    C3  960   1.032   3.885  10.988  0.3761 -0.2228  0.3045
    8SAPS    HX  961   1.042   3.982  11.040 -1.1166  0.0571  0.1241
    8SAPS    HY  962   1.027   3.806  11.066 -0.9656  2.0916  2.7219
    8SAPS   O31  963   0.908   3.891  10.913 -0.5074  0.4727 -0.3726
    8SAPS   C31  964   0.845   3.780  10.887  0.3192 -0.5009 -0.1613
    8SAPS   O32  965   0.882   3.669  10.926  0.7483 -0.8814  0.2769
    8SAPS   C32  966   0.730   3.801  10.792 -0.4158 -0.3416  0.9100
    8SAPS   H2X  967   0.661   3.882  10.825  2.1218  2.1290  0.5158
    8SAPS   H2Y  968   0.664   3.713  10.808 -1.1078  0.3330  1.8741
    8SAPS   C23  969   1.326   4.196  10.657 -0.1671  0.0755 -0.1950
    8SAPS   H3R  970   1.388   4.163  10.742 -2.8061 -2.2835  0.9904
    8SAPS   H3S  971   1.330   4.306  10.645 -1.6537  0.1295 -0.4745
    8SAPS   C24  972   1.388   4.128  10.538  0.1981 -0.2764 -0.2802
    8SAPS   H4R  973   1.478   4.189  10.518 -0.9713  0.5146 -3.7797
    8SAPS   H4S  974   1.317   4.143  10.453  0.0069 -1.5942 -0.3770
    8SAPS   C25  975   1.424   3.983  10.549 -0.6977  0.0421  0.2422
    8SAPS   H5R  976   1.412   3.928  10.643  1.7420 -1.2265 -0.1034
    8SAPS   C26  977   1.478   3.911  10.450  0.4892 -0.9661 -0.1717
    8SAPS   H6R  978   1.496   3.803  10.454  1.1020 -0.8911 -0.7479
    8SAPS   C27  979   1.528   3.975  10.325  0.0226  0.3244  0.7663
    8SAPS   H7R  980   1.628   3.934  10.301 -1.1904 -1.7400 -1.1679
    8SAPS   H7S  981   1.538   4.085  10.330 -1.8984  0.8849 -3.4147
    8SAPS   C28  982   1.436   3.949  10.211 -1.2631 -0.3926  0.2412
    8SAPS   H8R  983   1.331   3.970  10.239 -1.3109 -0.4510  0.1046
    8SAPS   C29  984   1.466   3.919  10.081 -0.5003 -0.2091 -0.3283
    8SAPS   H9R  985   1.386   3.880  10.017  0.1713  0.0511 -1.3380
    8SAPS  C210  986   1.605   3.893  10.034  0.8999  0.1465  0.2317
    8SAPS  H10R  987   1.653   3.807  10.086  1.8999  1.2651  1.2027
    8SAPS  H10S  988   1.683   3.971  10.048  0.4556  0.7014 -0.3568
    8SAPS  C211  989   1.606   3.835   9.891 -0.2346 -0.4267 -0.5510
    8SAPS  H11R  990   1.516   3.852   9.830 -0.2750  0.8656 -0.1427
    8SAPS  C212  991   1.699   3.743   9.843  0.6588  0.5016  0.1031
    8SAPS  H12R  992   1.691   3.716   9.737 -3.1391 -0.7456  0.5795
    8SAPS  C213  993   1.813   3.691   9.925 -0.8337  0.6252  0.0616
    8SAPS  H13R  994   1.845   3.588   9.895  0.0081  1.3242 -1.5646
    8SAPS  H13S  995   1.765   3.662  10.021 -1.6711  2.6739  0.3026
    8SAPS  C214  996   1.937   3.773   9.947 -0.1652  0.5174 -0.3391
    8SAPS  H14R  997   1.967   3.857   9.884  2.4400 -0.2839 -0.2678
    8SAPS  C215  998   2.013   3.769  10.056 -0.1582 -0.2252 -0.4263
    8SAPS  H15R  999   2.104   3.830  10.062  0.3595 -1.0684  0.7404
    8SAPS  C216 1000   2.000   3.679  10.170 -0.0773 -0.2696 -0.5988
    8SAPS  H16R 1001   2.100   3.656  10.214 -1.1666 -0.0353  2.2057
    8SAPS  H16S 1002   1.951   3.583  10.142  0.8280 -0.9425  0.0543
    8SAPS  C217 1003   1.919   3.749  10.279 -0.9865 -0.1343  0.6833
    8SAPS  H17R 1004   1.816   3.776  10.248 -0.4215  0.6025 -0.6402
    8SAPS  H17S 1005   1.968   3.847  10.298 -0.7459  0.2209 -1.4594
    8SAPS  C218 1006   1.917   3.671  10.407  0.6367 -0.0098  0.2071
    8SAPS  H18R 1007   2.016   3.634  10.439  0.3481  1.0127  2.4700
    8SAPS  H18S 1008   1.866   3.572  10.398  2.4249 -1.1312  1.6746
    8SAPS  C219 1009   1.856   3.752  10.521 -0.4291 -0.3039  0.3024
    8SAPS  H19R 1010   1.750   3.775  10.494 -0.8195 -1.9333  0.3412
    8SAPS  H19S 1011   1.892   3.857  10.522  2.4236 -1.0916 -2.6451
    8SAPS  C220 1012   1.843   3.659  10.643 -0.0092 -0.1393  0.4313
    8SAPS  H20R 1013   1.749   3.694  10.692 -1.9669  0.1668 -3.2170
    8SAPS  H20S 1014   1.938   3.657  10.701  1.4796  0.2161 -1.8732
    8SAPS  H20T 1015   1.823   3.557  10.603  2.3127 -0.6064  0.3050
    8SAPS   C33 1016   0.769   3.810  10.638 -0.2623 -0.1572  0.0568
    8SAPS   H3X 1017   0.834   3.725  10.606  0.4192  0.0071  0.9544
    8SAPS   H3Y 1018   0.819   3.909  10.622 -3.1379  1.3891  0.0457
    8SAPS   C34 1019   0.644   3.807  10.555 -0.0843 -0.2211  0.6809
    8SAPS   H4X 1020   0.573   3.891  10.574  1.6868  1.6619 -0.5584
    8SAPS   H4Y 1021   0.592   3.710  10.567  2.5633 -1.6797  1.1634
    8SAPS   C35 1022   0.687   3.827  10.403  0.3663  0.0549 -0.2620
    8SAPS   H5X 1023   0.771   3.759  10.376  0.1171 -0.6264  0.6128
    8SAPS   H5Y 1024   0.738   3.925  10.406  2.2083 -0.6902 -3.3579
    8SAPS   C36 1025   0.567   3.806  10.311 -0.0911 -0.2976  0.4989
    8SAPS   H6X 1026   0.497   3.892  10.315 -2.0363 -1.8124  1.0722
    8SAPS   H6Y 1027   0.515   3.714  10.347  0.1882 -1.3954 -1.7372
    8SAPS   C37 1028   0.606   3.766  10.173 -0.2954  0.2268 -0.6261
    8SAPS   H7X 1029   0.678   3.680  10.171 -1.4855 -0.8497  0.6366
    8SAPS   H7Y 1030   0.648   3.851  10.116  0.8135  0.2417  0.1697
    8SAPS   C38 1031   0.488   3.738  10.079 -1.0358  0.4668  0.3694
    8SAPS   H8X 1032   0.423   3.828  10.083 -1.5705  0.0858  0.3250
    8SAPS   H8Y 1033   0.432   3.653  10.124  0.2175 -0.5510  0.0691
    8SAPS   C39 1034   0.534   3.705   9.941 -0.1880  0.1634  0.8187
    8SAPS   H9X 1035   0.607   3.622   9.944 -0.5456 -0.1649  0.5527
    8SAPS   H9Y 1036   0.580   3.800   9.904  0.5659  1.3210  4.3481
    8SAPS  C310 1037   0.413   3.671   9.843 -0.2470 -0.2806 -0.2631
    8SAPS  H10X 1038   0.344   3.759   9.845 -1.7635 -1.4107 -1.1588
    8SAPS  H10Y 1039   0.358   3.582   9.880 -1.0435 -0.1320 -1.0583
    8SAPS  C311 1040   0.462   3.637   9.702  0.0062 -0.6378  0.1534
    8SAPS  H11X 1041   0.529   3.548   9.696  0.1120 -0.5685  0.3123
    8SAPS  H11Y 1042   0.529   3.715   9.658  1.7411 -1.1910  1.6761
    8SAPS  C312 1043   0.351   3.611   9.605  0.8298  0.1939 -0.3439
    8SAPS  H12X 1044   0.283   3.532   9.644 -0.7407  0.1758 -2.8470
    8SAPS  H12Y 1045   0.387   3.571   9.508  0.0479  0.4889 -0.7657
    8SAPS  C313 1046   0.258   3.733   9.584  0.2607  0.0436  0.3634
    8SAPS  H13X 1047   0.328   3.805   9.537 -0.0703 -0.0793 -0.3241
    8SAPS  H13Y 1048   0.217   3.775   9.679  1.3045  1.2540  0.3038
    8SAPS  C314 1049   0.134   3.694   9.493 -0.5362 -0.5420 -0.4573
    8SAPS  H14X 1050   0.072   3.629   9.557 -2.6177  0.4900 -1.3529
    8SAPS  H14Y 1051   0.179   3.630   9.413  0.4859 -0.2534 -0.1301
    8SAPS  C315 1052   0.054   3.813   9.439  0.4833  0.2785 -0.0947
    8SAPS  H15X 1053   0.111   3.874   9.366  0.8983  1.2256  0.9840
    8SAPS  H15Y 1054   0.026   3.871   9.530 -0.7286 -2.3549  1.3258
    8SAPS  C316 1055  -0.072   3.759   9.365  0.1843 -0.1902  0.1368
    8SAPS  H16X 1056  -0.100   3.661   9.408  1.9670 -1.3941 -1.3184
    8SAPS  H16Y 1057  -0.048   3.744   9.258 -0.4888  0.0728 -0.0532
    8SAPS  C317 1058  -0.185   3.861   9.386 -0.6361 -0.0193 -0.0092
    8SAPS  H17X 1059  -0.161   3.968   9.374 -3.2420  0.5265 -1.0297
    8SAPS  H17Y 1060  -0.203   3.843   9.495  0.2528  1.0168  0.3191
    8SAPS  C318 1061  -0.316   3.837   9.320  0.1582 -0.1726  0.0161
    8SAPS  H18X 1062  -0.392   3.917   9.325  1.5992  1.1665  2.1693
    8SAPS  H18Y 1063  -0.359   3.742   9.360 -2.2731  0.1906 -1.5152
    8SAPS  H18Z 1064  -0.298   3.823   9.212 -2.3287 -0.8327 -0.3736
    9SAPS     N 1065   0.494   0.294   6.467 -0.0238  0.1487  0.7672
    9SAPS   HN1 1066   0.443   0.304   6.557 -3.3868  0.7462 -1.0420
    9SAPS   HN2 1067   0.597   0.294   6.479  0.2118 -0.9561 -0.9811
    9SAPS   HN3 1068   0.461   0.373   6.407  0.0005  0.5034  1.2170
    9SAPS   C12 1069   0.458   0.164   6.399 -0.1470  0.2147  0.2366
    9SAPS  H12A 1070   0.425   0.098   6.477 -1.3375  0.1722 -0.2718
    9SAPS   C13 1071   0.329   0.167   6.309  0.3551  0.1934 -0.1105
    9SAPS  O13A 1072   0.274   0.281   6.290  0.0674 -0.0779 -0.4529
    9SAPS  O13B 1073   0.294   0.066   6.248  0.7865 -0.6462  0.0247
    9SAPS   C11 1074   0.584   0.116   6.316 -0.1714 -0.5951  0.1073
    9SAPS  H11A 1075   0.609   0.198   6.245 -0.4974  0.5436  1.2488
    9SAPS  H11B 1076   0.559   0.028   6.254  1.1074 -1.2696  0.5143
    9SAPS     P 1077   0.725  -0.043   6.463 -0.1407  0.0239  0.0399
    9SAPS   O13 1078   0.715  -0.159   6.364 -0.0085 -0.4281 -0.7367
    9SAPS   O14 1079   0.853  -0.031   6.530 -0.3892 -0.1765  0.1907
    9SAPS   O12 1080   0.698   0.095   6.396  0.1068  0.2729  0.0190
    9SAPS   O11 1081   0.603  -0.053   6.565 -0.3034  0.7236 -0.2389
    9SAPS    C1 1082   0.632  -0.123   6.687  0.0477  0.3548 -0.4093
    9SAPS    HA 1083   0.544  -0.183   6.718  1.9636 -2.2488  0.4231
    9SAPS    HB 1084   0.711  -0.199   6.670 -0.3157 -0.0625 -0.2626
    9SAPS    C2 1085   0.669  -0.035   6.805 -0.2655 -0.3138  0.3745
    9SAPS    HS 1086   0.616   0.061   6.786  0.3809 -0.1152 -0.4515
    9SAPS   O21 1087   0.809  -0.028   6.812  0.0692 -0.0443 -0.2111
    9SAPS   C21 1088   0.862   0.092   6.828 -0.2342  0.3457  0.0898
    9SAPS   O22 1089   0.797   0.195   6.835  0.0990  0.0456  0.0579
    9SAPS   C22 1090   1.014   0.092   6.828  0.1584 -0.7829 -0.1892
    9SAPS   H2R 1091   1.044   0.012   6.899  0.0723 -1.4541 -0.9086
    9SAPS   H2S 1092   1.043   0.058   6.726 -2.7717 -4.1111 -0.0846
    9SAPS    C3 1093   0.611  -0.096   6.936 -0.3894  0.0963  0.5441
    9SAPS    HX 1094   0.650  -0.200   6.941 -2.0771 -0.7476 -1.7970
    9SAPS    HY 1095   0.501  -0.110   6.930 -0.1687 -1.1510 -1.7424
    9SAPS   O31 1096   0.653  -0.021   7.047  0.2860  0.2512 -1.1449
    9SAPS   C31 1097   0.589   0.084   7.081  0.9417  0.2021  0.9565
    9SAPS   O32 1098   0.489   0.128   7.028  0.7289  0.2278 -0.3061
    9SAPS   C32 1099   0.643   0.141   7.220 -0.6424  0.0391  0.0277
    9SAPS   H2X 1100   0.754   0.138   7.217 -0.6509 -0.4082  0.0693
    9SAPS   H2Y 1101   0.607   0.072   7.300 -2.7332 -1.3740 -1.9921
    9SAPS   C23 1102   1.077   0.222   6.867  0.3303 -0.3984 -0.6092
    9SAPS   H3R 1103   1.035   0.309   6.812  0.9392  0.2673 -0.0446
    9SAPS   H3S 1104   1.188   0.215   6.869  0.3217 -0.7911 -1.2868
    9SAPS   C24 1105   1.050   0.270   7.014 -0.4391  0.4110 -0.1385
    9SAPS   H4R 1106   1.087   0.184   7.074 -0.1266 -0.7548 -1.9147
    9SAPS   H4S 1107   0.941   0.285   7.030 -0.7669 -0.0850 -1.7024
    9SAPS   C25 1108   1.120   0.393   7.062  0.2485  0.0417  0.1113
    9SAPS   H5R 1109   1.093   0.489   7.014 -0.8839 -1.4126 -2.3408
    9SAPS   C26 1110   1.225   0.397   7.145 -0.7382 -0.0237 -0.5468
    9SAPS   H6R 1111   1.281   0.491   7.159  3.3407 -2.1045 -1.3807
    9SAPS   C27 1112   1.299   0.281   7.210  0.2697 -0.3741  0.7169
    9SAPS   H7R 1113   1.399   0.316   7.241  0.3258  1.4855 -1.2709
    9SAPS   H7S 1114   1.313   0.214   7.122 -1.8663  0.2839 -0.1864
    9SAPS   C28 1115   1.231   0.214   7.325 -0.1401 -0.2603  0.3239
    9SAPS   H8R 1116   1.121   0.211   7.327 -0.1115 -1.5567  1.5969
    9SAPS   C29 1117   1.293   0.165   7.432 -0.5028  0.9024 -0.8037
    9SAPS   H9R 1118   1.239   0.113   7.512 -0.8996 -0.8844 -2.1678
    9SAPS  C210 1119   1.443   0.153   7.451 -0.2016  0.1005 -0.9325
    9SAPS  H10R 1120   1.485   0.134   7.350 -0.1185 -2.3951 -0.5111
    9SAPS  H10S 1121   1.461   0.062   7.513 -1.6907  0.6212  0.3562
    9SAPS  C211 1122   1.501   0.276   7.515 -0.5450 -0.1279 -0.5579
    9SAPS  H11R 1123   1.530   0.353   7.442  0.3035 -0.6879 -0.8152
    9SAPS  C212 1124   1.502   0.318   7.643 -0.2006  0.5252  0.1822
    9SAPS  H12R 1125   1.546   0.416   7.665  2.8225 -0.6921 -0.0013
    9SAPS  C213 1126   1.457   0.241   7.768  0.5722 -0.2206 -0.3266
    9SAPS  H13R 1127   1.533   0.165   7.798  1.3763 -0.2574 -2.2982
    9SAPS  H13S 1128   1.366   0.186   7.735 -1.1447  1.5058  1.3000
    9SAPS  C214 1129   1.429   0.325   7.889  0.0117  0.0633 -0.0711
    9SAPS  H14R 1130   1.405   0.431   7.876  0.6480  0.2735  0.4435
    9SAPS  C215 1131   1.397   0.277   8.011 -0.1521  0.5957  0.7014
    9SAPS  H15R 1132   1.376   0.361   8.080  0.7416  1.3508  0.0876
    9SAPS  C216 1133   1.381   0.135   8.054  0.6166 -0.4946  0.7554
    9SAPS  H16R 1134   1.380   0.063   7.969 -2.0624  0.6173 -0.2612
    9SAPS  H16S 1135   1.272   0.135   8.077 -0.1625  0.2598 -2.4017
    9SAPS  C217 1136   1.469   0.090   8.168 -0.2436  0.5272  0.3649
    9SAPS  H17R 1137   1.466   0.171   8.244 -1.8831 -0.6080  1.6043
    9SAPS  H17S 1138   1.577   0.089   8.145 -0.6085 -0.2789 -1.4681
    9SAPS  C218 1139   1.408  -0.042   8.225 -0.0911  0.4383 -0.3586
    9SAPS  H18R 1140   1.352  -0.100   8.148  2.3371 -2.2457 -0.2461
    9SAPS  H18S 1141   1.329   0.000   8.291 -0.1904  1.1645 -0.9285
    9SAPS  C219 1142   1.505  -0.133   8.293 -0.5736 -0.1660 -0.3308
    9SAPS  H19R 1143   1.565  -0.085   8.374 -1.1662 -3.0474  1.9830
    9SAPS  H19S 1144   1.567  -0.176   8.211 -2.1440 -0.2260 -1.5213
    9SAPS  C220 1145   1.439  -0.253   8.361  0.8271  0.0046 -0.0438
    9SAPS  H20R 1146   1.376  -0.232   8.450  1.3239  0.3527  0.2320
    9SAPS  H20S 1147   1.521  -0.324   8.385  1.6118  0.0703 -2.2956
    9SAPS  H20T 1148   1.373  -0.302   8.287 -0.8260  1.9903  0.0145
    9SAPS   C33 1149   0.591   0.274   7.266  0.6424 -0.5526  0.0343
    9SAPS   H3X 1150   0.485   0.255   7.293  0.8015  0.9928  1.9270
    9SAPS   H3Y 1151   0.592   0.341   7.178  0.2634 -0.1934  0.2988
    9SAPS   C34 1152   0.656   0.331   7.397  0.2937 -0.0484  0.3529
    9SAPS   H4X 1153   0.767   0.340   7.391  0.3894 -0.9973  0.4558
    9SAPS   H4Y 1154   0.643   0.250   7.472  0.6201  0.0127  0.4778
    9SAPS   C35 1155   0.588   0.458   7.443  0.1295 -0.5953  0.4050
    9SAPS   H5X 1156   0.482   0.461   7.411  0.4037  0.3555 -0.4489
    9SAPS   H5Y 1157   0.640   0.546   7.399  0.6607 -0.9330  0.3570
    9SAPS   C36 1158   0.592   0.471   7.594 -0.2390 -0.2487 -0.0034
    9SAPS   H6X 1159   0.579   0.578   7.619  1.0869  0.0065 -0.3330
    9SAPS   H6Y 1160   0.696   0.454   7.629  0.8362 -1.2839 -3.3097
    9SAPS   C37 1161   0.489   0.383   7.659  0.1676 -0.0026  0.5177
    9SAPS   H7X 1162   0.520   0.277   7.650 -1.1300 -0.3031 -0.8829
    9SAPS   H7Y 1163   0.394   0.387   7.602  0.6267 -1.6916 -0.4368
    9SAPS   C38 1164   0.455   0.422   7.804  0.0522 -0.3508 -0.5826
    9SAPS   H8X 1165   0.412   0.523   7.815  0.6819 -0.1147 -0.2051
    9SAPS   H8Y 1166   0.549   0.410   7.863 -2.3398  0.2803  3.8374
    9SAPS   C39 1167   0.350   0.326   7.873  0.3685  0.1313  0.7089
    9SAPS   H9X 1168   0.388   0.222   7.868  1.4790  0.5355  0.4836
    9SAPS   H9Y 1169   0.258   0.342   7.812  2.4353  2.8258 -1.9618
    9SAPS  C310 1170   0.329   0.351   8.026 -0.1748  0.3256  0.0044
    9SAPS  H10X 1171   0.249   0.291   8.074  2.2889 -1.4231  2.2207
    9SAPS  H10Y 1172   0.283   0.452   8.032 -1.5763 -0.2945  0.1205
    9SAPS  C311 1173   0.458   0.342   8.109 -0.3300 -0.7942 -0.1174
    9SAPS  H11X 1174   0.531   0.422   8.083 -1.1131 -0.2607 -0.6894
    9SAPS  H11Y 1175   0.507   0.242   8.116 -0.0166 -0.6842 -0.6992
    9SAPS  C312 1176   0.433   0.372   8.258 -0.3246 -0.1611 -0.1123
    9SAPS  H12X 1177   0.531   0.376   8.311 -0.6534 -1.5116  0.6516
    9SAPS  H12Y 1178   0.381   0.283   8.299  1.8848 -1.3041  0.4068
    9SAPS  C313 1179   0.360   0.499   8.295 -0.0031 -0.2913  0.3864
    9SAPS  H13X 1180   0.252   0.500   8.270  0.1392  0.1984 -0.2200
    9SAPS  H13Y 1181   0.400   0.578   8.228 -1.4688 -0.5202 -0.7983
    9SAPS  C314 1182   0.366   0.550   8.442 -0.3641 -0.1404  0.4175
    9SAPS  H14X 1183   0.308   0.643   8.457 -0.5903 -0.0342 -0.9902
    9SAPS  H14Y 1184   0.471   0.580   8.465  0.0784 -0.6079 -0.8834
    9SAPS  C315 1185   0.321   0.452   8.552  0.1738 -0.9507  0.0376
    9SAPS  H15X 1186   0.393   0.368   8.564 -0.6394 -1.5363  0.9816
    9SAPS  H15Y 1187   0.232   0.394   8.521 -1.3641 -0.5461  3.2527
    9SAPS  C316 1188   0.307   0.509   8.700  0.0558 -0.2128  0.6692
    9SAPS  H16X 1189   0.217   0.570   8.678 -0.7136 -1.8558 -1.0649
    9SAPS  H16Y 1190   0.399   0.566   8.723  0.3352  0.1369 -1.1453
    9SAPS  C317 1191   0.279   0.401   8.810  0.1296 -0.7200  0.1032
    9SAPS  H17X 1192   0.278   0.455   8.907  1.3714  0.7429 -0.6540
    9SAPS  H17Y 1193   0.366   0.333   8.804  2.4838  1.7911  2.6360
    9SAPS  C318 1194   0.150   0.320   8.779 -0.2649 -0.5003  0.1043
    9SAPS  H18X 1195   0.059   0.383   8.762  0.9772  0.6354 -2.9489
    9SAPS  H18Y 1196   0.137   0.243   8.858  1.0343 -2.0109 -1.1013
    9SAPS  H18Z 1197   0.166   0.268   8.683 -1.2575  1.5565 -1.2585
   10SAPS     N 1198   0.049   6.054   6.459  0.5536 -0.3252  0.7458
   10SAPS   HN1 1199   0.105   6.105   6.388 -1.1945  1.3816  0.5315
   10SAPS   HN2 1200  -0.036   6.112   6.470 -1.2651 -2.8073  0.4530
   10SAPS   HN3 1201   0.096   6.050   6.552  0.9928  1.0992  0.6121
   10SAPS   C12 1202   0.010   5.923   6.426  0.0426  0.3541  0.3559
   10SAPS  H12A 1203  -0.061   5.888   6.500 -0.0350  2.1361  1.1993
   10SAPS   C13 1204  -0.065   5.918   6.291 -0.5249  0.8793 -0.8551
   10SAPS  O13A 1205  -0.066   6.008   6.207 -0.1322 -0.0824 -0.2583
   10SAPS  O13B 1206  -0.116   5.807   6.263  0.1480  0.0495  0.4787
   10SAPS   C11 1207   0.137   5.837   6.416 -0.1580  0.2986 -0.4089
   10SAPS  H11A 1208   0.194   5.865   6.325  0.5928  3.1194  0.8078
   10SAPS  H11B 1209   0.113   5.729   6.421  0.0021  0.3029  0.4912
   10SAPS     P 1210   0.361   5.798   6.553 -0.0381 -0.1303  0.2604
   10SAPS   O13 1211   0.393   5.716   6.432  0.2543  0.6158 -0.5265
   10SAPS   O14 1212   0.462   5.904   6.578  0.6274  0.3012 -0.5129
   10SAPS   O12 1213   0.224   5.863   6.527  0.1829 -0.0849 -0.2227
   10SAPS   O11 1214   0.344   5.704   6.673 -0.3016 -0.6399 -0.4980
   10SAPS    C1 1215   0.243   5.729   6.771  0.8248 -0.2939 -0.0241
   10SAPS    HA 1216   0.217   5.837   6.774 -0.2798 -0.5229 -0.5591
   10SAPS    HB 1217   0.152   5.674   6.739  1.2671  0.1853 -2.3220
   10SAPS    C2 1218   0.291   5.693   6.909  0.0906 -0.2434 -0.7382
   10SAPS    HS 1219   0.270   5.585   6.922  1.9437 -0.7389 -1.5248
   10SAPS   O21 1220   0.215   5.774   7.009 -0.3845  0.2663  0.6733
   10SAPS   C21 1221   0.099   5.722   7.047 -0.6507 -0.0138 -0.7410
   10SAPS   O22 1222   0.056   5.616   7.007  0.2545  0.5340 -0.0569
   10SAPS   C22 1223   0.022   5.826   7.131  0.1110  0.5294  0.2857
   10SAPS   H2R 1224  -0.034   5.887   7.056 -0.5434 -0.9544 -0.4629
   10SAPS   H2S 1225  -0.048   5.767   7.194  0.7946 -0.6761 -0.0687
   10SAPS    C3 1226   0.439   5.711   6.930  0.1952  0.6353 -0.5895
   10SAPS    HX 1227   0.457   5.821   6.929 -0.0116  0.6921  0.8016
   10SAPS    HY 1228   0.486   5.666   6.840 -1.1436 -1.7414 -0.1690
   10SAPS   O31 1229   0.498   5.648   7.052 -0.0303  0.3777 -0.8634
   10SAPS   C31 1230   0.495   5.724   7.162  0.4090  0.3661  0.8525
   10SAPS   O32 1231   0.463   5.840   7.169 -0.2215  0.5065 -0.4057
   10SAPS   C32 1232   0.519   5.640   7.284 -0.9444  0.6884  0.2881
   10SAPS   H2X 1233   0.582   5.551   7.265 -1.7303  0.1234  0.2884
   10SAPS   H2Y 1234   0.423   5.593   7.312 -0.2169 -1.0352  0.0089
   10SAPS   C23 1235   0.118   5.909   7.225 -0.1585  0.1167  0.4744
   10SAPS   H3R 1236   0.197   5.965   7.171 -1.2249  0.1346 -1.1750
   10SAPS   H3S 1237   0.166   5.840   7.297 -2.9907  1.7481  4.2525
   10SAPS   C24 1238   0.036   5.998   7.324  0.9250 -0.2116 -0.5939
   10SAPS   H4R 1239  -0.065   5.954   7.340  0.8091 -0.0015 -0.7409
   10SAPS   H4S 1240   0.021   6.094   7.270  0.8377 -1.2715 -2.5276
   10SAPS   C25 1241   0.104   6.020   7.462  0.0538 -0.3715  0.3560
   10SAPS   H5R 1242   0.189   6.090   7.468 -0.9545  0.7512  2.4110
   10SAPS   C26 1243   0.055   5.969   7.574  0.0464 -0.6259  0.4628
   10SAPS   H6R 1244   0.105   6.010   7.664  1.1328 -2.7571  0.8884
   10SAPS   C27 1245  -0.068   5.879   7.593 -0.5000 -0.6086  0.7146
   10SAPS   H7R 1246  -0.042   5.791   7.531  1.0679  0.9853 -1.0451
   10SAPS   H7S 1247  -0.155   5.935   7.553  1.0447  0.9155 -0.6801
   10SAPS   C28 1248  -0.103   5.831   7.728  0.0925 -0.4927 -0.1903
   10SAPS   H8R 1249  -0.082   5.723   7.732  1.2678 -0.2557  1.6292
   10SAPS   C29 1250  -0.158   5.892   7.831 -0.6208  0.4724 -0.5088
   10SAPS   H9R 1251  -0.163   5.833   7.924  1.1064  1.6105  0.3728
   10SAPS  C210 1252  -0.188   6.037   7.840  0.6352 -0.4412 -0.3410
   10SAPS  H10R 1253  -0.166   6.080   7.739  2.2827 -0.7877 -0.1541
   10SAPS  H10S 1254  -0.116   6.086   7.909 -2.3171  1.3401  1.7181
   10SAPS  C211 1255  -0.332   6.066   7.880  0.2080 -0.4900 -0.9663
   10SAPS  H11R 1256  -0.409   6.053   7.802 -0.4308 -2.7696 -0.0392
   10SAPS  C212 1257  -0.361   6.120   8.003 -0.3186 -0.2851 -0.0108
   10SAPS  H12R 1258  -0.466   6.152   8.016 -1.2105 -2.1583 -1.9497
   10SAPS  C213 1259  -0.264   6.158   8.108 -0.0336  0.3850  0.0292
   10SAPS  H13R 1260  -0.174   6.093   8.098 -1.9349 -2.2217 -1.4398
   10SAPS  H13S 1261  -0.304   6.134   8.209 -2.2235 -1.2516 -1.1363
   10SAPS  C214 1262  -0.211   6.301   8.110 -0.4493 -0.6117 -0.0108
   10SAPS  H14R 1263  -0.273   6.384   8.075  1.9984  1.2408 -0.1951
   10SAPS  C215 1264  -0.090   6.341   8.149 -0.3832 -0.2914 -0.5625
   10SAPS  H15R 1265  -0.066   6.448   8.161 -0.7519 -0.1662 -0.9341
   10SAPS  C216 1266   0.019   6.252   8.207  0.8401 -0.4323  0.4705
   10SAPS  H16R 1267   0.106   6.256   8.139  0.2927  0.8247 -0.1880
   10SAPS  H16S 1268  -0.007   6.144   8.217  0.4084 -0.3344  0.4560
   10SAPS  C217 1269   0.065   6.299   8.348  0.3732  0.5043 -0.0120
   10SAPS  H17R 1270   0.086   6.408   8.357 -1.6055  1.0068 -0.7657
   10SAPS  H17S 1271   0.159   6.244   8.369  0.1227  0.8139  2.1861
   10SAPS  C218 1272  -0.038   6.257   8.456 -0.4469 -0.1625  0.2034
   10SAPS  H18R 1273  -0.096   6.175   8.408  1.2634 -0.7208 -1.0245
   10SAPS  H18S 1274  -0.112   6.336   8.481  0.7442  1.4310 -1.0719
   10SAPS  C219 1275   0.016   6.215   8.589  0.4842 -0.0632  0.3342
   10SAPS  H19R 1276   0.077   6.126   8.562  1.7750  1.0157 -0.4336
   10SAPS  H19S 1277  -0.065   6.188   8.660  2.3757 -0.6246  2.3823
   10SAPS  C220 1278   0.106   6.314   8.668  0.2300  0.0586 -0.2003
   10SAPS  H20R 1279   0.196   6.339   8.609 -0.5931 -0.4612 -1.7329
   10SAPS  H20S 1280   0.131   6.272   8.767 -0.3498  0.9308  0.3279
   10SAPS  H20T 1281   0.045   6.399   8.705  0.6187 -0.2885  1.2856
   10SAPS   C33 1282   0.592   5.714   7.399 -0.5348  0.2145  0.0051
   10SAPS   H3X 1283   0.546   5.813   7.412  1.2324  0.9906  0.7198
   10SAPS   H3Y 1284   0.697   5.718   7.363 -0.0841 -1.9444  0.8500
   10SAPS   C34 1285   0.597   5.639   7.535 -0.3344  0.2184 -0.2322
   10SAPS   H4X 1286   0.642   5.538   7.518 -0.4672 -0.1183  1.2527
   10SAPS   H4Y 1287   0.499   5.627   7.586 -0.3074  1.5996  0.1785
   10SAPS   C35 1288   0.683   5.705   7.639 -1.1675  0.2405 -0.0055
   10SAPS   H5X 1289   0.646   5.807   7.661  0.9567  0.7420  1.5491
   10SAPS   H5Y 1290   0.788   5.709   7.601 -1.2900  2.2571 -0.2745
   10SAPS   C36 1291   0.677   5.615   7.768  0.4458 -0.1882 -0.6024
   10SAPS   H6X 1292   0.706   5.513   7.736 -1.1992 -1.6516  2.2315
   10SAPS   H6Y 1293   0.573   5.597   7.803  0.8363 -0.3286  0.5560
   10SAPS   C37 1294   0.773   5.660   7.882  0.6709  0.0198  0.2525
   10SAPS   H7X 1295   0.755   5.758   7.931  0.0062 -1.6410  3.5663
   10SAPS   H7Y 1296   0.875   5.659   7.837  0.0595  0.7340 -1.2431
   10SAPS   C38 1297   0.782   5.566   8.008 -0.1894  0.2277 -0.3989
   10SAPS   H8X 1298   0.834   5.474   7.974  0.5920  0.9557 -1.1907
   10SAPS   H8Y 1299   0.683   5.542   8.052 -0.6298 -0.4364 -1.7106
   10SAPS   C39 1300   0.867   5.628   8.116  0.4151  0.0654 -0.1486
   10SAPS   H9X 1301   0.807   5.717   8.148 -1.5032  0.0522 -3.3297
   10SAPS   H9Y 1302   0.958   5.667   8.067  0.8836 -2.3623 -1.3289
   10SAPS  C310 1303   0.897   5.540   8.237  0.0027  0.4506 -0.1962
   10SAPS  H10X 1304   0.934   5.439   8.209 -2.2845 -0.9651  1.5290
   10SAPS  H10Y 1305   0.810   5.519   8.303 -0.6673 -1.2165 -1.5026
   10SAPS  C311 1306   1.016   5.601   8.316 -1.0170  0.3735  0.8578
   10SAPS  H11X 1307   0.991   5.698   8.365 -0.5661  1.4136 -0.8911
   10SAPS  H11Y 1308   1.096   5.632   8.246 -1.3760  0.1472  0.3391
   10SAPS  C312 1309   1.063   5.503   8.430 -0.4164 -0.4275  0.5964
   10SAPS  H12X 1310   1.070   5.398   8.393 -1.4660 -0.6028  0.8765
   10SAPS  H12Y 1311   0.989   5.514   8.512 -1.2209  0.6005 -0.2630
   10SAPS  C313 1312   1.211   5.521   8.476 -0.8317 -0.6762  0.2000
   10SAPS  H13X 1313   1.277   5.518   8.386  0.5577  0.3756  1.1292
   10SAPS  H13Y 1314   1.234   5.435   8.543  1.0509 -0.2573  0.1728
   10SAPS  C314 1315   1.240   5.652   8.549  0.5091  0.1128  0.6737
   10SAPS  H14X 1316   1.145   5.667   8.605 -0.7837 -5.7847  0.7340
   10SAPS  H14Y 1317   1.257   5.740   8.484  0.9641 -0.9888 -0.7483
   10SAPS  C315 1318   1.362   5.642   8.650  0.2405 -0.5593  0.9850
   10SAPS  H15X 1319   1.452   5.617   8.589 -1.6704  0.3068 -2.4412
   10SAPS  H15Y 1320   1.332   5.562   8.721 -1.0297 -1.0800 -0.0976
   10SAPS  C316 1321   1.384   5.771   8.729 -0.3905 -0.2236  0.5991
   10SAPS  H16X 1322   1.402   5.857   8.661 -1.3541  0.5889  1.3333
   10SAPS  H16Y 1323   1.477   5.755   8.788 -0.7335 -1.5964  0.7866
   10SAPS  C317 1324   1.274   5.798   8.818 -0.5462  0.2957  0.1532
   10SAPS  H17X 1325   1.254   5.712   8.885 -3.0286 -0.1435 -1.0218
   10SAPS  H17Y 1326   1.183   5.797   8.753 -0.0103  0.4775 -0.6140
   10SAPS  C318 1327   1.270   5.930   8.884 -0.4436  0.3476  0.3478
   10SAPS  H18X 1328   1.165   5.960   8.903 -0.4704  1.8703 -1.8215
   10SAPS  H18Y 1329   1.320   6.012   8.829  2.4855 -1.9492 -0.7086
   10SAPS  H18Z 1330   1.315   5.923   8.985  1.0469 -0.7859 -0.3532
   11SAPS     N 1331   3.744   0.658   5.977  0.3802  0.2291  0.2318
   11SAPS   HN1 1332   3.726   0.623   5.881 -0.8728  0.7765  0.2460
   11SAPS   HN2 1333   3.761   0.761   5.982 -0.3860  0.3650  0.0677
   11SAPS   HN3 1334   3.823   0.597   6.007 -0.3270 -0.0985  1.4896
   11SAPS   C12 1335   3.618   0.631   6.044 -0.2256  0.6183  0.5644
   11SAPS  H12A 1336   3.546   0.705   6.011  1.6116  3.1237  1.8472
   11SAPS   C13 1337   3.549   0.488   6.026 -0.0817  0.3135 -0.7656
   11SAPS  O13A 1338   3.617   0.386   5.986  0.1930 -0.0287  0.5361
   11SAPS  O13B 1339   3.442   0.468   6.092  0.2878 -0.1117  0.8553
   11SAPS   C11 1340   3.639   0.670   6.193  0.5795  0.4417 -0.8772
   11SAPS  H11A 1341   3.711   0.596   6.234 -3.6412 -2.3579  2.2891
   11SAPS  H11B 1342   3.538   0.660   6.238  0.1209  0.0902 -1.9510
   11SAPS     P 1343   3.600   0.921   6.273  0.2924  0.3517 -0.0329
   11SAPS   O13 1344   3.695   1.022   6.318 -0.6370  0.3365  0.3415
   11SAPS   O14 1345   3.507   0.965   6.164  0.4858  0.2664 -0.5257
   11SAPS   O12 1346   3.692   0.803   6.215 -0.3055  0.9440 -0.6459
   11SAPS   O11 1347   3.523   0.857   6.393  0.2524 -0.3390  0.4827
   11SAPS    C1 1348   3.567   0.861   6.528 -0.1810  0.1381  0.0800
   11SAPS    HA 1349   3.616   0.959   6.548 -1.1981  1.1453 -2.0705
   11SAPS    HB 1350   3.476   0.870   6.591  0.0874 -1.3429  0.7281
   11SAPS    C2 1351   3.654   0.739   6.570  0.5939 -0.4522  0.6614
   11SAPS    HS 1352   3.715   0.711   6.482  0.5597  0.0839  0.4644
   11SAPS   O21 1353   3.554   0.631   6.585 -0.3973 -0.6228 -0.1453
   11SAPS   C21 1354   3.595   0.513   6.613  0.2115  0.6945  0.4399
   11SAPS   O22 1355   3.715   0.477   6.623  0.7415 -0.0128  0.0117
   11SAPS   C22 1356   3.476   0.418   6.640 -0.2549 -0.1948  0.0122
   11SAPS   H2R 1357   3.393   0.482   6.602  0.3383 -0.0913 -1.1362
   11SAPS   H2S 1358   3.500   0.336   6.569  1.3575  1.1529 -1.0828
   11SAPS    C3 1359   3.755   0.769   6.690 -0.8288  0.6546  1.1057
   11SAPS    HX 1360   3.837   0.821   6.636 -0.7923 -1.3055 -0.9098
   11SAPS    HY 1361   3.787   0.670   6.728  2.0278 -0.0151 -2.4846
   11SAPS   O31 1362   3.697   0.839   6.797  0.0603 -0.4069 -0.0310
   11SAPS   C31 1363   3.780   0.929   6.858 -0.3249  0.2587 -0.4461
   11SAPS   O32 1364   3.897   0.936   6.840 -0.9679  0.1142  0.2378
   11SAPS   C32 1365   3.706   1.016   6.958  0.3152  0.1669  0.3911
   11SAPS   H2X 1366   3.607   0.967   6.958  0.6736 -0.5652  0.5138
   11SAPS   H2Y 1367   3.698   1.120   6.918  1.1244 -0.5695 -1.8488
   11SAPS   C23 1368   3.462   0.371   6.786  0.4123 -0.7152 -0.8562
   11SAPS   H3R 1369   3.560   0.341   6.830  0.1389 -1.1461 -0.5413
   11SAPS   H3S 1370   3.404   0.277   6.785 -2.1512  0.7168  1.2922
   11SAPS   C24 1371   3.408   0.488   6.873 -0.5250 -0.4370 -0.1458
   11SAPS   H4R 1372   3.368   0.437   6.963  0.0136 -1.1527 -0.3002
   11SAPS   H4S 1373   3.319   0.537   6.828  1.2593  1.1775 -2.0853
   11SAPS   C25 1374   3.513   0.597   6.896 -0.0021  0.4949  0.3510
   11SAPS   H5R 1375   3.528   0.680   6.825 -0.7341  1.4899  1.3216
   11SAPS   C26 1376   3.586   0.613   7.008  0.1759 -0.3916 -0.0281
   11SAPS   H6R 1377   3.665   0.690   7.015 -1.6585  1.7619 -1.4120
   11SAPS   C27 1378   3.584   0.534   7.138  0.1672  0.1269 -0.1159
   11SAPS   H7R 1379   3.483   0.516   7.181  1.0212 -2.3354  1.0105
   11SAPS   H7S 1380   3.650   0.591   7.208  0.2631  0.1606 -0.2337
   11SAPS   C28 1381   3.645   0.401   7.115  1.0882  0.7400  0.2224
   11SAPS   H8R 1382   3.579   0.339   7.052  1.1887  0.7464  0.1101
   11SAPS   C29 1383   3.753   0.340   7.166  0.2695 -0.4738 -0.1750
   11SAPS   H9R 1384   3.779   0.241   7.125  0.5923 -0.0548 -1.0088
   11SAPS  C210 1385   3.855   0.396   7.262 -0.4870  0.0592  0.5317
   11SAPS  H10R 1386   3.905   0.310   7.310  1.5182  2.8397  3.9040
   11SAPS  H10S 1387   3.801   0.455   7.340 -0.0989 -0.1464  0.9601
   11SAPS  C211 1388   3.960   0.466   7.180  0.2419  0.2351 -0.4489
   11SAPS  H11R 1389   3.927   0.520   7.090  0.7246  3.1090  0.9669
   11SAPS  C212 1390   4.092   0.479   7.204 -0.4013  0.0898 -0.5105
   11SAPS  H12R 1391   4.152   0.517   7.120  0.0334 -1.8004 -1.1130
   11SAPS  C213 1392   4.157   0.422   7.330  0.1647 -0.2405 -0.8676
   11SAPS  H13R 1393   4.127   0.316   7.345 -1.3804  0.3541  0.5937
   11SAPS  H13S 1394   4.124   0.475   7.422 -1.5119 -2.3682 -0.1663
   11SAPS  C214 1395   4.313   0.435   7.331  0.4690 -0.0679 -0.9026
   11SAPS  H14R 1396   4.352   0.506   7.258 -0.2015 -0.2386 -1.4361
   11SAPS  C215 1397   4.393   0.370   7.410  0.3049 -0.3828 -0.4934
   11SAPS  H15R 1398   4.501   0.383   7.396  0.4919 -1.8557 -0.5885
   11SAPS  C216 1399   4.367   0.267   7.513  0.2871  0.0578 -0.3496
   11SAPS  H16R 1400   4.453   0.196   7.503  3.7573  3.5627  1.7834
   11SAPS  H16S 1401   4.274   0.211   7.489  0.1848 -1.0310  2.2797
   11SAPS  C217 1402   4.358   0.321   7.660 -0.6029 -0.1115 -1.0390
   11SAPS  H17R 1403   4.355   0.239   7.735  1.8965  0.8261  0.2014
   11SAPS  H17S 1404   4.254   0.356   7.677 -0.7506 -0.4528 -1.2348
   11SAPS  C218 1405   4.462   0.422   7.701  0.2489  0.3930  0.1573
   11SAPS  H18R 1406   4.434   0.519   7.654  0.8158 -0.9914 -3.3614
   11SAPS  H18S 1407   4.554   0.386   7.652 -0.3878  0.7826 -1.4002
   11SAPS  C219 1408   4.488   0.429   7.857 -0.3057  0.4594  0.1613
   11SAPS  H19R 1409   4.523   0.329   7.888  1.1761  0.7992 -0.3428
   11SAPS  H19S 1410   4.390   0.455   7.902 -0.2321  0.1742  0.4910
   11SAPS  C220 1411   4.596   0.525   7.894 -0.1552  0.5473 -0.2139
   11SAPS  H20R 1412   4.561   0.628   7.872  1.5730  0.6632 -2.8478
   11SAPS  H20S 1413   4.687   0.514   7.831 -1.2091 -0.9943 -1.5786
   11SAPS  H20T 1414   4.639   0.519   7.996 -0.3432 -1.7657 -0.2144
   11SAPS   C33 1415   3.761   1.013   7.105  0.2624 -0.3865 -0.6217
   11SAPS   H3X 1416   3.706   1.095   7.155 -0.4863 -2.1323  1.5840
   11SAPS   H3Y 1417   3.867   1.047   7.100  0.0626  1.0263  2.3691
   11SAPS   C34 1418   3.729   0.886   7.186  0.9655  0.1823 -0.0988
   11SAPS   H4X 1419   3.796   0.800   7.164 -1.2121 -1.2843 -1.4271
   11SAPS   H4Y 1420   3.627   0.854   7.155  0.4405  2.1101 -0.5146
   11SAPS   C35 1421   3.727   0.914   7.335  0.2240  0.1512 -0.9146
   11SAPS   H5X 1422   3.649   0.986   7.368  1.2100 -0.0864  2.3398
   11SAPS   H5Y 1423   3.826   0.950   7.372 -0.0625  0.7855 -0.7480
   11SAPS   C36 1424   3.681   0.782   7.413 -0.6579 -0.7543 -0.3506
   11SAPS   H6X 1425   3.757   0.701   7.425  0.8891  0.7700  0.6151
   11SAPS   H6Y 1426   3.599   0.725   7.365  0.3238 -2.7588  0.2271
   11SAPS   C37 1427   3.625   0.823   7.557 -0.0087 -0.2972 -0.0053
   11SAPS   H7X 1428   3.558   0.741   7.591  0.2159  0.3749  2.2469
   11SAPS   H7Y 1429   3.567   0.918   7.547  2.7458  1.8051  2.3710
   11SAPS   C38 1430   3.736   0.847   7.653  0.2621  0.5794  1.0504
   11SAPS   H8X 1431   3.801   0.926   7.609  0.6716 -0.1886  0.2491
   11SAPS   H8Y 1432   3.800   0.759   7.674  1.7709  1.6932  1.3141
   11SAPS   C39 1433   3.681   0.899   7.783  0.4941 -0.2965 -0.0636
   11SAPS   H9X 1434   3.583   0.854   7.806  0.7283 -1.3724 -1.0695
   11SAPS   H9Y 1435   3.674   1.009   7.769  2.9823  0.0172  0.5576
   11SAPS  C310 1436   3.778   0.898   7.904 -0.1118  0.5838 -0.0826
   11SAPS  H10X 1437   3.877   0.943   7.882  0.9599 -0.9767  1.3165
   11SAPS  H10Y 1438   3.802   0.792   7.926  2.4329  0.5178 -2.5882
   11SAPS  C311 1439   3.715   0.952   8.034 -0.3452  0.5019  0.1955
   11SAPS  H11X 1440   3.612   0.909   8.032 -0.0419 -0.2892  0.8621
   11SAPS  H11Y 1441   3.689   1.059   8.045 -1.8056  0.1757  0.1934
   11SAPS  C312 1442   3.799   0.921   8.152  0.4481 -0.6841 -0.1189
   11SAPS  H12X 1443   3.895   0.977   8.149 -0.1566  0.3396 -0.8449
   11SAPS  H12Y 1444   3.826   0.813   8.146  1.5617 -0.4464  0.4018
   11SAPS  C313 1445   3.727   0.971   8.279 -0.5199  0.2079  0.4667
   11SAPS  H13X 1446   3.755   0.908   8.366 -0.4459 -1.6751 -0.8706
   11SAPS  H13Y 1447   3.617   0.960   8.269 -0.3342 -2.3007  0.4712
   11SAPS  C314 1448   3.766   1.121   8.312  0.0436 -0.1375 -0.3804
   11SAPS  H14X 1449   3.701   1.182   8.246 -0.8383  0.9881  1.4383
   11SAPS  H14Y 1450   3.875   1.134   8.298  0.4260 -1.0027  1.3723
   11SAPS  C315 1451   3.739   1.164   8.453  0.0308 -0.0916  1.2118
   11SAPS  H15X 1452   3.789   1.093   8.522  1.7670  0.8620  0.9913
   11SAPS  H15Y 1453   3.630   1.167   8.473 -0.3097 -1.1964 -0.2881
   11SAPS  C316 1454   3.795   1.307   8.484  0.2613 -0.0838  0.5999
   11SAPS  H16X 1455   3.799   1.373   8.395  1.3387 -1.5071 -0.4746
   11SAPS  H16Y 1456   3.904   1.299   8.507  0.3172 -0.3594  0.2635
   11SAPS  C317 1457   3.716   1.380   8.599 -0.3528  0.0430  0.5491
   11SAPS  H17X 1458   3.607   1.372   8.581 -0.8460  1.6237  2.3987
   11SAPS  H17Y 1459   3.738   1.489   8.601 -0.2835  0.0204  1.3923
   11SAPS  C318 1460   3.750   1.326   8.736  0.4185 -0.0388  0.4575
   11SAPS  H18X 1461   3.693   1.389   8.809  1.4100  1.2830  0.1341
   11SAPS  H18Y 1462   3.860   1.340   8.751  0.4223 -1.0745  1.5812
   11SAPS  H18Z 1463   3.736   1.217   8.749  0.9429 -0.6008 -2.9021
   12SAPS     N 1464   1.898   2.205   6.358 -0.1607  0.6502 -0.6470
   12SAPS   HN1 1465   1.903   2.116   6.305  2.7152  0.8037 -0.7947
   12SAPS   HN2 1466   1.966   2.196   6.436 -0.5185  0.1756 -0.3830
   12SAPS   HN3 1467   1.804   2.225   6.399  0.3163  1.9706 -0.1096
   12SAPS   C12 1468   1.956   2.325   6.279 -0.0007  0.5124  0.0363
   12SAPS  H12A 1469   1.956   2.404   6.353  0.6995  0.8328 -0.2947
   12SAPS   C13 1470   2.104   2.308   6.228  0.0202 -0.8471 -0.2208
   12SAPS  O13A 1471   2.172   2.211   6.260  0.3984  0.0430 -0.2394
   12SAPS  O13B 1472   2.156   2.408   6.171 -0.5033  0.5129 -0.3524
   12SAPS   C11 1473   1.855   2.355   6.159 -0.0362 -0.0246 -0.0165
   12SAPS  H11A 1474   1.848   2.264   6.095  0.6502  1.1795 -1.8853
   12SAPS  H11B 1475   1.891   2.427   6.083  2.1032 -2.9964 -2.0526
   12SAPS     P 1476   1.704   2.534   6.281 -0.4982 -0.7923 -0.2945
   12SAPS   O13 1477   1.815   2.618   6.240  0.3116  0.1197 -0.2552
   12SAPS   O14 1478   1.574   2.596   6.249  0.0037 -0.0450  0.1118
   12SAPS   O12 1479   1.724   2.389   6.211 -0.5358  0.3587 -0.5227
   12SAPS   O11 1480   1.720   2.502   6.434 -0.0270  0.3838 -0.1799
   12SAPS    C1 1481   1.620   2.428   6.506  0.2194  0.7101 -0.2638
   12SAPS    HA 1482   1.555   2.368   6.438 -0.2781  1.8262 -0.8032
   12SAPS    HB 1483   1.671   2.359   6.577 -1.5469  1.5994  1.9876
   12SAPS    C2 1484   1.515   2.516   6.580  0.1394  0.2059 -0.2342
   12SAPS    HS 1485   1.482   2.589   6.503 -0.3354 -2.1601 -2.4241
   12SAPS   O21 1486   1.576   2.570   6.698  0.1754  0.3700 -0.5718
   12SAPS   C21 1487   1.629   2.699   6.688 -0.3996 -0.5810 -0.6494
   12SAPS   O22 1488   1.618   2.758   6.581 -0.0341 -0.0960  0.1479
   12SAPS   C22 1489   1.711   2.733   6.816  0.1359 -0.2395  0.6061
   12SAPS   H2R 1490   1.797   2.664   6.804  0.5206  0.6752 -3.0837
   12SAPS   H2S 1491   1.746   2.837   6.804 -2.7157  0.6541 -1.0546
   12SAPS    C3 1492   1.394   2.431   6.625 -0.8371  0.1088  0.2163
   12SAPS    HX 1493   1.360   2.382   6.532  0.3770 -4.1656  1.8045
   12SAPS    HY 1494   1.318   2.501   6.666 -1.5713 -0.4344 -0.1921
   12SAPS   O31 1495   1.438   2.327   6.714 -0.0206 -0.0792  0.0089
   12SAPS   C31 1496   1.418   2.354   6.841  1.0935 -0.2458 -0.3468
   12SAPS   O32 1497   1.360   2.454   6.892  0.0358  0.2210  0.1416
   12SAPS   C32 1498   1.471   2.246   6.920 -0.5793 -0.5205 -1.0687
   12SAPS   H2X 1499   1.577   2.222   6.899 -0.1289  0.4084 -0.0183
   12SAPS   H2Y 1500   1.419   2.155   6.884  2.7641 -3.3266  0.6638
   12SAPS   C23 1501   1.631   2.691   6.940  0.2255 -0.1533 -0.2371
   12SAPS   H3R 1502   1.586   2.589   6.946  0.0275 -0.1131  5.8312
   12SAPS   H3S 1503   1.541   2.755   6.947  1.9207  2.2808  0.4378
   12SAPS   C24 1504   1.717   2.708   7.071  0.3650  0.2888  1.0719
   12SAPS   H4R 1505   1.821   2.678   7.048 -0.5297 -0.7982 -2.1543
   12SAPS   H4S 1506   1.673   2.641   7.148 -0.6951 -1.6323 -1.0593
   12SAPS   C25 1507   1.728   2.848   7.110 -0.1870  0.3723 -0.1683
   12SAPS   H5R 1508   1.739   2.930   7.038  0.8758  1.3940  1.0955
   12SAPS   C26 1509   1.724   2.898   7.239 -0.3008  0.2187 -0.0508
   12SAPS   H6R 1510   1.728   3.007   7.256  0.2364  0.1349  0.3846
   12SAPS   C27 1511   1.716   2.816   7.372  0.3837  0.0804  0.0577
   12SAPS   H7R 1512   1.806   2.830   7.436 -0.4660  0.7197  1.1563
   12SAPS   H7S 1513   1.705   2.710   7.342 -0.3305  0.6127 -1.6550
   12SAPS   C28 1514   1.606   2.855   7.462 -0.3578  0.3256 -0.5076
   12SAPS   H8R 1515   1.523   2.907   7.414 -0.4746  2.3625  1.7152
   12SAPS   C29 1516   1.613   2.844   7.597  0.1583 -0.4194 -1.0326
   12SAPS   H9R 1517   1.517   2.867   7.646  0.9062  0.7600 -0.0537
   12SAPS  C210 1518   1.719   2.781   7.687  0.0133  0.0001  0.0905
   12SAPS  H10R 1519   1.819   2.811   7.648  0.2803 -1.0805 -0.0770
   12SAPS  H10S 1520   1.709   2.671   7.681 -3.0967  0.2575 -2.3206
   12SAPS  C211 1521   1.716   2.820   7.836 -0.7410 -0.3311  0.8934
   12SAPS  H11R 1522   1.727   2.928   7.851 -3.1927  0.4540 -1.9982
   12SAPS  C212 1523   1.697   2.748   7.944 -0.2611  0.3419  0.3323
   12SAPS  H12R 1524   1.708   2.796   8.043 -2.2992 -0.6826  1.1002
   12SAPS  C213 1525   1.672   2.601   7.956  0.1750 -0.3726  0.5007
   12SAPS  H13R 1526   1.694   2.537   7.868 -0.2771 -0.9624  0.8127
   12SAPS  H13S 1527   1.561   2.597   7.965 -0.1362  0.7929 -2.0110
   12SAPS  C214 1528   1.752   2.546   8.073 -0.8116  0.5206  0.1087
   12SAPS  H14R 1529   1.861   2.546   8.065 -0.8355  0.4885 -0.2309
   12SAPS  C215 1530   1.701   2.508   8.193 -0.5465  0.2772 -0.0624
   12SAPS  H15R 1531   1.770   2.475   8.272  0.0811  1.6534 -0.0043
   12SAPS  C216 1532   1.557   2.512   8.232 -0.6663 -0.4363 -0.0466
   12SAPS  H16R 1533   1.514   2.428   8.173  0.6113 -0.6021 -0.7872
   12SAPS  H16S 1534   1.503   2.608   8.220  0.9878  1.1796  3.7662
   12SAPS  C217 1535   1.543   2.487   8.382  0.2868  0.4078 -0.4594
   12SAPS  H17R 1536   1.598   2.394   8.407 -3.2065 -1.6378  0.2900
   12SAPS  H17S 1537   1.438   2.461   8.410  0.4801  1.4860  1.4638
   12SAPS  C218 1538   1.594   2.604   8.466 -0.3670  0.2588  0.1277
   12SAPS  H18R 1539   1.563   2.702   8.423  0.0387  0.3358  0.0066
   12SAPS  H18S 1540   1.703   2.599   8.482 -0.2346  1.4180 -0.2923
   12SAPS  C219 1541   1.547   2.611   8.609 -0.4096  0.3558 -0.0468
   12SAPS  H19R 1542   1.560   2.519   8.670 -0.8472  0.5336  0.3191
   12SAPS  H19S 1543   1.437   2.625   8.609 -1.1799 -4.2138  1.1893
   12SAPS  C220 1544   1.609   2.731   8.686  0.0137  0.3495  0.1463
   12SAPS  H20R 1545   1.717   2.713   8.706  0.2001  1.7655  0.5193
   12SAPS  H20S 1546   1.556   2.747   8.782  1.3684  0.1958  0.9539
   12SAPS  H20T 1547   1.596   2.823   8.626 -1.8974  1.6930  2.4310
   12SAPS   C33 1548   1.453   2.254   7.074  0.0130 -0.6834 -0.2429
   12SAPS   H3X 1549   1.345   2.272   7.095 -0.2780 -0.0172 -2.1541
   12SAPS   H3Y 1550   1.503   2.346   7.110 -0.1196 -0.1134 -1.4686
   12SAPS   C34 1551   1.503   2.125   7.141 -0.2735 -0.6069  0.0650
   12SAPS   H4X 1552   1.612   2.127   7.121 -0.0208  1.6324  1.4115
   12SAPS   H4Y 1553   1.465   2.030   7.097 -0.5472  0.1225 -1.3380
   12SAPS   C35 1554   1.474   2.123   7.293  0.5856  0.0757  0.4896
   12SAPS   H5X 1555   1.469   2.018   7.328  2.5542 -0.6940 -1.3001
   12SAPS   H5Y 1556   1.377   2.174   7.310  0.7493  1.0472 -1.2117
   12SAPS   C36 1557   1.581   2.182   7.387 -0.2610  0.0484 -0.3609
   12SAPS   H6X 1558   1.602   2.279   7.337  1.9677 -0.7755 -1.1410
   12SAPS   H6Y 1559   1.665   2.109   7.397 -1.4548 -1.3961 -0.4543
   12SAPS   C37 1560   1.547   2.205   7.533  0.9440  0.3984 -0.3139
   12SAPS   H7X 1561   1.453   2.263   7.539  2.0209  2.0601  2.5067
   12SAPS   H7Y 1562   1.617   2.272   7.587 -0.2088  0.5452  1.0377
   12SAPS   C38 1563   1.533   2.068   7.617  0.2339 -0.8146  0.0277
   12SAPS   H8X 1564   1.632   2.016   7.616  0.9972  0.3655  2.6353
   12SAPS   H8Y 1565   1.459   1.997   7.576  0.8646 -0.9784 -0.8492
   12SAPS   C39 1566   1.503   2.109   7.762  0.5197 -0.4595 -0.5211
   12SAPS   H9X 1567   1.438   2.199   7.755  0.5142 -0.3173  1.0088
   12SAPS   H9Y 1568   1.597   2.137   7.813  0.8862 -0.9197 -0.9397
   12SAPS  C310 1569   1.433   2.005   7.859  0.1236  0.1236 -0.1740
   12SAPS  H10X 1570   1.486   1.908   7.871 -1.4854 -0.6001  1.6142
   12SAPS  H10Y 1571   1.339   1.981   7.804  0.0074 -1.8899  0.7911
   12SAPS  C311 1572   1.388   2.056   8.000  0.1592  0.1263 -0.3243
   12SAPS  H11X 1573   1.335   1.973   8.053 -1.1014  2.1143  1.6826
   12SAPS  H11Y 1574   1.316   2.140   7.996  1.8262  1.6460  0.6657
   12SAPS  C312 1575   1.503   2.084   8.101 -0.0309 -0.1814 -0.3767
   12SAPS  H12X 1576   1.535   2.188   8.082 -0.0727  0.2492  1.6385
   12SAPS  H12Y 1577   1.580   2.008   8.077 -0.8244 -1.9419  2.1510
   12SAPS  C313 1578   1.465   2.066   8.252 -0.2522 -0.0882 -0.1828
   12SAPS  H13X 1579   1.556   2.095   8.308 -1.5686  2.7664  0.6697
   12SAPS  H13Y 1580   1.442   1.960   8.278  1.7714 -0.6959 -0.7320
   12SAPS  C314 1581   1.349   2.153   8.303  0.4620 -0.0078 -0.5498
   12SAPS  H14X 1582   1.252   2.137   8.252  0.3610 -2.2399  0.2503
   12SAPS  H14Y 1583   1.372   2.261   8.289 -1.5982  0.8600  2.0669
   12SAPS  C315 1584   1.319   2.131   8.458 -0.1786 -0.8675  0.9213
   12SAPS  H15X 1585   1.266   2.224   8.486  2.0789  1.6545 -2.4243
   12SAPS  H15Y 1586   1.404   2.119   8.528  0.7467 -1.4645 -0.2699
   12SAPS  C316 1587   1.233   2.009   8.489  0.4646  0.3014  0.3205
   12SAPS  H16X 1588   1.280   1.909   8.478  1.1479  0.6368  0.0906
   12SAPS  H16Y 1589   1.149   2.021   8.418  2.1126  2.7515 -1.4124
   12SAPS  C317 1590   1.164   2.007   8.626 -0.1382 -0.4743  0.4991
   12SAPS  H17X 1591   1.079   1.935   8.622 -1.1061  0.6833 -0.4429
   12SAPS  H17Y 1592   1.120   2.108   8.637  1.1969  0.3438 -1.0983
   12SAPS  C318 1593   1.248   1.981   8.752 -0.1315 -0.4078  0.2733
   12SAPS  H18X 1594   1.330   2.054   8.767 -1.2329  0.5309  1.9871
   12SAPS  H18Y 1595   1.290   1.878   8.756  0.9183 -0.0229 -0.3654
   12SAPS  H18Z 1596   1.181   2.005   8.837  1.0716 -0.6442  1.3246
   13SAPS     N 1597   3.203   0.576   6.131  0.5784 -0.4978 -0.2710
   13SAPS   HN1 1598   3.292   0.535   6.097  0.9210 -0.2497  0.3093
   13SAPS   HN2 1599   3.187   0.655   6.066 -1.5940 -0.2857  0.4253
   13SAPS   HN3 1600   3.232   0.615   6.223 -1.6331  0.3424  0.1235
   13SAPS   C12 1601   3.086   0.490   6.133 -0.2234  0.5431  0.3668
   13SAPS  H12A 1602   3.006   0.544   6.180 -0.0053 -0.0284  1.4419
   13SAPS   C13 1603   3.045   0.468   5.987 -0.1200 -0.1430  0.3431
   13SAPS  O13A 1604   3.107   0.522   5.893 -0.0301 -0.3160 -0.3606
   13SAPS  O13B 1605   2.944   0.398   5.968  0.1257 -0.4349 -0.2245
   13SAPS   C11 1606   3.120   0.360   6.206 -0.4986  0.9567  0.1778
   13SAPS  H11A 1607   3.193   0.304   6.144 -1.5903  1.2693 -1.4463
   13SAPS  H11B 1608   3.029   0.298   6.219 -0.2978  0.6814  0.2828
   13SAPS     P 1609   3.188   0.267   6.441 -0.1939 -0.1111 -0.7070
   13SAPS   O13 1610   3.080   0.168   6.422 -0.0086  0.6068 -0.4035
   13SAPS   O14 1611   3.325   0.216   6.425  0.2510  0.0726  0.0026
   13SAPS   O12 1612   3.168   0.384   6.339  0.0005 -0.0111 -0.3491
   13SAPS   O11 1613   3.180   0.345   6.586  0.0895 -0.0713  1.1341
   13SAPS    C1 1614   3.077   0.438   6.596 -0.4290 -0.0494 -0.4930
   13SAPS    HA 1615   3.114   0.517   6.665  2.1195 -0.3965 -1.3535
   13SAPS    HB 1616   3.053   0.492   6.502 -0.0601 -1.0643 -1.1853
   13SAPS    C2 1617   2.948   0.380   6.662 -0.1884  0.0391  0.0240
   13SAPS    HS 1618   2.890   0.333   6.579  0.5342  0.1765 -0.5745
   13SAPS   O21 1619   2.878   0.488   6.718  0.9455 -0.1493  0.1129
   13SAPS   C21 1620   2.743   0.486   6.712 -0.6167  0.1461  0.5614
   13SAPS   O22 1621   2.671   0.406   6.658 -0.1980  0.1367  0.1391
   13SAPS   C22 1622   2.689   0.595   6.795 -0.9326  0.1445 -0.0766
   13SAPS   H2R 1623   2.770   0.664   6.825  0.2030 -0.7028 -1.0942
   13SAPS   H2S 1624   2.629   0.667   6.734  0.7220  0.7861 -0.9948
   13SAPS    C3 1625   2.986   0.274   6.770 -0.8551  0.1326 -0.2803
   13SAPS    HX 1626   3.059   0.325   6.837  1.0726 -2.1861 -0.4841
   13SAPS    HY 1627   3.035   0.185   6.725 -0.1891 -0.0454  0.7710
   13SAPS   O31 1628   2.864   0.239   6.844  0.8767 -0.4716  0.0290
   13SAPS   C31 1629   2.797   0.136   6.796  0.0984 -0.3156  0.4713
   13SAPS   O32 1630   2.813   0.088   6.685 -0.4435  0.3959 -0.2354
   13SAPS   C32 1631   2.692   0.082   6.901 -0.4135 -0.2835 -0.0014
   13SAPS   H2X 1632   2.678  -0.027   6.888  0.4701 -0.1398 -2.8389
   13SAPS   H2Y 1633   2.600   0.142   6.886 -0.0110  0.3045 -0.1506
   13SAPS   C23 1634   2.620   0.536   6.921 -0.5621 -0.4026 -0.5175
   13SAPS   H3R 1635   2.706   0.525   6.990 -0.5885  0.2796 -0.3693
   13SAPS   H3S 1636   2.568   0.441   6.901 -1.4341  0.1825 -1.0834
   13SAPS   C24 1637   2.520   0.634   6.978  0.3494  0.3492 -0.2913
   13SAPS   H4R 1638   2.491   0.581   7.071  0.2671  0.9532  0.0358
   13SAPS   H4S 1639   2.431   0.647   6.913 -0.5582  0.0922  0.8621
   13SAPS   C25 1640   2.567   0.772   7.016  0.4492 -0.6422 -0.0188
   13SAPS   H5R 1641   2.585   0.836   6.929 -0.5765  2.2404  1.7422
   13SAPS   C26 1642   2.583   0.823   7.144  0.4537 -0.2838  0.7099
   13SAPS   H6R 1643   2.612   0.928   7.157 -0.5282  0.1195 -0.1762
   13SAPS   C27 1644   2.556   0.737   7.267 -0.0176 -0.6267  0.1400
   13SAPS   H7R 1645   2.635   0.759   7.343  2.5094 -0.9784 -2.2060
   13SAPS   H7S 1646   2.580   0.633   7.238  0.9430 -0.6008  0.7897
   13SAPS   C28 1647   2.424   0.754   7.342 -0.0464 -0.0778  0.3766
   13SAPS   H8R 1648   2.337   0.759   7.275  0.9347 -0.4406 -0.9781
   13SAPS   C29 1649   2.405   0.731   7.472 -0.1542  0.7164  0.0437
   13SAPS   H9R 1650   2.303   0.738   7.514 -0.3422  1.3117 -0.4959
   13SAPS  C210 1651   2.507   0.693   7.574 -0.6555 -0.3419 -0.3690
   13SAPS  H10R 1652   2.597   0.756   7.560 -1.4198  0.3237 -2.6203
   13SAPS  H10S 1653   2.532   0.585   7.566  0.5122 -0.0970 -0.2144
   13SAPS  C211 1654   2.445   0.719   7.715  0.2098 -0.7372 -0.3029
   13SAPS  H11R 1655   2.341   0.755   7.720 -0.0056 -1.3026 -0.7027
   13SAPS  C212 1656   2.517   0.712   7.829 -0.1656 -0.6167 -0.1839
   13SAPS  H12R 1657   2.475   0.738   7.927  0.5262 -1.6941  0.4161
   13SAPS  C213 1658   2.662   0.694   7.844  0.6937  0.6505  0.4408
   13SAPS  H13R 1659   2.711   0.788   7.879  0.7816  0.4587  0.8484
   13SAPS  H13S 1660   2.713   0.673   7.747  0.2578  3.4821 -0.4848
   13SAPS  C214 1661   2.707   0.582   7.939  0.8879 -0.6459  0.1900
   13SAPS  H14R 1662   2.700   0.482   7.894  1.3049 -0.2084 -0.8724
   13SAPS  C215 1663   2.757   0.590   8.059 -0.3215  0.0520 -0.1295
   13SAPS  H15R 1664   2.785   0.497   8.111  2.2234  0.5030 -0.5212
   13SAPS  C216 1665   2.781   0.706   8.153  0.5824 -0.0414  0.3635
   13SAPS  H16R 1666   2.771   0.803   8.101 -0.8324  1.5465  3.3661
   13SAPS  H16S 1667   2.865   0.700   8.226 -0.0767 -0.1762  1.1227
   13SAPS  C217 1668   2.650   0.717   8.236 -0.2883 -0.2858 -0.2971
   13SAPS  H17R 1669   2.573   0.758   8.168  1.1845  1.7555 -0.8336
   13SAPS  H17S 1670   2.673   0.802   8.303 -1.2688 -1.3623  1.4687
   13SAPS  C218 1671   2.615   0.596   8.314  0.2307  0.4895  0.0150
   13SAPS  H18R 1672   2.676   0.593   8.407  0.7833  1.5243 -0.3061
   13SAPS  H18S 1673   2.636   0.497   8.269  2.4549  1.1135 -0.3961
   13SAPS  C219 1674   2.471   0.606   8.379  0.7038  0.5014  0.5125
   13SAPS  H19R 1675   2.431   0.502   8.387 -0.3772  0.9875  1.6310
   13SAPS  H19S 1676   2.405   0.653   8.304  0.7929  0.9334  0.7042
   13SAPS  C220 1677   2.464   0.665   8.525 -0.0363  0.0271 -0.0269
   13SAPS  H20R 1678   2.501   0.769   8.538  3.0936 -0.6589 -2.2493
   13SAPS  H20S 1679   2.540   0.605   8.580  2.1418  1.4113 -1.3657
   13SAPS  H20T 1680   2.367   0.666   8.578 -0.1959 -1.4836 -0.2297
   13SAPS   C33 1681   2.737   0.113   7.045  0.9674 -0.6228 -0.2995
   13SAPS   H3X 1682   2.646   0.086   7.104  0.3942  0.8736 -0.4332
   13SAPS   H3Y 1683   2.744   0.224   7.053  1.2798 -0.5792 -1.1010
   13SAPS   C34 1684   2.867   0.055   7.085 -0.4186  0.7074  0.3643
   13SAPS   H4X 1685   2.952   0.126   7.074  0.6445 -0.3307  1.5430
   13SAPS   H4Y 1686   2.886  -0.037   7.027  0.0466  1.1615 -0.2152
   13SAPS   C35 1687   2.877   0.024   7.232  0.2017 -0.1590 -0.6707
   13SAPS   H5X 1688   2.796  -0.053   7.234  1.5822 -1.6316  0.3374
   13SAPS   H5Y 1689   2.846   0.114   7.290 -4.1200 -0.5495 -2.0213
   13SAPS   C36 1690   2.995  -0.055   7.288 -1.0250  0.0408  0.6118
   13SAPS   H6X 1691   3.081   0.015   7.288 -0.6802 -0.3703 -0.2092
   13SAPS   H6Y 1692   3.030  -0.145   7.233  1.3774  0.2633  1.6776
   13SAPS   C37 1693   2.982  -0.078   7.438  0.2300  0.2093  0.3476
   13SAPS   H7X 1694   2.878  -0.113   7.452 -0.3392  1.4497 -0.6559
   13SAPS   H7Y 1695   2.989   0.025   7.480 -0.7275 -0.3410  1.9288
   13SAPS   C38 1696   3.093  -0.168   7.487  0.6859 -0.3875 -0.4092
   13SAPS   H8X 1697   3.196  -0.142   7.455  0.6223  0.6994  0.2199
   13SAPS   H8Y 1698   3.063  -0.263   7.438  0.4125 -2.0357  2.7066
   13SAPS   C39 1699   3.087  -0.182   7.637  0.2535 -0.2047  0.5591
   13SAPS   H9X 1700   3.131  -0.091   7.683  1.2119  0.8538 -2.2631
   13SAPS   H9Y 1701   3.154  -0.265   7.668  0.3246 -0.1814  0.4685
   13SAPS  C310 1702   2.952  -0.196   7.708  0.3141 -0.2425  0.0143
   13SAPS  H10X 1703   2.902  -0.280   7.655  0.5062  0.4457 -1.3065
   13SAPS  H10Y 1704   2.885  -0.109   7.689 -1.0229 -0.5376  2.9377
   13SAPS  C311 1705   2.940  -0.228   7.855  0.1109 -0.3327  0.0081
   13SAPS  H11X 1706   3.000  -0.319   7.878 -1.2486 -1.3041 -0.1657
   13SAPS  H11Y 1707   2.834  -0.253   7.879  0.2942 -0.4481  0.7286
   13SAPS  C312 1708   2.992  -0.122   7.953 -0.4231 -0.6845 -0.5651
   13SAPS  H12X 1709   2.938  -0.025   7.944 -0.0124 -0.3373  0.4353
   13SAPS  H12Y 1710   3.100  -0.098   7.939  0.2231 -2.8012  0.3329
   13SAPS  C313 1711   2.975  -0.164   8.104  0.8642  0.6182  1.3432
   13SAPS  H13X 1712   3.051  -0.243   8.119  2.6028  1.5481 -1.6799
   13SAPS  H13Y 1713   2.873  -0.207   8.112  0.6948  0.2573 -1.4853
   13SAPS  C314 1714   2.993  -0.046   8.193 -0.5817 -0.1003 -0.5516
   13SAPS  H14X 1715   2.933   0.040   8.158 -0.8316  0.6723  1.6326
   13SAPS  H14Y 1716   3.097  -0.008   8.192 -0.5705 -0.1139 -0.1889
   13SAPS  C315 1717   2.948  -0.085   8.337  0.0694 -0.1267  0.2990
   13SAPS  H15X 1718   3.028  -0.142   8.390  1.1231 -0.8420 -1.8895
   13SAPS  H15Y 1719   2.855  -0.143   8.321  0.0503  0.6149 -2.9238
   13SAPS  C316 1720   2.920   0.045   8.411 -0.1430 -0.1181 -0.2980
   13SAPS  H16X 1721   2.992   0.126   8.387 -0.7516  0.5444  0.0520
   13SAPS  H16Y 1722   2.934   0.018   8.517 -0.5894  1.9972  0.3523
   13SAPS  C317 1723   2.779   0.105   8.390  0.9573 -0.0035  0.2952
   13SAPS  H17X 1724   2.704   0.025   8.408 -0.2756  0.6396 -1.6627
   13SAPS  H17Y 1725   2.760   0.153   8.292 -0.4585 -1.1898 -0.0543
   13SAPS  C318 1726   2.760   0.219   8.486 -0.1981  0.0854 -0.5058
   13SAPS  H18X 1727   2.847   0.288   8.488 -1.4162  1.7076 -1.0192
   13SAPS  H18Y 1728   2.708   0.197   8.582  0.1749  0.5794 -0.1836
   13SAPS  H18Z 1729   2.690   0.296   8.447 -1.0519 -0.1445  0.5180
   14SAPS     N 1730   1.226   2.410   6.066 -0.4856 -0.0517 -0.2903
   14SAPS   HN1 1731   1.250   2.372   6.159  0.0469  1.9511  0.4565
   14SAPS   HN2 1732   1.128   2.445   6.061  0.4723  2.9388 -0.6650
   14SAPS   HN3 1733   1.245   2.345   5.987  0.7658 -0.1544  0.0757
   14SAPS   C12 1734   1.296   2.540   6.058  0.0512 -0.1883  0.2858
   14SAPS  H12A 1735   1.401   2.521   6.042  0.0096  1.5778 -2.9826
   14SAPS   C13 1736   1.265   2.621   5.933  0.5671 -0.0841  0.3465
   14SAPS  O13A 1737   1.180   2.576   5.846 -0.2857 -0.1009 -0.4467
   14SAPS  O13B 1738   1.324   2.726   5.904 -0.5000 -0.1874 -0.4481
   14SAPS   C11 1739   1.255   2.628   6.177  0.5361 -0.1506 -0.1175
   14SAPS  H11A 1740   1.278   2.734   6.156 -2.7046  0.6766 -0.0486
   14SAPS  H11B 1741   1.316   2.589   6.261 -0.1605 -0.8318  0.0891
   14SAPS     P 1742   1.040   2.695   6.325  0.1373  0.1028  0.6496
   14SAPS   O13 1743   1.073   2.838   6.318  0.0374 -0.1857 -0.1195
   14SAPS   O14 1744   0.897   2.661   6.314  0.1491  0.7135 -0.3179
   14SAPS   O12 1745   1.112   2.610   6.213  0.2397  0.2928  0.0270
   14SAPS   O11 1746   1.095   2.637   6.462 -0.5664 -0.7411 -0.2509
   14SAPS    C1 1747   1.052   2.504   6.502 -0.0698 -0.1789 -0.5608
   14SAPS    HA 1748   1.059   2.434   6.416  0.7557 -0.5713 -0.1748
   14SAPS    HB 1749   1.121   2.456   6.574 -0.1318  0.1595 -0.2757
   14SAPS    C2 1750   0.909   2.492   6.568 -0.2885 -0.1791 -0.1375
   14SAPS    HS 1751   0.831   2.528   6.497 -3.6616  0.0635  3.3690
   14SAPS   O21 1752   0.908   2.581   6.685 -0.2241 -0.6114 -0.4451
   14SAPS   C21 1753   0.791   2.649   6.697 -0.2733 -0.8891 -0.0775
   14SAPS   O22 1754   0.682   2.611   6.658 -0.1169  0.3715  0.3102
   14SAPS   C22 1755   0.822   2.772   6.782  0.1080 -0.0366 -0.2707
   14SAPS   H2R 1756   0.931   2.774   6.806 -0.2582  1.3323  1.4579
   14SAPS   H2S 1757   0.793   2.855   6.714 -0.0304 -0.8506 -1.2293
   14SAPS    C3 1758   0.888   2.349   6.607  0.4532 -0.0098 -0.2530
   14SAPS    HX 1759   0.913   2.277   6.526  2.3064  1.3046 -0.9304
   14SAPS    HY 1760   0.784   2.337   6.641  0.7023 -1.3881  0.0529
   14SAPS   O31 1761   0.971   2.313   6.715 -0.1278 -0.7664 -0.2459
   14SAPS   C31 1762   0.946   2.205   6.785  0.5709  0.1399  0.0103
   14SAPS   O32 1763   0.867   2.118   6.752  0.1242  0.2356  0.3482
   14SAPS   C32 1764   1.045   2.189   6.898  0.2258  0.0591  0.2949
   14SAPS   H2X 1765   1.099   2.286   6.910 -1.4756  0.7887  2.7729
   14SAPS   H2Y 1766   1.125   2.115   6.876  2.4128  2.1562  0.7223
   14SAPS   C23 1767   0.729   2.782   6.904  0.0568 -0.6565  0.4327
   14SAPS   H3R 1768   0.734   2.694   6.971 -0.5777  0.1369  1.5483
   14SAPS   H3S 1769   0.624   2.780   6.869 -0.3358 -0.2412  1.5792
   14SAPS   C24 1770   0.736   2.921   6.983  0.5930 -0.1558  0.0784
   14SAPS   H4R 1771   0.629   2.949   6.996  0.2981 -0.7133 -1.0470
   14SAPS   H4S 1772   0.778   2.994   6.911 -1.1718 -0.2234 -1.0867
   14SAPS   C25 1773   0.824   2.899   7.108  0.3479 -0.5767  0.6586
   14SAPS   H5R 1774   0.930   2.884   7.083 -0.0545 -0.6499 -1.2121
   14SAPS   C26 1775   0.780   2.882   7.230  0.0945  1.1422 -0.4881
   14SAPS   H6R 1776   0.848   2.861   7.314 -0.4005 -1.8341 -0.7368
   14SAPS   C27 1777   0.638   2.885   7.276 -0.0034  0.5922  0.4885
   14SAPS   H7R 1778   0.622   2.806   7.352  2.8163 -0.7392 -0.1858
   14SAPS   H7S 1779   0.569   2.863   7.192  0.6972 -1.7868  0.4537
   14SAPS   C28 1780   0.612   3.016   7.344  1.0663 -0.5291 -0.0737
   14SAPS   H8R 1781   0.640   3.103   7.283  1.0624 -0.4222  0.0799
   14SAPS   C29 1782   0.572   3.035   7.474  0.7025 -0.0783  0.2569
   14SAPS   H9R 1783   0.560   3.140   7.504  0.6363 -0.8176  3.1144
   14SAPS  C210 1784   0.558   2.934   7.586  0.3781 -0.4795  0.4376
   14SAPS  H10R 1785   0.507   2.847   7.540  1.3609 -0.6718 -0.3123
   14SAPS  H10S 1786   0.488   2.984   7.657  1.1418  0.0842  0.7978
   14SAPS  C211 1787   0.683   2.876   7.637 -0.6608 -0.2435  0.5300
   14SAPS  H11R 1788   0.763   2.862   7.562  0.1468  0.2787  1.2772
   14SAPS  C212 1789   0.703   2.829   7.764 -0.1788  0.7551  0.0756
   14SAPS  H12R 1790   0.794   2.772   7.789 -0.9690  0.3249  2.2167
   14SAPS  C213 1791   0.609   2.843   7.882  0.0543  0.3370  0.0028
   14SAPS  H13R 1792   0.573   2.948   7.893 -0.4241  0.1341  0.4252
   14SAPS  H13S 1793   0.674   2.813   7.967  0.7676 -0.4365 -0.8093
   14SAPS  C214 1794   0.488   2.756   7.894  0.7055  0.0891  0.7749
   14SAPS  H14R 1795   0.438   2.732   7.799 -0.5286  0.5060  1.2950
   14SAPS  C215 1796   0.407   2.722   7.993  0.9462 -0.1846 -0.5521
   14SAPS  H15R 1797   0.333   2.642   7.980  0.1047  0.3209  0.9264
   14SAPS  C216 1798   0.427   2.767   8.133  0.0058 -0.0603  0.7237
   14SAPS  H16R 1799   0.411   2.876   8.148  0.8774 -0.0299  1.4767
   14SAPS  H16S 1800   0.529   2.744   8.169 -0.1123 -1.3913  0.2595
   14SAPS  C217 1801   0.333   2.697   8.227  0.2169 -0.5519 -0.4990
   14SAPS  H17R 1802   0.334   2.587   8.215  1.6907 -0.9130  2.0777
   14SAPS  H17S 1803   0.233   2.739   8.204  0.2897  0.1733  0.4362
   14SAPS  C218 1804   0.366   2.737   8.374  0.3970  0.4475 -0.0322
   14SAPS  H18R 1805   0.405   2.841   8.363  0.8645  0.4430  1.4875
   14SAPS  H18S 1806   0.443   2.671   8.417  1.0544  1.6141  0.6290
   14SAPS  C219 1807   0.239   2.741   8.454  0.1458 -0.3137 -0.5477
   14SAPS  H19R 1808   0.211   2.634   8.465 -5.3268  1.0672  2.6075
   14SAPS  H19S 1809   0.170   2.806   8.397 -0.8743  1.3089  2.3407
   14SAPS  C220 1810   0.246   2.802   8.592  0.8568  1.0455  0.0629
   14SAPS  H20R 1811   0.148   2.848   8.618  1.1715  1.7241  0.0561
   14SAPS  H20S 1812   0.324   2.880   8.597  1.0477  0.8994 -0.5118
   14SAPS  H20T 1813   0.277   2.731   8.672 -0.0951  0.4168 -0.1033
   14SAPS   C33 1814   0.966   2.156   7.034 -1.1523  0.4495  0.3467
   14SAPS   H3X 1815   0.878   2.090   7.016 -0.6371 -0.0128 -0.5628
   14SAPS   H3Y 1816   0.924   2.254   7.064 -0.2400  0.9361  0.0739
   14SAPS   C34 1817   1.065   2.100   7.134 -0.6472  0.2029 -0.2643
   14SAPS   H4X 1818   1.162   2.154   7.141  0.4379 -1.8468  2.4945
   14SAPS   H4Y 1819   1.101   2.000   7.103 -2.2800  0.0199 -1.7612
   14SAPS   C35 1820   0.998   2.110   7.279 -0.6433  0.2455  0.3581
   14SAPS   H5X 1821   0.928   2.024   7.278  0.5611 -0.7645 -1.4816
   14SAPS   H5Y 1822   0.954   2.212   7.287 -0.3725  0.3500  0.5103
   14SAPS   C36 1823   1.097   2.085   7.385 -0.1829  0.1962 -0.1193
   14SAPS   H6X 1824   1.188   2.146   7.367 -0.4287  0.2588 -1.2776
   14SAPS   H6Y 1825   1.133   1.982   7.369  0.6155  0.2273  1.4136
   14SAPS   C37 1826   1.026   2.102   7.520 -1.2651  0.3298 -0.1918
   14SAPS   H7X 1827   0.939   2.038   7.541 -1.3923  0.3441 -0.6665
   14SAPS   H7Y 1828   0.988   2.207   7.525 -1.4795  0.2118  0.9272
   14SAPS   C38 1829   1.131   2.086   7.630 -0.2792  0.8578 -0.3748
   14SAPS   H8X 1830   1.199   2.170   7.604 -2.0220  1.6172 -2.8133
   14SAPS   H8Y 1831   1.194   1.995   7.620  1.8196  2.2404 -0.2262
   14SAPS   C39 1832   1.067   2.105   7.774 -0.2791  0.2330 -0.0012
   14SAPS   H9X 1833   0.996   2.190   7.787  0.3378  1.0364 -1.6164
   14SAPS   H9Y 1834   1.143   2.145   7.845 -0.0952  1.1916 -0.7187
   14SAPS  C310 1835   1.002   1.980   7.829 -0.4572  0.3081 -0.0161
   14SAPS  H10X 1836   1.080   1.907   7.858 -1.5421 -1.4223 -1.2688
   14SAPS  H10Y 1837   0.923   1.953   7.755 -0.4950  4.2857 -1.6985
   14SAPS  C311 1838   0.922   1.997   7.957  0.0411 -0.9224  0.5193
   14SAPS  H11X 1839   0.839   2.066   7.929  1.3640  0.4739 -0.0843
   14SAPS  H11Y 1840   0.973   2.045   8.044 -0.6969 -2.0461  1.6056
   14SAPS  C312 1841   0.875   1.863   8.002 -0.1783 -0.4497 -0.7625
   14SAPS  H12X 1842   0.821   1.809   7.922 -0.4291 -0.3400 -0.6691
   14SAPS  H12Y 1843   0.799   1.888   8.079 -0.4221 -1.4490 -0.6691
   14SAPS  C313 1844   0.977   1.774   8.081  0.1650  0.5570 -0.2094
   14SAPS  H13X 1845   1.013   1.839   8.164  3.4233  0.2005 -1.2135
   14SAPS  H13Y 1846   1.066   1.766   8.017 -0.3739 -0.0335 -0.9005
   14SAPS  C314 1847   0.917   1.646   8.137 -0.8620 -0.7305  0.0882
   14SAPS  H14X 1848   0.970   1.562   8.087 -2.3891 -0.7093 -1.6779
   14SAPS  H14Y 1849   0.815   1.642   8.094 -0.6014 -1.8539 -0.4779
   14SAPS  C315 1850   0.926   1.638   8.284 -0.2126 -0.2316 -0.0122
   14SAPS  H15X 1851   0.864   1.553   8.319 -1.0699  0.7965  1.0619
   14SAPS  H15Y 1852   0.885   1.732   8.328 -0.0260 -0.3537  0.4321
   14SAPS  C316 1853   1.072   1.616   8.334 -0.1775 -0.0916 -0.5373
   14SAPS  H16X 1854   1.147   1.690   8.297  1.7888  0.2109  3.4774
   14SAPS  H16Y 1855   1.093   1.510   8.308  0.9785 -0.7765  2.7400
   14SAPS  C317 1856   1.096   1.638   8.481  0.7564  0.4485 -0.6118
   14SAPS  H17X 1857   1.028   1.576   8.543  1.0221 -0.2235 -0.9851
   14SAPS  H17Y 1858   1.078   1.747   8.497  0.1446  0.7818 -3.1710
   14SAPS  C318 1859   1.240   1.622   8.539 -0.1312 -0.3411 -0.4549
   14SAPS  H18X 1860   1.239   1.672   8.638 -1.0199  0.4399 -0.8447
   14SAPS  H18Y 1861   1.313   1.686   8.486 -0.5976 -0.1219 -0.8349
   14SAPS  H18Z 1862   1.276   1.516   8.538  1.6989  0.2516 -0.4313
   15SAPS     N 1863   4.856   5.492   6.587  0.2007 -0.6853  0.1944
   15SAPS   HN1 1864   4.841   5.409   6.648  1.2805 -0.6039  0.5959
   15SAPS   HN2 1865   4.893   5.572   6.641  1.6636 -2.1801  1.5241
   15SAPS   HN3 1866   4.763   5.519   6.549 -0.4633 -2.3443  0.5715
   15SAPS   C12 1867   4.944   5.446   6.476 -0.1636 -0.8717 -0.1529
   15SAPS  H12A 1868   5.041   5.470   6.516 -0.6078 -0.8064  0.9037
   15SAPS   C13 1869   4.906   5.300   6.437  0.2847  0.1133 -0.1257
   15SAPS  O13A 1870   4.813   5.239   6.497  0.4979 -0.3922  0.2204
   15SAPS  O13B 1871   4.976   5.243   6.349  0.1501  0.0305 -0.1939
   15SAPS   C11 1872   4.924   5.541   6.358  0.1396 -0.3833 -0.0078
   15SAPS  H11A 1873   4.817   5.528   6.329 -0.3645  1.3752  0.9373
   15SAPS  H11B 1874   4.979   5.502   6.269 -0.0678 -1.5474  0.3520
   15SAPS     P 1875   4.944   5.793   6.298  0.5335 -0.1753  0.3520
   15SAPS   O13 1876   5.082   5.816   6.242 -0.2760  0.3948  0.0229
   15SAPS   O14 1877   4.839   5.768   6.198 -0.4616  0.3740 -0.3527
   15SAPS   O12 1878   4.960   5.672   6.402  0.4492  0.1910  0.6692
   15SAPS   O11 1879   4.897   5.915   6.384  0.6224  0.9489  0.7629
   15SAPS    C1 1880   4.835   5.903   6.512 -0.0963  0.2086  0.5490
   15SAPS    HA 1881   4.762   5.987   6.516  1.5745  1.7526 -0.1670
   15SAPS    HB 1882   4.788   5.805   6.532 -0.3075  0.4476  1.2767
   15SAPS    C2 1883   4.945   5.929   6.622 -0.9545  0.4564 -0.7096
   15SAPS    HS 1884   5.031   5.863   6.597 -1.6359 -0.2180 -1.3045
   15SAPS   O21 1885   4.889   5.911   6.758 -0.2329 -0.0190  0.0054
   15SAPS   C21 1886   4.909   5.791   6.798  0.5139  0.0185 -0.5170
   15SAPS   O22 1887   4.957   5.700   6.733  0.6904  1.1049 -0.1078
   15SAPS   C22 1888   4.869   5.781   6.943  1.0926  0.0100  0.0169
   15SAPS   H2R 1889   4.840   5.878   6.988  1.1436  0.7049 -1.3946
   15SAPS   H2S 1890   4.782   5.713   6.957  0.3500  0.9348 -0.0469
   15SAPS    C3 1891   5.003   6.068   6.616 -0.1674 -0.1475  0.3664
   15SAPS    HX 1892   4.920   6.138   6.640 -0.4775 -0.5039  0.3453
   15SAPS    HY 1893   5.032   6.096   6.513  1.9253  1.4848  1.3244
   15SAPS   O31 1894   5.121   6.094   6.697 -0.0460 -0.0386 -0.2239
   15SAPS   C31 1895   5.163   6.216   6.703 -0.4387 -0.4277  0.1140
   15SAPS   O32 1896   5.126   6.308   6.635  0.1576 -0.2608 -0.7694
   15SAPS   C32 1897   5.239   6.233   6.835 -0.3689  0.5822 -0.3426
   15SAPS   H2X 1898   5.304   6.323   6.838 -1.6503  1.6411  4.9234
   15SAPS   H2Y 1899   5.293   6.139   6.857 -2.4678 -0.7206 -0.4969
   15SAPS   C23 1900   4.976   5.728   7.030  0.7205 -0.2819  0.4450
   15SAPS   H3R 1901   5.069   5.789   7.027 -0.4408  1.5667  0.4576
   15SAPS   H3S 1902   5.000   5.624   6.998  1.5076 -0.1386  0.5478
   15SAPS   C24 1903   4.914   5.722   7.180 -0.2185  0.8293  0.3097
   15SAPS   H4R 1904   4.821   5.665   7.163  0.0835  0.0748  1.0904
   15SAPS   H4S 1905   4.907   5.828   7.209  2.5695  0.9806  0.7688
   15SAPS   C25 1906   5.004   5.649   7.280 -0.5041  0.0134 -0.1015
   15SAPS   H5R 1907   5.057   5.563   7.235 -0.2126  0.9657 -1.6458
   15SAPS   C26 1908   5.037   5.689   7.404  0.0019 -0.5390 -0.0897
   15SAPS   H6R 1909   5.111   5.633   7.464  0.8500 -0.1955 -0.7888
   15SAPS   C27 1910   4.975   5.808   7.479  0.3126  0.3068 -0.0274
   15SAPS   H7R 1911   4.905   5.871   7.420 -1.8125 -1.3264  0.6619
   15SAPS   H7S 1912   5.056   5.880   7.506  2.4299 -2.2247  0.7688
   15SAPS   C28 1913   4.890   5.757   7.599  0.4156 -0.3526  0.0809
   15SAPS   H8R 1914   4.782   5.744   7.583 -0.0081 -0.2521  2.5079
   15SAPS   C29 1915   4.932   5.711   7.718  0.4340 -1.7924  0.1560
   15SAPS   H9R 1916   4.854   5.692   7.793 -1.6512  1.1899 -1.0619
   15SAPS  C210 1917   5.078   5.723   7.754  0.0596 -0.0196  0.0324
   15SAPS  H10R 1918   5.107   5.830   7.749 -0.1829  0.1178  1.2978
   15SAPS  H10S 1919   5.138   5.669   7.677  0.1564  1.0054 -0.6313
   15SAPS  C211 1920   5.122   5.672   7.886 -0.0583  0.4454 -0.1245
   15SAPS  H11R 1921   5.136   5.563   7.883 -2.9363 -0.0357  0.7956
   15SAPS  C212 1922   5.138   5.739   8.002  0.1992  0.5874 -0.5117
   15SAPS  H12R 1923   5.166   5.679   8.090 -1.3832  0.3297 -0.1678
   15SAPS  C213 1924   5.118   5.886   8.006 -0.1499 -0.5443  0.0303
   15SAPS  H13R 1925   5.012   5.909   8.031 -0.4077 -1.0897 -0.5570
   15SAPS  H13S 1926   5.122   5.947   7.914 -1.4589  0.7039  0.7555
   15SAPS  C214 1927   5.207   5.955   8.110 -0.7213  0.0022  0.9461
   15SAPS  H14R 1928   5.310   5.973   8.075 -0.5320 -1.8497  0.4827
   15SAPS  C215 1929   5.192   6.000   8.230 -0.4432 -0.0560 -0.5507
   15SAPS  H15R 1930   5.277   6.044   8.285 -1.0592 -0.6212  0.9101
   15SAPS  C216 1931   5.064   5.988   8.307  0.0945  0.4840 -0.1444
   15SAPS  H16R 1932   5.067   5.906   8.382 -0.2236 -0.0333 -0.6873
   15SAPS  H16S 1933   4.968   5.973   8.253  0.5648 -0.9575 -0.6019
   15SAPS  C217 1934   5.039   6.111   8.392  0.5879 -0.5487  0.3399
   15SAPS  H17R 1935   4.933   6.126   8.420  0.8694  1.3699  0.4731
   15SAPS  H17S 1936   5.068   6.200   8.332  0.4138  0.1822  1.3184
   15SAPS  C218 1937   5.108   6.110   8.524 -0.7061 -0.3923  0.7555
   15SAPS  H18R 1938   5.120   6.212   8.567 -1.8000 -0.3390  0.9635
   15SAPS  H18S 1939   5.211   6.069   8.519 -0.7740 -0.6976  1.7291
   15SAPS  C219 1940   5.031   6.034   8.633 -0.0868 -0.1335  0.1168
   15SAPS  H19R 1941   5.053   5.926   8.622 -0.5978 -0.2095 -0.1801
   15SAPS  H19S 1942   4.925   6.065   8.623  0.6555  2.7941  0.3901
   15SAPS  C220 1943   5.069   6.069   8.777  0.3710 -0.0220 -0.0650
   15SAPS  H20R 1944   5.176   6.040   8.790 -0.0901 -1.7742  0.0374
   15SAPS  H20S 1945   5.008   6.025   8.858 -3.0482  1.7608 -1.4485
   15SAPS  H20T 1946   5.058   6.178   8.798 -0.4333 -0.1497  0.1820
   15SAPS   C33 1947   5.142   6.239   6.957  0.6557 -0.2726 -0.3965
   15SAPS   H3X 1948   5.064   6.161   6.946  0.6233 -0.2024 -0.6861
   15SAPS   H3Y 1949   5.089   6.336   6.958 -2.6744 -1.9106  2.8475
   15SAPS   C34 1950   5.205   6.219   7.092  0.5719 -0.1178 -0.2130
   15SAPS   H4X 1951   5.279   6.294   7.126  3.5648 -4.0088  2.9812
   15SAPS   H4Y 1952   5.281   6.138   7.093  1.8647  0.9880  2.6134
   15SAPS   C35 1953   5.100   6.186   7.202 -0.1969 -0.1389  0.2072
   15SAPS   H5X 1954   5.038   6.102   7.164 -1.0550  0.7678 -0.4479
   15SAPS   H5Y 1955   5.037   6.275   7.227  1.2823  0.6641  1.2473
   15SAPS   C36 1956   5.155   6.140   7.338 -0.1918 -0.2179  0.0538
   15SAPS   H6X 1957   5.231   6.061   7.322  1.3496  1.3549 -0.5977
   15SAPS   H6Y 1958   5.069   6.108   7.401 -1.5811  0.6007 -1.3528
   15SAPS   C37 1959   5.211   6.257   7.437  0.7263 -0.1740 -0.1146
   15SAPS   H7X 1960   5.126   6.329   7.442 -1.7954 -3.0308  2.7665
   15SAPS   H7Y 1961   5.309   6.295   7.399 -0.1117 -0.0132 -2.2651
   15SAPS   C38 1962   5.226   6.218   7.584 -0.5917 -0.2308 -0.2003
   15SAPS   H8X 1963   5.123   6.213   7.624 -0.1130  0.6806  1.2458
   15SAPS   H8Y 1964   5.279   6.297   7.642 -0.3210  1.0303 -2.0979
   15SAPS   C39 1965   5.295   6.080   7.606 -0.0014 -0.1618 -0.1664
   15SAPS   H9X 1966   5.381   6.085   7.535 -0.1343 -0.3257 -0.3412
   15SAPS   H9Y 1967   5.221   6.002   7.578 -0.1615 -0.2061  0.3704
   15SAPS  C310 1968   5.351   6.051   7.741  0.4684 -0.1534 -0.0710
   15SAPS  H10X 1969   5.351   5.943   7.765 -2.5260 -0.0119  0.9683
   15SAPS  H10Y 1970   5.270   6.081   7.811  0.4900 -0.3207  0.0253
   15SAPS  C311 1971   5.491   6.106   7.767  0.2762 -0.5709  0.7655
   15SAPS  H11X 1972   5.486   6.215   7.747  0.9262 -0.3755  1.5967
   15SAPS  H11Y 1973   5.556   6.069   7.685 -0.6240  0.8602 -0.6436
   15SAPS  C312 1974   5.555   6.078   7.901  0.2077  0.8005  0.5701
   15SAPS  H12X 1975   5.639   6.008   7.883  0.0542  0.4456  1.1799
   15SAPS  H12Y 1976   5.483   6.038   7.976 -0.7349  1.3955 -0.0075
   15SAPS  C313 1977   5.617   6.202   7.961  1.2504  0.2000 -0.0542
   15SAPS  H13X 1978   5.530   6.267   7.984 -0.6306 -2.3580  0.4528
   15SAPS  H13Y 1979   5.677   6.250   7.881  1.6952  0.2711  0.3189
   15SAPS  C314 1980   5.698   6.170   8.089  0.1432 -0.3020  0.2937
   15SAPS  H14X 1981   5.744   6.266   8.118  0.0254  0.2364 -1.2076
   15SAPS  H14Y 1982   5.777   6.097   8.061 -0.6539 -2.4447  3.1708
   15SAPS  C315 1983   5.619   6.116   8.207 -0.1045 -0.7455 -0.5040
   15SAPS  H15X 1984   5.572   6.024   8.164  1.3640 -1.9227  0.3289
   15SAPS  H15Y 1985   5.535   6.187   8.222  0.7170  0.5856 -1.9542
   15SAPS  C316 1986   5.705   6.097   8.331 -0.2619  0.3691  0.2764
   15SAPS  H16X 1987   5.744   6.198   8.356  0.6658 -0.4143  2.1122
   15SAPS  H16Y 1988   5.785   6.023   8.309 -1.8802 -0.1849 -5.6819
   15SAPS  C317 1989   5.622   6.044   8.448 -1.0645 -1.1086 -0.6637
   15SAPS  H17X 1990   5.667   5.952   8.493  0.4720  0.9341  2.3505
   15SAPS  H17Y 1991   5.525   6.002   8.414 -2.3353 -1.0271  2.4605
   15SAPS  C318 1992   5.582   6.134   8.568  0.1264  0.0018  0.0187
   15SAPS  H18X 1993   5.515   6.086   8.642 -0.4032  1.3215  0.4106
   15SAPS  H18Y 1994   5.524   6.220   8.528 -2.3734 -1.2159  0.8330
   15SAPS  H18Z 1995   5.667   6.172   8.628  0.4189 -0.4885 -0.0769
   16SAPS     N 1996   2.200   3.455   6.506 -0.1172  0.0274  0.0228
   16SAPS   HN1 1997   2.228   3.425   6.601 -0.4854 -0.7686 -0.1178
   16SAPS   HN2 1998   2.224   3.552   6.477 -2.8581  1.1787  1.2071
   16SAPS   HN3 1999   2.098   3.432   6.502 -0.0366 -0.2848 -0.3040
   16SAPS   C12 2000   2.268   3.359   6.413  0.4239 -0.4712 -0.0556
   16SAPS  H12A 2001   2.194   3.282   6.398 -1.5479  1.6056 -1.4672
   16SAPS   C13 2002   2.304   3.424   6.270 -0.3485  0.0309 -1.0089
   16SAPS  O13A 2003   2.238   3.523   6.241  0.2331  0.1239  0.8107
   16SAPS  O13B 2004   2.348   3.351   6.183  0.1887 -0.3177  0.3146
   16SAPS   C11 2005   2.399   3.313   6.482 -0.5105 -0.1377 -0.6255
   16SAPS  H11A 2006   2.468   3.393   6.518  1.5369 -1.2205 -1.9124
   16SAPS  H11B 2007   2.458   3.264   6.401 -0.4595 -0.1533 -0.5790
   16SAPS     P 2008   2.371   3.076   6.570 -0.3085  0.4167 -0.4321
   16SAPS   O13 2009   2.263   3.045   6.469 -0.1088  0.8242 -0.0456
   16SAPS   O14 2010   2.512   3.032   6.545 -0.0413 -0.1447 -0.3364
   16SAPS   O12 2011   2.374   3.232   6.597  0.0613 -0.0182  0.3928
   16SAPS   O11 2012   2.327   3.021   6.705 -0.0455  0.3803 -0.3054
   16SAPS    C1 2013   2.206   3.039   6.783  0.0977 -0.2980 -0.1335
   16SAPS    HA 2014   2.116   3.050   6.718  0.1321  0.0102 -0.1287
   16SAPS    HB 2015   2.179   2.949   6.843  1.7182 -0.8369 -0.1723
   16SAPS    C2 2016   2.216   3.174   6.861 -0.4356  0.4027 -0.5003
   16SAPS    HS 2017   2.236   3.237   6.772  0.3487  0.1576 -0.5098
   16SAPS   O21 2018   2.334   3.164   6.944 -0.2212  0.3932 -0.1576
   16SAPS   C21 2019   2.379   3.270   6.990 -0.5105 -0.5867 -0.0702
   16SAPS   O22 2020   2.345   3.385   6.969 -0.6512  0.0760  0.9869
   16SAPS   C22 2021   2.494   3.228   7.081  0.3905 -0.3157 -0.4707
   16SAPS   H2R 2022   2.481   3.131   7.133  1.8885  0.3097  1.1520
   16SAPS   H2S 2023   2.578   3.212   7.010  0.4581 -0.2344 -0.4093
   16SAPS    C3 2024   2.092   3.219   6.936 -0.5772  0.0993 -0.2234
   16SAPS    HX 2025   2.002   3.180   6.883 -1.8129  3.0930 -0.5620
   16SAPS    HY 2026   2.086   3.330   6.933 -0.0046  0.1145 -1.7183
   16SAPS   O31 2027   2.104   3.182   7.075 -0.1842  0.0824 -0.0011
   16SAPS   C31 2028   2.050   3.061   7.121 -0.1925 -0.2368 -0.7743
   16SAPS   O32 2029   1.994   2.984   7.053  0.8510 -0.1300 -0.4833
   16SAPS   C32 2030   2.086   3.036   7.263  0.6436  0.1325 -0.0341
   16SAPS   H2X 2031   1.999   3.044   7.332  0.4403  2.9072 -0.4925
   16SAPS   H2Y 2032   2.166   3.099   7.306  0.9807 -0.8544  0.8331
   16SAPS   C23 2033   2.537   3.340   7.186  0.3962 -0.3430 -0.7040
   16SAPS   H3R 2034   2.452   3.366   7.254  0.7153 -1.2997  0.0833
   16SAPS   H3S 2035   2.563   3.431   7.128 -0.5038  0.1392 -0.3814
   16SAPS   C24 2036   2.651   3.281   7.267 -0.4265  0.0877 -0.2402
   16SAPS   H4R 2037   2.748   3.265   7.216  1.2683  0.1522  2.7242
   16SAPS   H4S 2038   2.635   3.174   7.291  1.1073 -0.2872 -0.7980
   16SAPS   C25 2039   2.673   3.357   7.396 -0.2159 -0.6362 -0.8826
   16SAPS   H5R 2040   2.758   3.427   7.395  0.6598 -1.4151  3.2551
   16SAPS   C26 2041   2.608   3.343   7.508  0.0941  0.3650 -0.6093
   16SAPS   H6R 2042   2.644   3.407   7.589  0.7329 -0.1443 -0.4769
   16SAPS   C27 2043   2.494   3.247   7.531  0.2438 -0.2084  0.9507
   16SAPS   H7R 2044   2.512   3.178   7.616 -1.2014 -0.4116  1.1248
   16SAPS   H7S 2045   2.485   3.170   7.451  0.3994  2.4490 -1.8087
   16SAPS   C28 2046   2.361   3.312   7.567  0.3139 -0.1274 -0.6592
   16SAPS   H8R 2047   2.287   3.325   7.487 -1.1943  0.3975  0.7659
   16SAPS   C29 2048   2.323   3.359   7.696 -0.7488  0.0665  0.3971
   16SAPS   H9R 2049   2.226   3.409   7.712  0.1550  2.2254 -0.6020
   16SAPS  C210 2050   2.421   3.372   7.818  0.2964  0.9039  1.1258
   16SAPS  H10R 2051   2.502   3.447   7.803  0.4698  1.0972  2.8028
   16SAPS  H10S 2052   2.477   3.277   7.836  0.0129  0.3217 -0.8772
   16SAPS  C211 2053   2.338   3.391   7.951  0.1120 -0.6387  0.3029
   16SAPS  H11R 2054   2.230   3.378   7.941 -0.0479  0.8830 -0.3285
   16SAPS  C212 2055   2.390   3.425   8.073  0.7384  0.4735 -0.3133
   16SAPS  H12R 2056   2.318   3.449   8.153 -2.8619 -1.0747 -2.7961
   16SAPS  C213 2057   2.533   3.444   8.120  1.2000  1.1208 -0.0515
   16SAPS  H13R 2058   2.604   3.437   8.035 -0.6425 -1.7383 -1.5042
   16SAPS  H13S 2059   2.556   3.349   8.174  0.8177  0.7555 -0.5234
   16SAPS  C214 2060   2.558   3.562   8.203  0.3381 -0.9966  0.0628
   16SAPS  H14R 2061   2.509   3.653   8.166 -0.5666 -1.0452  1.1082
   16SAPS  C215 2062   2.613   3.561   8.330  0.0845  0.2825  0.3722
   16SAPS  H15R 2063   2.629   3.656   8.382  1.3833  0.3839 -0.1721
   16SAPS  C216 2064   2.655   3.442   8.410 -0.4115 -0.2556  0.2667
   16SAPS  H16R 2065   2.660   3.358   8.338 -0.6879 -0.8370  0.9162
   16SAPS  H16S 2066   2.568   3.417   8.474 -0.5886 -0.2494  0.0274
   16SAPS  C217 2067   2.782   3.453   8.502  0.5344  0.3150  0.3620
   16SAPS  H17R 2068   2.775   3.551   8.555 -1.0335  0.9624 -0.9518
   16SAPS  H17S 2069   2.869   3.447   8.433  1.3238  5.1278  0.5931
   16SAPS  C218 2070   2.800   3.350   8.613 -0.2242 -0.1756  0.1547
   16SAPS  H18R 2071   2.812   3.243   8.586  0.6097  0.2701 -1.3640
   16SAPS  H18S 2072   2.695   3.347   8.649 -0.5448 -0.9659 -0.7847
   16SAPS  C219 2073   2.907   3.383   8.718  0.1332  0.0180  0.1498
   16SAPS  H19R 2074   2.889   3.486   8.756 -1.6847  0.0263 -0.6386
   16SAPS  H19S 2075   3.006   3.379   8.668  0.8628 -0.2333  1.5725
   16SAPS  C220 2076   2.906   3.281   8.834  0.3861  0.3300 -0.3687
   16SAPS  H20R 2077   2.806   3.255   8.875  0.0153  0.8325 -0.9396
   16SAPS  H20S 2078   2.960   3.324   8.921 -0.1613 -3.0069  1.8080
   16SAPS  H20T 2079   2.964   3.191   8.805 -1.8371 -0.8482 -1.3835
   16SAPS   C33 2080   2.135   2.882   7.272  0.7398 -0.1299 -0.0788
   16SAPS   H3X 2081   2.214   2.858   7.198 -0.5038  0.2242 -1.5840
   16SAPS   H3Y 2082   2.049   2.814   7.250 -2.1795  3.1000  0.4373
   16SAPS   C34 2083   2.201   2.851   7.412  0.0946 -0.4385 -0.2653
   16SAPS   H4X 2084   2.281   2.927   7.424 -0.6908  0.3149  0.3489
   16SAPS   H4Y 2085   2.248   2.751   7.422 -3.1888 -1.9663  1.4808
   16SAPS   C35 2086   2.121   2.866   7.541 -0.3797  0.0205  0.3164
   16SAPS   H5X 2087   2.027   2.807   7.539 -0.7823  0.5245  2.2762
   16SAPS   H5Y 2088   2.092   2.973   7.546  1.5905  0.5946  0.5316
   16SAPS   C36 2089   2.207   2.820   7.657  0.0954 -0.2122 -0.1720
   16SAPS   H6X 2090   2.289   2.756   7.618  0.4079  0.1992 -0.2016
   16SAPS   H6Y 2091   2.151   2.754   7.726 -0.9176  0.2370 -0.5534
   16SAPS   C37 2092   2.273   2.947   7.724  0.7238  0.0505 -0.7557
   16SAPS   H7X 2093   2.183   2.996   7.766  1.1816 -0.7176  1.2581
   16SAPS   H7Y 2094   2.316   3.012   7.644 -1.4026  2.2849 -0.2014
   16SAPS   C38 2095   2.349   2.895   7.841  0.2531  0.0522 -0.1169
   16SAPS   H8X 2096   2.424   2.819   7.810 -0.8809 -0.3595 -1.9695
   16SAPS   H8Y 2097   2.277   2.842   7.907  0.9317  0.6370  1.1419
   16SAPS   C39 2098   2.418   3.008   7.921 -0.4362  0.5775  0.4089
   16SAPS   H9X 2099   2.340   3.078   7.957  0.8293  1.2471  1.9462
   16SAPS   H9Y 2100   2.478   3.070   7.851  1.8917 -2.2509 -0.3195
   16SAPS  C310 2101   2.516   2.966   8.028  1.0026 -0.3759  0.4631
   16SAPS  H10X 2102   2.596   3.041   8.043  1.5313 -1.0282  0.9791
   16SAPS  H10Y 2103   2.566   2.875   7.987 -0.4190 -0.2940 -1.6574
   16SAPS  C311 2104   2.452   2.961   8.170  0.4757 -0.2806 -0.5455
   16SAPS  H11X 2105   2.529   2.911   8.232  0.3113 -0.7951 -0.7466
   16SAPS  H11Y 2106   2.368   2.887   8.172  2.1057 -2.2125  0.4401
   16SAPS  C312 2107   2.428   3.101   8.228 -0.4951 -0.1434 -0.8365
   16SAPS  H12X 2108   2.371   3.164   8.157 -0.9472  0.3540 -0.0452
   16SAPS  H12Y 2109   2.529   3.147   8.239 -0.2636 -0.5545 -1.2023
   16SAPS  C313 2110   2.370   3.106   8.364  0.3427 -0.1998  0.2191
   16SAPS  H13X 2111   2.261   3.088   8.353  0.4815 -1.4275  0.7405
   16SAPS  H13Y 2112   2.379   3.211   8.399 -0.6973  0.7027 -2.0112
   16SAPS  C314 2113   2.408   2.994   8.464  0.0400  0.4725 -0.3271
   16SAPS  H14X 2114   2.517   2.982   8.446  0.0451 -1.4488  0.6758
   16SAPS  H14Y 2115   2.364   2.895   8.438  2.1267 -1.5589  3.1382
   16SAPS  C315 2116   2.357   3.015   8.603  0.0936  0.3511 -0.1439
   16SAPS  H15X 2117   2.357   2.916   8.655 -2.3307  0.7673  0.7697
   16SAPS  H15Y 2118   2.252   3.046   8.620 -0.0630  0.5776 -1.4764
   16SAPS  C316 2119   2.440   3.117   8.680 -0.6370  0.5376 -0.4139
   16SAPS  H16X 2120   2.419   3.212   8.628  0.1686  1.0439  0.1568
   16SAPS  H16Y 2121   2.548   3.096   8.671 -0.2698  1.2426  1.7810
   16SAPS  C317 2122   2.394   3.141   8.822  0.3660 -0.1472  0.1519
   16SAPS  H17X 2123   2.383   3.043   8.872 -0.9346 -0.0406  0.0929
   16SAPS  H17Y 2124   2.295   3.191   8.822 -0.3795 -1.5771 -0.5187
   16SAPS  C318 2125   2.501   3.222   8.901  0.0836  0.6312 -0.2732
   16SAPS  H18X 2126   2.522   3.320   8.853  0.2872  1.5668  1.6016
   16SAPS  H18Y 2127   2.599   3.170   8.911  0.0342  0.1555 -2.0397
   16SAPS  H18Z 2128   2.458   3.242   9.002  1.4609 -1.1549  0.7363
   17SAPC     N 2129   0.736   6.205  11.220 -0.4689  0.0329  0.6201
   17SAPC   C12 2130   0.752   6.068  11.165 -0.4313 -0.2156 -0.6404
   17SAPC  H12A 2131   0.683   5.995  11.205  0.0534  0.7879  2.2468
   17SAPC  H12B 2132   0.851   6.033  11.191 -0.4164  0.3857  0.1585
   17SAPC   C13 2133   0.752   6.208  11.372  0.2110 -0.5626 -0.1776
   17SAPC  H13A 2134   0.671   6.148  11.411  2.1081 -1.3915  2.7991
   17SAPC  H13B 2135   0.839   6.161  11.415  0.6039  2.6024  2.9444
   17SAPC  H13C 2136   0.743   6.306  11.415  0.6720 -0.3986 -0.4513
   17SAPC   C14 2137   0.833   6.303  11.164 -0.2149 -0.0800  0.2130
   17SAPC  H14A 2138   0.800   6.327  11.064  2.9398 -0.1713 -0.9618
   17SAPC  H14B 2139   0.830   6.392  11.225  0.8776  0.0472  0.0953
   17SAPC  H14C 2140   0.935   6.267  11.161 -1.1046 -2.9055  0.6136
   17SAPC   C15 2141   0.603   6.255  11.169  0.8361  0.3887  0.0237
   17SAPC  H15A 2142   0.517   6.210  11.214  0.4925  1.9850  1.0424
   17SAPC  H15B 2143   0.590   6.362  11.184 -0.0041  0.6454 -2.1385
   17SAPC  H15C 2144   0.586   6.228  11.066 -3.1704 -1.3168  0.9663
   17SAPC   C11 2145   0.743   6.049  11.015  0.4056  0.5884  0.1441
   17SAPC  H11A 2146   0.822   6.115  10.973 -0.8041  0.9728 -1.6004
   17SAPC  H11B 2147   0.641   6.070  10.977  0.7976 -0.0801 -1.3508
   17SAPC     P 2148   0.926   5.865  10.992  0.4010  0.2955  0.1509
   17SAPC   O13 2149   0.971   5.908  11.126  0.1839 -0.1268  0.5214
   17SAPC   O14 2150   0.919   5.726  10.951 -0.1460 -0.0105  0.4997
   17SAPC   O12 2151   0.773   5.910  10.987 -0.2251 -0.0306 -0.1320
   17SAPC   O11 2152   0.988   5.953  10.869  0.3803 -0.4831  0.5511
   17SAPC    C1 2153   0.921   5.959  10.743  0.0008 -0.6099  0.2077
   17SAPC    HA 2154   0.814   5.931  10.748 -0.0831 -0.3354 -0.0669
   17SAPC    HB 2155   0.935   6.064  10.709  1.5260 -0.6346  0.6683
   17SAPC    C2 2156   0.985   5.857  10.641 -0.2542  0.0772 -0.2178
   17SAPC    HS 2157   0.952   5.757  10.677 -0.0881  1.0776  3.0241
   17SAPC   O21 2158   1.121   5.885  10.640 -0.2555  0.0350  0.3902
   17SAPC   C21 2159   1.195   5.785  10.585 -0.0375  0.3431  0.3849
   17SAPC   O22 2160   1.159   5.677  10.537  0.5330 -0.2292 -1.0594
   17SAPC   C22 2161   1.341   5.830  10.583 -0.3718  0.0952 -0.4519
   17SAPC   H2R 2162   1.350   5.926  10.527  0.8635  0.3727  0.1927
   17SAPC   H2S 2163   1.376   5.854  10.686 -1.0253  2.4285 -0.7131
   17SAPC    C3 2164   0.909   5.888  10.509 -0.2434  0.4504 -0.8946
   17SAPC    HX 2165   0.964   5.840  10.425  3.0841  2.7768 -0.2559
   17SAPC    HY 2166   0.916   5.996  10.483 -2.2739  0.1131 -3.2650
   17SAPC   O31 2167   0.769   5.870  10.518  0.3599  0.1198  0.1828
   17SAPC   C31 2168   0.722   5.755  10.475  0.3894 -0.0607 -0.1074
   17SAPC   O32 2169   0.768   5.642  10.483  0.3219 -0.2958 -0.3596
   17SAPC   C32 2170   0.595   5.786  10.398  0.2658 -0.5857 -0.5670
   17SAPC   H2X 2171   0.534   5.845  10.470  0.6489 -0.3567 -0.4246
   17SAPC   H2Y 2172   0.555   5.685  10.376  1.3691 -0.7473 -2.0101
   17SAPC   C23 2173   1.423   5.717  10.533 -0.0772  0.7346 -0.3733
   17SAPC   H3R 2174   1.376   5.660  10.449 -0.8798  1.0076 -0.1195
   17SAPC   H3S 2175   1.445   5.639  10.609 -2.6270  0.0130 -0.2878
   17SAPC   C24 2176   1.565   5.772  10.494 -0.1699  0.0758  0.3051
   17SAPC   H4R 2177   1.633   5.688  10.467 -0.4300  0.3427 -1.3390
   17SAPC   H4S 2178   1.617   5.824  10.577  2.4559  2.4523 -2.5241
   17SAPC   C25 2179   1.560   5.856  10.367  0.1663  0.4553 -0.4666
   17SAPC   H5R 2180   1.496   5.945  10.378 -0.5521  0.0499 -1.2676
   17SAPC   C26 2181   1.617   5.833  10.243 -0.2210  0.0516 -0.4561
   17SAPC   H6R 2182   1.596   5.904  10.161 -0.1074  3.8933  2.5156
   17SAPC   C27 2183   1.698   5.715  10.206 -0.0207  0.4529 -0.3482
   17SAPC   H7R 2184   1.764   5.678  10.287 -1.0118 -0.9474 -0.1170
   17SAPC   H7S 2185   1.772   5.753  10.133 -1.5616 -0.7062 -2.6592
   17SAPC   C28 2186   1.618   5.593  10.155 -0.1493  0.0315  0.0587
   17SAPC   H8R 2187   1.574   5.521  10.225 -0.8992  0.0936 -0.3388
   17SAPC   C29 2188   1.606   5.563  10.022  0.7940  0.1906 -0.3542
   17SAPC   H9R 2189   1.540   5.479   9.994  0.0608  0.0674  1.6163
   17SAPC  C210 2190   1.661   5.643   9.910 -0.2273  0.1848 -0.2896
   17SAPC  H10R 2191   1.757   5.601   9.874  0.0237  1.6009 -1.3573
   17SAPC  H10S 2192   1.688   5.745   9.945  0.8966  0.0697 -0.7851
   17SAPC  C211 2193   1.563   5.663   9.795  0.7962  0.3643 -0.1564
   17SAPC  H11R 2194   1.458   5.674   9.828  1.2195  0.9721  0.9938
   17SAPC  C212 2195   1.590   5.655   9.663 -0.3557  0.0885  0.0630
   17SAPC  H12R 2196   1.510   5.669   9.589 -0.1592  0.6740 -0.0434
   17SAPC  C213 2197   1.727   5.634   9.598 -0.3977 -0.3913 -0.2191
   17SAPC  H13R 2198   1.729   5.531   9.555  1.6002 -0.6869  0.4658
   17SAPC  H13S 2199   1.806   5.628   9.676 -1.6350 -1.2129  1.0249
   17SAPC  C214 2200   1.762   5.733   9.487 -0.4312  0.0206 -0.0953
   17SAPC  H14R 2201   1.769   5.835   9.528  0.8429 -1.2765  3.1948
   17SAPC  C215 2202   1.785   5.717   9.358  0.4553 -0.1778  0.8383
   17SAPC  H15R 2203   1.819   5.794   9.287  3.1217 -0.6243  1.5298
   17SAPC  C216 2204   1.770   5.586   9.292 -0.5789  0.1002  0.3929
   17SAPC  H16R 2205   1.697   5.526   9.351  1.9337 -1.5614  1.9855
   17SAPC  H16S 2206   1.870   5.540   9.299  0.0566  1.2765 -0.5362
   17SAPC  C217 2207   1.722   5.590   9.144 -0.2395  0.3439  0.3495
   17SAPC  H17R 2208   1.795   5.642   9.079  0.1746 -1.1999 -0.4740
   17SAPC  H17S 2209   1.625   5.644   9.139  0.1265  1.0836  1.0497
   17SAPC  C218 2210   1.711   5.454   9.076 -0.5456  0.2051  0.2306
   17SAPC  H18R 2211   1.637   5.385   9.121 -1.7084  1.2576 -0.0008
   17SAPC  H18S 2212   1.808   5.402   9.095  0.0058  0.4095 -1.8371
   17SAPC  C219 2213   1.678   5.458   8.922  0.0079  0.5902  0.3027
   17SAPC  H19R 2214   1.754   5.515   8.866 -1.9211  4.1623  1.0447
   17SAPC  H19S 2215   1.581   5.510   8.903  0.2692  0.4013 -1.9033
   17SAPC  C220 2216   1.656   5.316   8.857 -0.0971 -0.5340 -0.2096
   17SAPC  H20R 2217   1.753   5.261   8.851 -1.6624 -3.6568  1.2182
   17SAPC  H20S 2218   1.622   5.328   8.752  0.2128  0.6607 -0.1893
   17SAPC  H20T 2219   1.579   5.248   8.897  0.5239 -1.2466 -0.2044
   17SAPC   C33 2220   0.616   5.873  10.271 -0.1528 -0.0235  1.0678
   17SAPC   H3X 2221   0.688   5.955  10.292 -0.7816  0.9358 -0.3889
   17SAPC   H3Y 2222   0.520   5.908  10.229  0.7794  0.9994 -0.2826
   17SAPC   C34 2223   0.661   5.778  10.155 -0.4505  0.4214  0.5251
   17SAPC   H4X 2224   0.583   5.702  10.132  0.5654  0.4769 -4.2734
   17SAPC   H4Y 2225   0.756   5.726  10.178 -1.2420 -3.0598 -2.9350
   17SAPC   C35 2226   0.689   5.862  10.031  0.1916 -0.5204 -0.3712
   17SAPC   H5X 2227   0.770   5.934  10.056 -1.4177  1.5336 -0.7386
   17SAPC   H5Y 2228   0.610   5.936  10.006  0.3092  0.2168  1.2751
   17SAPC   C36 2229   0.729   5.790   9.898  0.4054 -0.0079 -0.4795
   17SAPC   H6X 2230   0.653   5.717   9.863 -0.7200  1.2986 -0.8630
   17SAPC   H6Y 2231   0.828   5.739   9.905  1.5490  2.0379 -1.0963
   17SAPC   C37 2232   0.737   5.882   9.773  0.2310  0.4663 -0.0362
   17SAPC   H7X 2233   0.821   5.952   9.787 -0.4276  1.2176  0.2269
   17SAPC   H7Y 2234   0.654   5.952   9.748  1.2838  1.8361  0.1991
   17SAPC   C38 2235   0.753   5.798   9.648 -0.2273 -0.5646  0.2707
   17SAPC   H8X 2236   0.666   5.730   9.639  0.0948 -0.7365 -2.3830
   17SAPC   H8Y 2237   0.847   5.743   9.674  0.4533  1.4461  2.4134
   17SAPC   C39 2238   0.777   5.885   9.520  0.2219  1.3009  0.6103
   17SAPC   H9X 2239   0.872   5.940   9.533  1.9896 -1.2339 -0.6589
   17SAPC   H9Y 2240   0.690   5.952   9.502 -0.7967 -0.3514 -0.9219
   17SAPC  C310 2241   0.801   5.786   9.408  0.6929 -0.7743  0.1265
   17SAPC  H10X 2242   0.707   5.740   9.371  1.4836 -1.3857 -1.1985
   17SAPC  H10Y 2243   0.871   5.702   9.429 -0.5681 -1.2646  2.8276
   17SAPC  C311 2244   0.838   5.866   9.284  0.5392 -0.1253  0.7320
   17SAPC  H11X 2245   0.942   5.905   9.290  0.8415 -0.9277  0.9087
   17SAPC  H11Y 2246   0.768   5.948   9.260  0.2235 -0.4769  0.4321
   17SAPC  C312 2247   0.850   5.778   9.159  0.1037 -0.4592  0.3111
   17SAPC  H12X 2248   0.746   5.755   9.126  0.0477  2.5924 -2.0065
   17SAPC  H12Y 2249   0.890   5.677   9.181  0.0850 -0.6129 -0.3354
   17SAPC  C313 2250   0.917   5.856   9.041  0.7803  0.7664  0.6234
   17SAPC  H13X 2251   0.968   5.783   8.975  1.0833 -0.3337  2.0341
   17SAPC  H13Y 2252   1.001   5.909   9.090  0.9700  1.8182 -0.7940
   17SAPC  C314 2253   0.825   5.938   8.951  0.7421 -0.0852 -0.3537
   17SAPC  H14X 2254   0.798   6.032   9.005 -1.3604 -1.4845  1.1970
   17SAPC  H14Y 2255   0.736   5.872   8.951  0.7980 -0.1603 -0.5257
   17SAPC  C315 2256   0.864   5.960   8.799 -0.0183 -0.3269  0.3067
   17SAPC  H15X 2257   0.972   5.984   8.806 -0.4172  1.2789  1.4095
   17SAPC  H15Y 2258   0.803   6.044   8.761 -2.1661 -0.9328  2.2295
   17SAPC  C316 2259   0.849   5.842   8.709  0.2292  0.5961  1.1669
   17SAPC  H16X 2260   0.748   5.804   8.737 -0.4761  2.1139  0.7490
   17SAPC  H16Y 2261   0.920   5.762   8.742  0.1079 -2.2274 -4.2997
   17SAPC  C317 2262   0.851   5.857   8.561  0.7579  0.6795  0.1392
   17SAPC  H17X 2263   0.863   5.752   8.525  2.0522  1.0422 -0.5303
   17SAPC  H17Y 2264   0.937   5.912   8.518  0.6852  0.5860 -0.1316
   17SAPC  C318 2265   0.725   5.923   8.494  0.1163 -0.3586  0.8829
   17SAPC  H18X 2266   0.658   5.962   8.574  2.8421  3.1882  1.7086
   17SAPC  H18Y 2267   0.768   6.012   8.443  1.1873 -0.7671  1.0462
   17SAPC  H18Z 2268   0.689   5.847   8.421  0.9356  1.0515 -1.0843
   18SAPC     N 2269   6.614   0.734  11.137  0.6022 -0.3240  0.3136
   18SAPC   C12 2270   6.696   0.613  11.109  0.1433  0.3012 -0.2744
   18SAPC  H12A 2271   6.637   0.536  11.157 -0.1473  1.1035  0.6993
   18SAPC  H12B 2272   6.782   0.625  11.173 -0.4522  2.9263  0.1825
   18SAPC   C13 2273   6.695   0.858  11.110 -0.5382 -0.7605 -0.0171
   18SAPC  H13A 2274   6.627   0.939  11.132  0.3410 -0.2171  0.7844
   18SAPC  H13B 2275   6.785   0.860  11.171 -0.5153 -0.1375 -0.0707
   18SAPC  H13C 2276   6.733   0.871  11.010  0.9978  0.2015  0.6449
   18SAPC   C14 2277   6.485   0.739  11.057 -0.2732 -0.0153 -0.2220
   18SAPC  H14A 2278   6.444   0.839  11.066 -0.6363 -0.3072  1.8967
   18SAPC  H14B 2279   6.507   0.716  10.954 -1.3492 -1.6449 -0.1102
   18SAPC  H14C 2280   6.411   0.670  11.093 -0.0607  0.5517  1.4112
   18SAPC   C15 2281   6.581   0.740  11.283  0.4180 -0.1273 -0.2881
   18SAPC  H15A 2282   6.522   0.660  11.325  0.0328  0.7775  0.9744
   18SAPC  H15B 2283   6.667   0.735  11.349 -0.5390  0.8097  1.0889
   18SAPC  H15C 2284   6.527   0.828  11.315  1.1689 -0.1430  1.1102
   18SAPC   C11 2285   6.728   0.576  10.959  0.3047 -0.0073  0.3308
   18SAPC  H11A 2286   6.831   0.534  10.953  0.3392 -0.0223  0.8891
   18SAPC  H11B 2287   6.729   0.672  10.905 -1.9626  1.6509  2.9749
   18SAPC     P 2288   6.607   0.347  10.913  0.5493 -0.2653 -0.0098
   18SAPC   O13 2289   6.685   0.310  11.030 -0.2299 -0.4828 -0.1265
   18SAPC   O14 2290   6.461   0.313  10.911 -0.1675 -0.3072  0.4759
   18SAPC   O12 2291   6.621   0.508  10.897 -0.1251  0.4046  0.3222
   18SAPC   O11 2292   6.672   0.285  10.781 -0.3289  0.2393 -0.3268
   18SAPC    C1 2293   6.791   0.335  10.726 -0.4621 -0.4644  0.2627
   18SAPC    HA 2294   6.783   0.439  10.688  1.0211 -0.2814  0.3777
   18SAPC    HB 2295   6.869   0.345  10.805 -0.7749  0.7433  0.4356
   18SAPC    C2 2296   6.861   0.261  10.615  0.0977  0.2309 -0.3687
   18SAPC    HS 2297   6.956   0.317  10.600 -0.5503  0.6201 -3.7103
   18SAPC   O21 2298   6.788   0.258  10.496 -0.0272 -0.4967 -0.1834
   18SAPC   C21 2299   6.842   0.233  10.383 -0.5277 -0.0312  0.0635
   18SAPC   O22 2300   6.960   0.231  10.361 -0.4201 -0.0457  0.2261
   18SAPC   C22 2301   6.738   0.225  10.275  0.1160  0.2345  0.3981
   18SAPC   H2R 2302   6.633   0.211  10.308  0.1000 -0.8940 -0.0906
   18SAPC   H2S 2303   6.729   0.321  10.220  1.9373  0.3524  0.2373
   18SAPC    C3 2304   6.895   0.116  10.655  0.4413  0.3577  0.1191
   18SAPC    HX 2305   6.805   0.052  10.642  0.7735 -0.6350  2.2587
   18SAPC    HY 2306   6.901   0.104  10.766 -1.4748 -0.4631  0.1797
   18SAPC   O31 2307   7.006   0.059  10.591  0.1289  0.0202  0.3946
   18SAPC   C31 2308   7.129   0.084  10.629  0.2665  0.3835  0.3287
   18SAPC   O32 2309   7.162   0.154  10.720 -0.1198  0.5277 -0.1799
   18SAPC   C32 2310   7.237   0.014  10.539 -0.2081 -0.4437  0.5969
   18SAPC   H2X 2311   7.305  -0.046  10.604  0.9955  1.1978  0.9069
   18SAPC   H2Y 2312   7.293   0.094  10.486 -0.0999 -2.0887 -1.9342
   18SAPC   C23 2313   6.774   0.108  10.169 -0.0729 -0.8013 -0.6643
   18SAPC   H3R 2314   6.738   0.015  10.217 -0.3991 -0.4956 -0.3225
   18SAPC   H3S 2315   6.883   0.105  10.147  0.1892  0.8896  0.2794
   18SAPC   C24 2316   6.698   0.142  10.043  0.4012  0.4040 -0.2176
   18SAPC   H4R 2317   6.602   0.185  10.079  0.8860  0.7574  0.6986
   18SAPC   H4S 2318   6.681   0.054   9.978  1.9978  0.7607 -1.1544
   18SAPC   C25 2319   6.762   0.248   9.965 -0.0342 -0.1780 -0.1503
   18SAPC   H5R 2320   6.797   0.333  10.025  1.2282 -0.1862 -0.8598
   18SAPC   C26 2321   6.794   0.246   9.836 -0.2470  0.0282 -0.0893
   18SAPC   H6R 2322   6.861   0.327   9.804 -0.2910  0.3718  0.6740
   18SAPC   C27 2323   6.767   0.137   9.733  0.4641 -0.3696 -0.9396
   18SAPC   H7R 2324   6.763   0.033   9.771 -0.3102 -0.0915 -0.2130
   18SAPC   H7S 2325   6.857   0.131   9.669 -0.2894 -1.6754 -1.9229
   18SAPC   C28 2326   6.644   0.175   9.644 -0.9717  0.6175 -0.1176
   18SAPC   H8R 2327   6.559   0.213   9.704 -0.4797 -2.5221  2.9068
   18SAPC   C29 2328   6.632   0.172   9.513 -0.4696 -0.3691  0.3622
   18SAPC   H9R 2329   6.529   0.203   9.488 -0.8796  0.7924  3.1665
   18SAPC  C210 2330   6.730   0.124   9.410 -0.4604 -0.3527 -0.5115
   18SAPC  H10R 2331   6.667   0.125   9.319 -3.8835  0.8659  1.6711
   18SAPC  H10S 2332   6.766   0.021   9.432 -1.0197 -0.3905  0.2516
   18SAPC  C211 2333   6.850   0.206   9.376 -0.7173  0.0031  0.0779
   18SAPC  H11R 2334   6.856   0.304   9.427 -1.2524  0.2683 -0.3525
   18SAPC  C212 2335   6.945   0.166   9.287  0.3027  0.2466  0.2345
   18SAPC  H12R 2336   7.037   0.227   9.280  0.1245  0.3306 -2.5821
   18SAPC  C213 2337   6.950   0.032   9.214  0.5234  0.0537  0.7770
   18SAPC  H13R 2338   6.846  -0.007   9.207  0.5395  0.0481  0.5661
   18SAPC  H13S 2339   7.020  -0.032   9.272  1.4285  1.4623  1.3081
   18SAPC  C214 2340   6.999   0.045   9.070 -0.5212  1.1166  0.1911
   18SAPC  H14R 2341   7.058   0.134   9.046 -0.6429  1.6853  1.8775
   18SAPC  C215 2342   6.989  -0.049   8.973  0.4640 -0.7406 -0.4390
   18SAPC  H15R 2343   7.012  -0.025   8.868  0.0276 -1.2620 -0.6600
   18SAPC  C216 2344   6.942  -0.195   8.988  0.2054 -0.8259 -0.3826
   18SAPC  H16R 2345   6.873  -0.208   8.902 -0.1214  1.8346 -0.5888
   18SAPC  H16S 2346   6.881  -0.197   9.081 -0.4062  2.7514 -0.5875
   18SAPC  C217 2347   7.053  -0.300   9.000 -0.0042  0.8115  0.1868
   18SAPC  H17R 2348   7.007  -0.401   9.008 -1.7626  1.5305 -0.4195
   18SAPC  H17S 2349   7.111  -0.287   9.094 -0.9009 -0.5667  0.9680
   18SAPC  C218 2350   7.160  -0.294   8.891  0.1671  0.0004 -0.1223
   18SAPC  H18R 2351   7.222  -0.203   8.906 -0.8663  0.4520  1.7153
   18SAPC  H18S 2352   7.100  -0.284   8.797  0.0199 -0.7318 -0.1082
   18SAPC  C219 2353   7.253  -0.417   8.888  0.7766 -0.6248 -0.0089
   18SAPC  H19R 2354   7.189  -0.507   8.899 -1.1843  0.4762 -1.6765
   18SAPC  H19S 2355   7.326  -0.427   8.971  0.5395 -0.8245  0.1801
   18SAPC  C220 2356   7.333  -0.420   8.761  0.1721  0.5600  0.2076
   18SAPC  H20R 2357   7.262  -0.418   8.676  0.8182 -0.2760 -0.3651
   18SAPC  H20S 2358   7.383  -0.519   8.763 -4.6230 -2.1651  1.0483
   18SAPC  H20T 2359   7.401  -0.333   8.754 -0.0323  0.6173 -1.3023
   18SAPC   C33 2360   7.175  -0.074  10.433 -0.7215 -0.3649 -0.0093
   18SAPC   H3X 2361   7.080  -0.121  10.466 -0.9561  0.9814  1.3201
   18SAPC   H3Y 2362   7.247  -0.157  10.416 -0.5173  0.1952 -2.1478
   18SAPC   C34 2363   7.174  -0.011  10.292 -0.1681  0.8227 -0.7622
   18SAPC   H4X 2364   7.278   0.016  10.267 -0.5832  1.8809 -1.4030
   18SAPC   H4Y 2365   7.114   0.083  10.298  0.5059  1.3072 -1.5244
   18SAPC   C35 2366   7.113  -0.109  10.181  0.5937  0.7571  0.1255
   18SAPC   H5X 2367   7.006  -0.122  10.208  0.2717 -2.0698 -2.0686
   18SAPC   H5Y 2368   7.174  -0.201  10.171  1.3540  1.1642  0.9115
   18SAPC   C36 2369   7.094  -0.054  10.039  0.0692 -0.7277  0.4018
   18SAPC   H6X 2370   7.031   0.038  10.038  1.0196  0.0786 -3.5216
   18SAPC   H6Y 2371   7.034  -0.129   9.984 -2.1360 -0.2487  2.0124
   18SAPC   C37 2372   7.228  -0.037   9.959  0.2544  0.1687  0.1861
   18SAPC   H7X 2373   7.282  -0.135   9.960 -2.0898 -1.2252 -1.0637
   18SAPC   H7Y 2374   7.296   0.033  10.012 -0.4180  1.3082 -0.4401
   18SAPC   C38 2375   7.194   0.017   9.818 -0.0951 -0.5876 -0.0832
   18SAPC   H8X 2376   7.203   0.128   9.812 -0.7209 -0.6205 -2.2275
   18SAPC   H8Y 2377   7.097  -0.021   9.782 -0.1933  1.1148 -1.7947
   18SAPC   C39 2378   7.286  -0.060   9.716 -0.4356 -0.4752 -0.1184
   18SAPC   H9X 2379   7.264  -0.169   9.715 -2.7408 -0.0992  1.0201
   18SAPC   H9Y 2380   7.387  -0.043   9.758  1.1196 -3.6468 -2.1941
   18SAPC  C310 2381   7.264  -0.010   9.570  0.1964  0.2309  0.1679
   18SAPC  H10X 2382   7.240   0.098   9.577 -0.5634 -0.0505  3.6799
   18SAPC  H10Y 2383   7.176  -0.071   9.540 -0.8664  0.1644  3.1590
   18SAPC  C311 2384   7.380  -0.031   9.472  0.1740  0.1284 -0.0581
   18SAPC  H11X 2385   7.413  -0.133   9.499 -2.1007 -1.0094 -1.2479
   18SAPC  H11Y 2386   7.452   0.050   9.495 -2.3593  1.7722  2.9438
   18SAPC  C312 2387   7.333  -0.029   9.330 -0.0448 -0.2079 -0.2597
   18SAPC  H12X 2388   7.280   0.068   9.325  1.1443  0.5572  1.1110
   18SAPC  H12Y 2389   7.255  -0.103   9.303  0.1619 -0.3265 -0.5372
   18SAPC  C313 2390   7.445  -0.016   9.231 -0.2512  0.2814  0.8565
   18SAPC  H13X 2391   7.501  -0.112   9.227  3.1035  2.0922 -2.7673
   18SAPC  H13Y 2392   7.507   0.071   9.263 -2.4866  1.4910  2.1806
   18SAPC  C314 2393   7.389   0.017   9.090  0.0622 -0.4180  0.9577
   18SAPC  H14X 2394   7.342   0.118   9.092  1.3003  0.2886 -1.3267
   18SAPC  H14Y 2395   7.311  -0.057   9.062 -0.6693  0.1111  1.5571
   18SAPC  C315 2396   7.488   0.004   8.967 -0.8003 -0.3955 -0.6640
   18SAPC  H15X 2397   7.541  -0.093   8.966 -0.8695 -0.4294 -1.1931
   18SAPC  H15Y 2398   7.566   0.083   8.967 -0.7467 -0.4356 -1.9864
   18SAPC  C316 2399   7.430   0.027   8.821 -0.0917  0.6062 -1.1991
   18SAPC  H16X 2400   7.370   0.121   8.823 -0.6003  0.3122 -2.2341
   18SAPC  H16Y 2401   7.363  -0.058   8.797  0.3987  0.8994 -3.9574
   18SAPC  C317 2402   7.538   0.051   8.717 -0.5073  0.6673  0.0149
   18SAPC  H17X 2403   7.607  -0.035   8.730  1.0047  1.7836 -0.4315
   18SAPC  H17Y 2404   7.584   0.147   8.746 -1.6055  0.1467  4.0869
   18SAPC  C318 2405   7.487   0.056   8.577 -0.5053 -0.6475 -0.2089
   18SAPC  H18X 2406   7.571   0.083   8.509 -0.4097 -3.2552 -1.2292
   18SAPC  H18Y 2407   7.409   0.133   8.558 -1.1357 -1.9459 -3.4591
   18SAPC  H18Z 2408   7.436  -0.037   8.544 -1.3744  0.4967 -2.2958
   19SAPC     N 2409   6.007   0.803  11.351 -0.1651  0.2828  0.1198
   19SAPC   C12 2410   6.144   0.799  11.296  0.4492  0.6726  0.3899
   19SAPC  H12A 2411   6.172   0.696  11.284 -1.5878  0.1056  0.1836
   19SAPC  H12B 2412   6.215   0.843  11.364 -0.1358  0.3789  1.1995
   19SAPC   C13 2413   5.911   0.727  11.274 -0.2307  0.2382  0.0284
   19SAPC  H13A 2414   5.807   0.729  11.303 -0.4317  1.0149 -0.6929
   19SAPC  H13B 2415   5.925   0.747  11.169 -0.2283 -3.2539 -0.7652
   19SAPC  H13C 2416   5.944   0.624  11.278  0.7458  0.5822  1.7521
   19SAPC   C14 2417   6.017   0.746  11.487 -0.9641  0.3033 -0.3855
   19SAPC  H14A 2418   6.090   0.802  11.544  1.3298 -0.6865 -2.2174
   19SAPC  H14B 2419   5.922   0.742  11.539 -0.3342 -1.5836  0.6945
   19SAPC  H14C 2420   6.062   0.649  11.481  0.8367  1.0441  0.3579
   19SAPC   C15 2421   5.955   0.949  11.350  0.4557 -0.2640  0.2120
   19SAPC  H15A 2422   5.975   1.004  11.260 -0.2050  4.1413  2.4808
   19SAPC  H15B 2423   5.853   0.958  11.384  0.2012  0.2745 -0.6774
   19SAPC  H15C 2424   6.016   1.012  11.414 -0.7702  3.0350 -1.6432
   19SAPC   C11 2425   6.156   0.869  11.165 -0.2299 -0.2279  0.4589
   19SAPC  H11A 2426   6.061   0.856  11.109  0.1580  0.0231 -0.2623
   19SAPC  H11B 2427   6.240   0.828  11.106 -0.0134  0.1203  0.5219
   19SAPC     P 2428   6.323   1.073  11.183 -0.3786  0.1364 -0.1151
   19SAPC   O13 2429   6.321   1.217  11.207 -0.1381 -0.7657  0.1454
   19SAPC   O14 2430   6.415   1.003  11.277 -0.2424 -0.1900  0.4721
   19SAPC   O12 2431   6.176   1.011  11.183  0.1121 -0.3199  0.0850
   19SAPC   O11 2432   6.375   1.037  11.039  0.2560  0.3227 -0.1712
   19SAPC    C1 2433   6.368   1.125  10.929 -0.0540 -0.6722 -0.0071
   19SAPC    HA 2434   6.288   1.201  10.942  0.1935 -0.5217  0.6876
   19SAPC    HB 2435   6.469   1.169  10.913 -1.8156  3.0171 -2.5071
   19SAPC    C2 2436   6.341   1.046  10.802 -0.4254  0.1817 -0.5950
   19SAPC    HS 2437   6.415   0.965  10.784  1.0411  1.6664 -1.5091
   19SAPC   O21 2438   6.345   1.143  10.696 -0.1362 -1.8363  0.6425
   19SAPC   C21 2439   6.390   1.095  10.574 -0.0907 -0.5973 -0.1316
   19SAPC   O22 2440   6.442   0.991  10.553  0.5555  1.0315 -0.0050
   19SAPC   C22 2441   6.350   1.195  10.471  0.1672 -0.0567 -0.0016
   19SAPC   H2R 2442   6.242   1.183  10.450  0.3383  1.2971 -1.8236
   19SAPC   H2S 2443   6.360   1.302  10.498  0.0108 -0.3257  1.2036
   19SAPC    C3 2444   6.203   0.971  10.809  0.3358 -0.5980 -0.9563
   19SAPC    HX 2445   6.133   1.057  10.818  0.7102 -0.2873 -1.0148
   19SAPC    HY 2446   6.183   0.909  10.899 -0.9057 -2.4967 -2.4646
   19SAPC   O31 2447   6.173   0.894  10.687  0.0135 -0.0928  0.0769
   19SAPC   C31 2448   6.239   0.783  10.671 -0.5180  0.1555  0.1053
   19SAPC   O32 2449   6.329   0.735  10.739  0.3382  0.1139 -0.1157
   19SAPC   C32 2450   6.187   0.704  10.554  0.4907  0.5119 -0.2314
   19SAPC   H2X 2451   6.149   0.770  10.474 -0.8308  0.5501  0.4001
   19SAPC   H2Y 2452   6.113   0.633  10.597  0.0630  0.4310 -1.0807
   19SAPC   C23 2453   6.435   1.173  10.346 -0.2092 -0.9712  0.3045
   19SAPC   H3R 2454   6.462   1.067  10.327  0.5237 -0.4979 -1.4789
   19SAPC   H3S 2455   6.533   1.223  10.362 -0.9466  1.4660 -2.1439
   19SAPC   C24 2456   6.379   1.220  10.219  0.2490 -0.3244 -0.3364
   19SAPC   H4R 2457   6.437   1.184  10.131 -0.9788  0.5021 -1.5276
   19SAPC   H4S 2458   6.365   1.329  10.204 -2.3649 -0.0876  2.7819
   19SAPC   C25 2459   6.237   1.165  10.194 -0.4570 -0.1447  0.1597
   19SAPC   H5R 2460   6.162   1.218  10.253  0.4045 -0.7874  1.8976
   19SAPC   C26 2461   6.206   1.046  10.132  0.5385 -0.0563  0.1801
   19SAPC   H6R 2462   6.104   1.006  10.140 -0.3939  2.2585  0.5913
   19SAPC   C27 2463   6.305   0.959  10.064  0.1768 -0.1247 -0.4082
   19SAPC   H7R 2464   6.400   0.956  10.122 -1.6012  0.0145  2.7011
   19SAPC   H7S 2465   6.328   0.998   9.963 -2.2543 -1.7921 -1.7089
   19SAPC   C28 2466   6.257   0.815  10.062 -0.3336 -0.2349 -0.7890
   19SAPC   H8R 2467   6.283   0.759  10.153 -0.6554  0.0994 -0.4870
   19SAPC   C29 2468   6.198   0.750   9.961 -0.1651  0.3315  0.2070
   19SAPC   H9R 2469   6.173   0.643   9.966  0.9597  0.0311 -0.2943
   19SAPC  C210 2470   6.154   0.807   9.828  0.1077  0.0406 -0.3428
   19SAPC  H10R 2471   6.143   0.734   9.745  1.1884  0.1291 -0.5761
   19SAPC  H10S 2472   6.239   0.867   9.789  0.6470 -0.9565 -0.7123
   19SAPC  C211 2473   6.030   0.904   9.845  0.3009 -0.9644  0.1235
   19SAPC  H11R 2474   5.987   0.913   9.946 -0.3025  0.9969 -0.2631
   19SAPC  C212 2475   5.969   0.976   9.751 -0.2052 -0.2422 -0.2654
   19SAPC  H12R 2476   5.891   1.047   9.781 -2.1185 -1.4457 -2.1330
   19SAPC  C213 2477   6.006   0.984   9.605  0.7140  0.9341  0.4679
   19SAPC  H13R 2478   6.113   1.013   9.593  1.1474 -0.7474 -0.0552
   19SAPC  H13S 2479   5.937   1.056   9.556 -0.7799 -0.8711 -0.1816
   19SAPC  C214 2480   5.983   0.851   9.526 -0.9064  0.3006 -0.2921
   19SAPC  H14R 2481   5.884   0.804   9.536 -0.6476 -0.2479 -0.3092
   19SAPC  C215 2482   6.070   0.792   9.442 -0.4665  0.1431  0.4896
   19SAPC  H15R 2483   6.039   0.698   9.393  1.3838 -0.4626  0.3814
   19SAPC  C216 2484   6.215   0.839   9.410  0.4714  0.3719  0.0564
   19SAPC  H16R 2485   6.283   0.752   9.403 -0.0837 -0.1402  0.9817
   19SAPC  H16S 2486   6.271   0.900   9.484  1.9407 -0.0059 -0.6965
   19SAPC  C217 2487   6.208   0.916   9.275 -0.0596 -0.5093 -0.3910
   19SAPC  H17R 2488   6.121   0.985   9.269  1.0085  0.9799  0.4292
   19SAPC  H17S 2489   6.197   0.835   9.199  0.3928 -2.4101  1.4832
   19SAPC  C218 2490   6.341   0.994   9.249 -0.0508 -0.4299 -0.6652
   19SAPC  H18R 2491   6.385   0.965   9.151  1.3549  0.6356 -0.3789
   19SAPC  H18S 2492   6.411   0.966   9.330  0.8806  1.2263 -0.8476
   19SAPC  C219 2493   6.329   1.144   9.251  0.6222 -0.8851  0.3176
   19SAPC  H19R 2494   6.264   1.179   9.334  1.2987 -0.1205  0.5319
   19SAPC  H19S 2495   6.277   1.177   9.158 -0.4241 -1.6417  0.6124
   19SAPC  C220 2496   6.459   1.220   9.266 -0.2361 -0.7644  0.4370
   19SAPC  H20R 2497   6.428   1.325   9.285 -0.8827 -1.0121  0.7877
   19SAPC  H20S 2498   6.505   1.219   9.165 -1.5079 -1.9121 -0.1757
   19SAPC  H20T 2499   6.518   1.179   9.351 -0.6563  0.7713  1.5164
   19SAPC   C33 2500   6.282   0.604  10.493 -0.0548  0.0693 -0.6646
   19SAPC   H3X 2501   6.328   0.546  10.576 -2.2273 -0.0981  0.5117
   19SAPC   H3Y 2502   6.365   0.651  10.437  1.4339 -0.4596  1.0213
   19SAPC   C34 2503   6.228   0.510  10.386 -1.0669  1.0458  0.8174
   19SAPC   H4X 2504   6.217   0.573  10.295 -0.7329 -0.3151 -0.1938
   19SAPC   H4Y 2505   6.124   0.483  10.413 -1.2938  0.4316 -0.5631
   19SAPC   C35 2506   6.320   0.382  10.362 -0.7671  0.2147  0.8521
   19SAPC   H5X 2507   6.355   0.331  10.454 -0.3629  0.9211  1.1039
   19SAPC   H5Y 2508   6.419   0.408  10.321  0.2260 -2.2279  1.5808
   19SAPC   C36 2509   6.239   0.283  10.273 -0.1855  0.0425  0.2069
   19SAPC   H6X 2510   6.140   0.258  10.318 -0.8483  0.6629 -0.8578
   19SAPC   H6Y 2511   6.290   0.184  10.264  0.8000  0.4647  1.0176
   19SAPC   C37 2512   6.211   0.326  10.127 -0.2871  0.5925 -0.5075
   19SAPC   H7X 2513   6.178   0.432  10.132 -0.8322  0.3874  1.0675
   19SAPC   H7Y 2514   6.124   0.269  10.090 -0.5244  1.3362 -1.1095
   19SAPC   C38 2515   6.316   0.328  10.013 -0.8383 -0.0600 -0.1432
   19SAPC   H8X 2516   6.375   0.234  10.008  0.9928  0.8215  2.7305
   19SAPC   H8Y 2517   6.377   0.418  10.034 -1.2681  0.5397 -1.3745
   19SAPC   C39 2518   6.245   0.360   9.887  0.0708  0.0082 -0.3720
   19SAPC   H9X 2519   6.172   0.443   9.902 -0.9180 -1.0486  0.9777
   19SAPC   H9Y 2520   6.184   0.272   9.856 -0.5549  0.7176 -1.2446
   19SAPC  C310 2521   6.345   0.392   9.775 -0.3415 -0.2462 -0.0304
   19SAPC  H10X 2522   6.403   0.298   9.762 -0.7161 -0.1728 -2.7199
   19SAPC  H10Y 2523   6.405   0.470   9.826 -1.1305  0.6547 -0.4366
   19SAPC  C311 2524   6.296   0.443   9.639  0.2576  0.1582  0.1392
   19SAPC  H11X 2525   6.385   0.474   9.579 -0.1700  0.2509 -0.4501
   19SAPC  H11Y 2526   6.236   0.535   9.658 -0.5630 -0.8657  3.1276
   19SAPC  C312 2527   6.223   0.329   9.563  0.3683 -0.0210 -0.2756
   19SAPC  H12X 2528   6.158   0.273   9.634 -0.5330  0.4495 -0.7152
   19SAPC  H12Y 2529   6.295   0.259   9.515  1.3487  0.6342  0.1907
   19SAPC  C313 2530   6.142   0.375   9.442  0.0113 -0.2561  0.1043
   19SAPC  H13X 2531   6.053   0.438   9.465  0.1216  0.3050 -0.9693
   19SAPC  H13Y 2532   6.109   0.281   9.393 -0.3828  0.7430 -1.6159
   19SAPC  C314 2533   6.219   0.448   9.338  0.8620  0.2096 -0.0579
   19SAPC  H14X 2534   6.244   0.547   9.380  0.6712  0.0490  0.4370
   19SAPC  H14Y 2535   6.146   0.459   9.255  1.2888  0.9961 -0.3365
   19SAPC  C315 2536   6.349   0.388   9.280 -0.1121  0.6732 -0.4862
   19SAPC  H15X 2537   6.344   0.278   9.265 -0.2307  0.8307 -1.6773
   19SAPC  H15Y 2538   6.431   0.400   9.354 -1.9495 -0.1725  1.8415
   19SAPC  C316 2539   6.398   0.447   9.152  0.0615 -0.0307  0.1001
   19SAPC  H16X 2540   6.414   0.557   9.158 -2.1521  0.3455 -0.0971
   19SAPC  H16Y 2541   6.331   0.427   9.065  0.8102 -3.1424  0.0998
   19SAPC  C317 2542   6.522   0.371   9.126 -0.1205  0.2189 -0.7544
   19SAPC  H17X 2543   6.487   0.266   9.129 -6.2606  1.8657  2.3810
   19SAPC  H17Y 2544   6.597   0.392   9.205 -1.6421 -0.2707  0.9047
   19SAPC  C318 2545   6.580   0.405   8.993  0.4948 -0.1315  0.0108
   19SAPC  H18X 2546   6.512   0.393   8.906  1.3675  2.0854 -1.0542
   19SAPC  H18Y 2547   6.680   0.358   8.975  0.7061  0.0161  0.7557
   19SAPC  H18Z 2548   6.600   0.514   8.986 -0.1936 -0.0877 -1.5896
   20SAPC     N 2549   5.630   2.339  11.063 -0.1129 -0.5907 -0.7022
   20SAPC   C12 2550   5.507   2.403  11.010  0.2252 -0.1941 -0.5056
   20SAPC  H12A 2551   5.461   2.348  10.929 -0.7979  2.0486 -1.5521
   20SAPC  H12B 2552   5.526   2.497  10.961  1.2256  0.1549  0.5178
   20SAPC   C13 2553   5.590   2.200  11.122 -0.8276 -0.8591 -0.3585
   20SAPC  H13A 2554   5.506   2.162  11.066 -1.3125  0.0180 -0.2517
   20SAPC  H13B 2555   5.671   2.129  11.133 -1.0173 -0.9301  0.7510
   20SAPC  H13C 2556   5.540   2.217  11.216  1.2524  1.8661  0.3804
   20SAPC   C14 2557   5.739   2.315  10.967 -0.4147  0.3134  0.3153
   20SAPC  H14A 2558   5.824   2.262  11.008 -0.1979 -1.5742 -2.3246
   20SAPC  H14B 2559   5.698   2.252  10.888  2.3861 -2.7050  1.0462
   20SAPC  H14C 2560   5.768   2.404  10.914 -0.0880 -0.1633 -0.3147
   20SAPC   C15 2561   5.686   2.430  11.170  0.1691  0.5623 -0.8630
   20SAPC  H15A 2562   5.775   2.380  11.206 -0.1262 -0.4790 -1.5451
   20SAPC  H15B 2563   5.707   2.528  11.131  0.7205  0.8685  0.1530
   20SAPC  H15C 2564   5.612   2.442  11.247  0.2803 -1.1855 -0.4290
   20SAPC   C11 2565   5.394   2.437  11.108  0.2151 -0.4545  0.1707
   20SAPC  H11A 2566   5.371   2.356  11.180 -0.8839  0.6098  1.0636
   20SAPC  H11B 2567   5.304   2.447  11.043  0.3240  0.8856  0.1909
   20SAPC     P 2568   5.409   2.704  11.099 -0.4220  0.6382  0.0435
   20SAPC   O13 2569   5.267   2.729  11.096  0.1486  0.5318 -0.6835
   20SAPC   O14 2570   5.495   2.790  11.174 -0.3297  0.3228 -0.0908
   20SAPC   O12 2571   5.422   2.560  11.179 -0.1712 -0.6925 -0.0750
   20SAPC   O11 2572   5.470   2.673  10.960  0.5664  0.1724  0.0859
   20SAPC    C1 2573   5.526   2.778  10.880 -0.0498 -0.2283  0.2890
   20SAPC    HA 2574   5.603   2.837  10.935 -0.7214 -0.3460  1.3977
   20SAPC    HB 2575   5.576   2.726  10.797  1.1050 -1.1173  1.4999
   20SAPC    C2 2576   5.418   2.871  10.813 -0.9647 -0.1096  0.5002
   20SAPC    HS 2577   5.474   2.916  10.727 -0.8582  1.2226  1.2329
   20SAPC   O21 2578   5.381   2.969  10.910  0.3626  0.3479 -0.1967
   20SAPC   C21 2579   5.328   3.086  10.869 -0.0466  0.4355 -0.0329
   20SAPC   O22 2580   5.297   3.101  10.749 -0.5355  0.2411  0.0361
   20SAPC   C22 2581   5.322   3.177  10.985 -0.1825  0.0543 -0.7178
   20SAPC   H2R 2582   5.228   3.155  11.041  0.3722 -1.4160 -0.3275
   20SAPC   H2S 2583   5.401   3.161  11.061  0.8177  1.6320 -1.3777
   20SAPC    C3 2584   5.302   2.781  10.757  0.4164  0.3039 -0.0493
   20SAPC    HX 2585   5.231   2.851  10.708 -1.1515 -1.6026 -0.6934
   20SAPC    HY 2586   5.245   2.729  10.837 -1.0450  0.0211 -1.2276
   20SAPC   O31 2587   5.344   2.682  10.653 -0.2062  0.2653  0.3928
   20SAPC   C31 2588   5.250   2.610  10.602 -0.3571 -0.6703 -0.6223
   20SAPC   O32 2589   5.133   2.631  10.625 -0.6722  0.0158 -0.2643
   20SAPC   C32 2590   5.316   2.488  10.532  0.3734 -0.2017 -0.2352
   20SAPC   H2X 2591   5.292   2.405  10.601 -0.0175 -0.3698 -0.5746
   20SAPC   H2Y 2592   5.427   2.494  10.530  0.5281 -2.2092  0.5248
   20SAPC   C23 2593   5.303   3.328  10.951  0.6434 -0.2515  0.2235
   20SAPC   H3R 2594   5.303   3.384  11.047 -3.1845  1.6908 -0.7006
   20SAPC   H3S 2595   5.200   3.336  10.912  0.0309 -1.6591  1.4557
   20SAPC   C24 2596   5.407   3.388  10.857 -0.7969 -0.3912  0.0599
   20SAPC   H4R 2597   5.402   3.317  10.771  0.5788 -0.6999  0.2231
   20SAPC   H4S 2598   5.513   3.381  10.888 -0.8510  0.1705  0.3852
   20SAPC   C25 2599   5.380   3.526  10.820 -0.2828 -0.2213 -0.1659
   20SAPC   H5R 2600   5.403   3.605  10.893 -1.7095 -0.5496  0.6793
   20SAPC   C26 2601   5.329   3.565  10.702  0.2874  1.0029  0.0185
   20SAPC   H6R 2602   5.317   3.672  10.680 -1.6484  0.8101 -0.0462
   20SAPC   C27 2603   5.287   3.480  10.589  0.1924 -0.1054 -0.5092
   20SAPC   H7R 2604   5.177   3.495  10.580 -0.0435  0.6615  2.5656
   20SAPC   H7S 2605   5.297   3.372  10.610  1.2464  0.0276 -0.2798
   20SAPC   C28 2606   5.358   3.516  10.461 -0.8100  0.0150  0.3993
   20SAPC   H8R 2607   5.357   3.620  10.426  0.4844  0.2140  0.8785
   20SAPC   C29 2608   5.463   3.445  10.400  0.1512 -0.1323  0.1537
   20SAPC   H9R 2609   5.491   3.486  10.302  0.9626 -2.0629 -0.4592
   20SAPC  C210 2610   5.516   3.309  10.440 -0.6218 -0.3418 -1.1538
   20SAPC  H10R 2611   5.496   3.240  10.355 -2.1091  0.4267 -1.4663
   20SAPC  H10S 2612   5.462   3.272  10.530 -0.0637  0.0196 -0.6656
   20SAPC  C211 2613   5.662   3.319  10.480  0.6771  0.7325 -0.7224
   20SAPC  H11R 2614   5.706   3.419  10.463  0.2513  0.6356 -2.6484
   20SAPC  C212 2615   5.721   3.212  10.546 -0.0131  0.4822  0.1303
   20SAPC  H12R 2616   5.823   3.213  10.587  0.0085 -2.0547  0.2428
   20SAPC  C213 2617   5.651   3.081  10.574  0.4793 -0.3990 -0.2134
   20SAPC  H13R 2618   5.598   3.055  10.479  0.5976  2.6369 -1.2219
   20SAPC  H13S 2619   5.571   3.099  10.648  0.9388 -2.5512  0.8706
   20SAPC  C214 2620   5.753   2.976  10.617 -0.3971 -0.1090  0.1689
   20SAPC  H14R 2621   5.814   3.008  10.702  1.1609 -0.8523 -0.6316
   20SAPC  C215 2622   5.798   2.871  10.551 -0.0367  0.4397 -0.2775
   20SAPC  H15R 2623   5.876   2.809  10.598  0.5151 -1.4352 -3.3680
   20SAPC  C216 2624   5.760   2.817  10.414  0.2291 -0.7206 -0.0205
   20SAPC  H16R 2625   5.674   2.876  10.375 -1.0346 -1.8615  0.9827
   20SAPC  H16S 2626   5.733   2.712  10.436  0.3351 -1.0183 -1.2445
   20SAPC  C217 2627   5.887   2.829  10.326 -0.3795 -0.7415 -0.2099
   20SAPC  H17R 2628   5.972   2.768  10.364  0.8749  0.9990 -0.0641
   20SAPC  H17S 2629   5.923   2.935  10.324 -1.2671 -0.3858  1.0134
   20SAPC  C218 2630   5.848   2.804  10.182 -0.5941  1.0849  0.2841
   20SAPC  H18R 2631   5.931   2.838  10.117 -0.4878  2.0464  0.9075
   20SAPC  H18S 2632   5.762   2.869  10.152 -0.3148  1.7046  0.8026
   20SAPC  C219 2633   5.803   2.656  10.161 -0.7918  0.4063  0.3705
   20SAPC  H19R 2634   5.728   2.628  10.238 -0.8785  0.5829  0.3517
   20SAPC  H19S 2635   5.895   2.599  10.184 -0.9064  1.3226  3.6707
   20SAPC  C220 2636   5.773   2.625  10.012  0.1630  0.3362  0.4080
   20SAPC  H20R 2637   5.766   2.515   9.993  1.8416  0.4175 -0.9702
   20SAPC  H20S 2638   5.863   2.671   9.964  2.0688 -1.7587  1.7748
   20SAPC  H20T 2639   5.679   2.677   9.983 -0.4099  0.6448  2.6908
   20SAPC   C33 2640   5.254   2.455  10.396 -1.0701 -0.0448  0.6923
   20SAPC   H3X 2641   5.143   2.446  10.401 -1.0959  0.8581  3.4639
   20SAPC   H3Y 2642   5.283   2.352  10.366 -2.2400 -1.8474  5.0770
   20SAPC   C34 2643   5.285   2.561  10.283 -0.2436 -0.6399  0.6577
   20SAPC   H4X 2644   5.392   2.558  10.253  0.0534 -0.4160  1.6330
   20SAPC   H4Y 2645   5.263   2.661  10.327 -1.5978 -1.2957  1.5482
   20SAPC   C35 2646   5.204   2.551  10.149 -0.5102 -0.2385  0.1976
   20SAPC   H5X 2647   5.174   2.654  10.120  3.9039  1.1503 -0.2752
   20SAPC   H5Y 2648   5.120   2.483  10.171 -0.2951 -0.3530  0.6716
   20SAPC   C36 2649   5.283   2.481  10.035 -0.3419  0.2878 -1.1240
   20SAPC   H6X 2650   5.285   2.374  10.063 -0.1980  0.0645 -1.9991
   20SAPC   H6Y 2651   5.373   2.545  10.025  1.3256 -1.3696  1.9010
   20SAPC   C37 2652   5.195   2.486   9.913 -1.1583 -0.2682  0.1062
   20SAPC   H7X 2653   5.087   2.472   9.935 -0.5985 -2.3114  1.9013
   20SAPC   H7Y 2654   5.224   2.400   9.849  0.8179  0.5966 -0.2362
   20SAPC   C38 2655   5.223   2.605   9.821 -0.4201 -0.3407 -0.1225
   20SAPC   H8X 2656   5.325   2.646   9.834  0.3555 -1.5781 -1.8718
   20SAPC   H8Y 2657   5.148   2.679   9.857 -1.5678 -0.5094 -2.0284
   20SAPC   C39 2658   5.205   2.578   9.672 -0.2589  0.5301  0.6053
   20SAPC   H9X 2659   5.182   2.665   9.607 -1.3118 -0.3429 -0.2235
   20SAPC   H9Y 2660   5.103   2.535   9.671  0.4864 -1.3993  1.9145
   20SAPC  C310 2661   5.300   2.472   9.606  0.6614 -0.1311  0.0217
   20SAPC  H10X 2662   5.274   2.476   9.498  1.8098 -0.2502 -0.2637
   20SAPC  H10Y 2663   5.291   2.371   9.652  3.9254 -0.7412 -0.4829
   20SAPC  C311 2664   5.449   2.507   9.609  0.1125 -0.2174  0.0512
   20SAPC  H11X 2665   5.490   2.482   9.710 -1.4302 -3.8805 -0.0549
   20SAPC  H11Y 2666   5.442   2.616   9.590 -1.9511 -0.6912 -2.3888
   20SAPC  C312 2667   5.533   2.439   9.502  0.1915 -0.0546  0.5043
   20SAPC  H12X 2668   5.498   2.464   9.399  1.8692  1.8205  0.3286
   20SAPC  H12Y 2669   5.537   2.329   9.510  3.4878  0.0438  1.5104
   20SAPC  C313 2670   5.682   2.491   9.510 -0.0868  0.1842  0.1038
   20SAPC  H13X 2671   5.712   2.454   9.610 -0.9863  0.8310  0.6269
   20SAPC  H13Y 2672   5.683   2.601   9.495 -1.0413  0.2078  0.1342
   20SAPC  C314 2673   5.773   2.433   9.400 -0.2004 -0.6902 -0.3942
   20SAPC  H14X 2674   5.745   2.326   9.401  1.4366 -1.1762  2.2102
   20SAPC  H14Y 2675   5.879   2.440   9.431  0.1366  0.0883 -1.6375
   20SAPC  C315 2676   5.748   2.476   9.255 -0.4213 -0.0448 -0.8007
   20SAPC  H15X 2677   5.640   2.485   9.233 -0.7697  1.4352  1.1929
   20SAPC  H15Y 2678   5.801   2.405   9.188 -1.3842 -0.1141 -1.4894
   20SAPC  C316 2679   5.800   2.622   9.215  1.1357  0.0674  0.3025
   20SAPC  H16X 2680   5.727   2.705   9.233 -1.3466 -1.9544  0.0809
   20SAPC  H16Y 2681   5.818   2.623   9.106  3.3424  0.9279  0.6243
   20SAPC  C317 2682   5.930   2.666   9.282 -0.0904  0.5534 -0.0076
   20SAPC  H17X 2683   6.002   2.586   9.253 -0.8646 -0.4404  0.7148
   20SAPC  H17Y 2684   5.914   2.653   9.391 -1.1675  1.0167 -0.1002
   20SAPC  C318 2685   5.981   2.804   9.243 -0.0754  0.2201 -0.0847
   20SAPC  H18X 2686   6.072   2.816   9.304  0.5489 -1.3733 -0.6470
   20SAPC  H18Y 2687   5.909   2.883   9.275  1.0482  1.4099 -0.4136
   20SAPC  H18Z 2688   6.016   2.814   9.138  0.8913 -2.4976 -0.1027
   21SAPC     N 2689   5.427   1.615  11.309 -1.2209  0.0360  0.0962
   21SAPC   C12 2690   5.584   1.592  11.300 -0.5613 -0.5013  0.4526
   21SAPC  H12A 2691   5.613   1.588  11.404  0.5792  0.3953  0.1987
   21SAPC  H12B 2692   5.630   1.679  11.256  1.1320 -1.6709 -0.1765
   21SAPC   C13 2693   5.405   1.727  11.405 -0.4482  0.2040 -0.2117
   21SAPC  H13A 2694   5.302   1.761  11.404 -0.2241  0.9509 -1.6774
   21SAPC  H13B 2695   5.425   1.706  11.509 -0.2319 -0.9622 -0.4760
   21SAPC  H13C 2696   5.467   1.812  11.379  0.2610  0.3132  1.7042
   21SAPC   C14 2697   5.386   1.649  11.172 -0.3584 -0.6954 -0.1936
   21SAPC  H14A 2698   5.429   1.746  11.152 -0.8077 -0.0724  1.6337
   21SAPC  H14B 2699   5.410   1.563  11.110 -0.4329 -0.2358 -0.8650
   21SAPC  H14C 2700   5.279   1.651  11.160 -0.0828  0.2269 -3.4239
   21SAPC   C15 2701   5.358   1.488  11.368 -0.0423  0.0029 -0.2548
   21SAPC  H15A 2702   5.379   1.406  11.302  1.5181  0.0341  0.1723
   21SAPC  H15B 2703   5.383   1.465  11.471 -2.8669 -0.2633  0.4805
   21SAPC  H15C 2704   5.253   1.513  11.361 -0.1821 -0.1691  0.9499
   21SAPC   C11 2705   5.642   1.466  11.241 -0.8152  0.3385 -0.2377
   21SAPC  H11A 2706   5.631   1.380  11.309  1.1418  0.0317 -0.2597
   21SAPC  H11B 2707   5.752   1.484  11.241 -0.5321 -1.2763 -1.1109
   21SAPC     P 2708   5.538   1.306  11.067 -0.0159  0.2608  0.1193
   21SAPC   O13 2709   5.612   1.193  11.120 -0.2252  0.5644  0.0891
   21SAPC   O14 2710   5.397   1.311  11.111  0.5596 -0.2813 -0.1501
   21SAPC   O12 2711   5.609   1.450  11.098  0.2976  0.1656 -0.1320
   21SAPC   O11 2712   5.537   1.297  10.912  0.4463  0.7519  0.0937
   21SAPC    C1 2713   5.646   1.352  10.843 -0.0329  0.7745 -0.6470
   21SAPC    HA 2714   5.665   1.456  10.877 -2.5785  0.5234  1.9353
   21SAPC    HB 2715   5.740   1.296  10.861 -0.4956  0.1494 -0.1370
   21SAPC    C2 2716   5.602   1.356  10.692 -0.4418 -0.0024 -0.7397
   21SAPC    HS 2717   5.504   1.409  10.693  0.1089  1.2024  3.0373
   21SAPC   O21 2718   5.598   1.225  10.635 -0.0381 -0.4493 -0.1461
   21SAPC   C21 2719   5.490   1.190  10.565  0.1959 -0.6777  0.0955
   21SAPC   O22 2720   5.399   1.269  10.550  0.1589  0.2495  0.6333
   21SAPC   C22 2721   5.510   1.057  10.487 -0.3531 -0.4854  1.1304
   21SAPC   H2R 2722   5.538   1.083  10.382  2.0104  0.4330  1.9172
   21SAPC   H2S 2723   5.599   1.002  10.523  0.7835  0.7962  0.3881
   21SAPC    C3 2724   5.703   1.438  10.610  0.8274 -0.8752  0.4951
   21SAPC    HX 2725   5.795   1.376  10.610 -0.2873 -2.6589  2.4767
   21SAPC    HY 2726   5.715   1.530  10.670 -0.6066 -0.4561  0.1787
   21SAPC   O31 2727   5.655   1.460  10.475  0.7220  0.5779 -0.4986
   21SAPC   C31 2728   5.549   1.535  10.460 -0.3534 -0.5174  0.3010
   21SAPC   O32 2729   5.500   1.615  10.537 -0.6648  0.2723  0.0496
   21SAPC   C32 2730   5.505   1.515  10.310  0.0260  0.1448  0.4676
   21SAPC   H2X 2731   5.438   1.428  10.321  1.6178 -1.0315  1.3632
   21SAPC   H2Y 2732   5.596   1.479  10.258 -1.0417 -1.3600 -0.4169
   21SAPC   C23 2733   5.389   0.967  10.485  0.0738 -0.7768  0.7333
   21SAPC   H3R 2734   5.297   1.019  10.451  0.5914 -0.0555  0.3921
   21SAPC   H3S 2735   5.374   0.922  10.585  0.1496  0.9233  1.5566
   21SAPC   C24 2736   5.422   0.849  10.378  0.5028  0.8102  0.4742
   21SAPC   H4R 2737   5.369   0.759  10.416 -0.8230  1.8939  1.3143
   21SAPC   H4S 2738   5.527   0.824  10.401  0.1582  0.6772  2.0640
   21SAPC   C25 2739   5.399   0.901  10.235 -0.5161  0.0004  0.6000
   21SAPC   H5R 2740   5.355   1.001  10.226 -0.9634 -0.1524  1.0255
   21SAPC   C26 2741   5.444   0.853  10.120 -1.0692 -0.3961 -0.4527
   21SAPC   H6R 2742   5.419   0.901  10.024  1.2787  0.5697 -0.6443
   21SAPC   C27 2743   5.526   0.726  10.114  0.4031  0.2722 -0.6446
   21SAPC   H7R 2744   5.471   0.656  10.048 -1.0123  0.8696 -0.1250
   21SAPC   H7S 2745   5.542   0.674  10.211  1.5132 -0.4421 -1.1837
   21SAPC   C28 2746   5.661   0.750  10.062  0.0587  0.8443  1.0023
   21SAPC   H8R 2747   5.746   0.744  10.131  0.7382  1.1700  0.2125
   21SAPC   C29 2748   5.694   0.780   9.933 -0.1050 -0.2321  0.1766
   21SAPC   H9R 2749   5.800   0.789   9.905  0.6615 -0.1530  2.8047
   21SAPC  C210 2750   5.598   0.805   9.827  0.2365 -0.5357 -0.4794
   21SAPC  H10R 2751   5.559   0.909   9.833  1.9293  0.0649  3.0530
   21SAPC  H10S 2752   5.509   0.742   9.846  0.4905 -0.8139 -0.2046
   21SAPC  C211 2753   5.638   0.760   9.689 -0.0118  0.2100 -0.4211
   21SAPC  H11R 2754   5.697   0.667   9.691 -3.3707 -2.0787  2.1681
   21SAPC  C212 2755   5.590   0.818   9.581  0.1798  0.1831 -0.0680
   21SAPC  H12R 2756   5.618   0.780   9.481  3.0449  3.8509 -0.8704
   21SAPC  C213 2757   5.495   0.930   9.569 -0.3910 -0.3481  0.4990
   21SAPC  H13R 2758   5.432   0.948   9.659 -0.4054 -1.4958  0.7329
   21SAPC  H13S 2759   5.419   0.919   9.489 -0.4472  0.0736  0.4900
   21SAPC  C214 2760   5.581   1.050   9.536  0.2032 -0.0066 -0.2940
   21SAPC  H14R 2761   5.619   1.097   9.628  0.9383  1.2140 -1.1928
   21SAPC  C215 2762   5.598   1.102   9.413  0.2481 -0.3746  0.2401
   21SAPC  H15R 2763   5.671   1.184   9.402 -0.8836  0.7471  0.8360
   21SAPC  C216 2764   5.537   1.050   9.280 -0.2845  0.5286 -0.4652
   21SAPC  H16R 2765   5.453   1.119   9.258 -1.0331 -0.0857  0.3818
   21SAPC  H16S 2766   5.473   0.960   9.294 -0.6258  0.8388  0.0262
   21SAPC  C217 2767   5.631   1.037   9.167  0.2831  0.3688  0.1098
   21SAPC  H17R 2768   5.695   0.950   9.193 -1.0742  0.1593  3.0840
   21SAPC  H17S 2769   5.699   1.126   9.161 -1.3835  1.9172  2.5415
   21SAPC  C218 2770   5.555   1.017   9.032  0.2676 -0.0154 -0.6485
   21SAPC  H18R 2771   5.515   1.120   9.016  1.7697  0.3714 -2.2199
   21SAPC  H18S 2772   5.471   0.945   9.036 -0.8967  1.2803 -0.7868
   21SAPC  C219 2773   5.648   0.972   8.909  0.4868 -0.2842 -0.5437
   21SAPC  H19R 2774   5.569   0.972   8.831  0.5240  2.4255 -0.6817
   21SAPC  H19S 2775   5.685   0.868   8.920  1.1562 -0.0436 -0.4486
   21SAPC  C220 2776   5.750   1.075   8.869 -0.0827  0.0349  0.2507
   21SAPC  H20R 2777   5.703   1.162   8.820 -0.0072  0.1599  0.4010
   21SAPC  H20S 2778   5.819   1.027   8.796  1.9482 -0.6442  2.4535
   21SAPC  H20T 2779   5.806   1.119   8.955  0.0783  0.3419 -0.0077
   21SAPC   C33 2780   5.445   1.636  10.240  0.1465 -0.3997  0.6149
   21SAPC   H3X 2781   5.522   1.717  10.239 -0.2510 -0.0132  0.7410
   21SAPC   H3Y 2782   5.352   1.673  10.290 -1.2885 -2.4794 -0.4189
   21SAPC   C34 2783   5.389   1.606  10.099  0.4395 -0.5693  0.0638
   21SAPC   H4X 2784   5.321   1.518  10.095  0.7032 -0.7316 -1.3630
   21SAPC   H4Y 2785   5.478   1.564  10.048  1.5851 -0.5035  1.9183
   21SAPC   C35 2786   5.338   1.730  10.021 -0.6062  0.3971 -0.3515
   21SAPC   H5X 2787   5.417   1.808  10.026 -0.1295 -0.0450 -0.8464
   21SAPC   H5Y 2788   5.242   1.768  10.063  0.0770  1.8322 -0.0271
   21SAPC   C36 2789   5.321   1.702   9.867  0.4144  0.8211  0.3676
   21SAPC   H6X 2790   5.423   1.672   9.837  1.4520  1.7971  2.7142
   21SAPC   H6Y 2791   5.276   1.795   9.825  0.0656  0.0701 -0.9917
   21SAPC   C37 2792   5.215   1.597   9.835  0.1548  0.2837 -0.5487
   21SAPC   H7X 2793   5.125   1.611   9.899 -0.5215 -1.6750 -0.9813
   21SAPC   H7Y 2794   5.258   1.497   9.858  0.5795  0.3441 -1.0552
   21SAPC   C38 2795   5.169   1.601   9.688  0.3204  0.3844  0.1845
   21SAPC   H8X 2796   5.155   1.704   9.648 -2.3467 -0.5360 -1.5856
   21SAPC   H8Y 2797   5.064   1.566   9.687  1.0631 -2.0183 -1.5550
   21SAPC   C39 2798   5.260   1.527   9.596  0.0861  0.6111 -0.1808
   21SAPC   H9X 2799   5.266   1.424   9.637  1.3264  1.2210  1.2684
   21SAPC   H9Y 2800   5.355   1.584   9.601  0.1093  0.6556 -1.0843
   21SAPC  C310 2801   5.202   1.528   9.451 -0.1451 -0.1230 -0.1155
   21SAPC  H10X 2802   5.168   1.630   9.423  1.6415  1.0421  1.6203
   21SAPC  H10Y 2803   5.117   1.457   9.453  0.3929 -0.7797 -0.2645
   21SAPC  C311 2804   5.316   1.485   9.356 -0.3538 -0.7152  0.1512
   21SAPC  H11X 2805   5.276   1.438   9.264  0.7888  0.6948 -1.1173
   21SAPC  H11Y 2806   5.376   1.408   9.408 -0.8073 -0.1419  1.5712
   21SAPC  C312 2807   5.403   1.601   9.321 -0.0342  0.2267  1.2099
   21SAPC  H12X 2808   5.488   1.605   9.392  0.1148 -0.6403  1.0835
   21SAPC  H12Y 2809   5.340   1.692   9.309  0.2638  0.2127 -0.8251
   21SAPC  C313 2810   5.478   1.571   9.195  0.2552 -0.3246  0.5854
   21SAPC  H13X 2811   5.541   1.652   9.151  0.8857 -0.4390  1.2661
   21SAPC  H13Y 2812   5.397   1.556   9.121 -0.3058  1.8600  0.6728
   21SAPC  C314 2813   5.564   1.443   9.195 -1.1102 -0.0691  1.5332
   21SAPC  H14X 2814   5.507   1.349   9.209 -0.5701 -0.5773  0.4854
   21SAPC  H14Y 2815   5.639   1.457   9.276 -0.1446  0.5800  0.5583
   21SAPC  C315 2816   5.646   1.419   9.068 -0.0537  0.2664  0.4368
   21SAPC  H15X 2817   5.577   1.421   8.981  0.8206  1.6722 -0.2475
   21SAPC  H15Y 2818   5.685   1.315   9.070  0.0043  0.2963  1.2179
   21SAPC  C316 2819   5.777   1.502   9.047 -0.0483  0.3526  0.1039
   21SAPC  H16X 2820   5.850   1.499   9.131  1.6173  2.9290 -1.1153
   21SAPC  H16Y 2821   5.747   1.609   9.039  1.1191  0.5447 -2.8123
   21SAPC  C317 2822   5.845   1.477   8.913 -0.1297  0.6610  1.0993
   21SAPC  H17X 2823   5.778   1.499   8.828  0.0369 -3.0807 -0.1668
   21SAPC  H17Y 2824   5.864   1.368   8.912 -2.2659  0.2363 -1.0866
   21SAPC  C318 2825   5.976   1.557   8.886 -0.0955  0.6488 -0.4375
   21SAPC  H18X 2826   6.020   1.519   8.791 -1.4945 -0.4207 -0.6852
   21SAPC  H18Y 2827   6.050   1.534   8.965 -1.7682 -1.9210  0.5146
   21SAPC  H18Z 2828   5.944   1.663   8.890 -3.6053 -0.3309  0.6871
   22SAPC     N 2829   5.578   6.454  11.380  0.2967 -0.0667  0.5691
   22SAPC   C12 2830   5.550   6.391  11.248 -0.0397  0.8191  0.1328
   22SAPC  H12A 2831   5.457   6.336  11.247  0.4289 -0.1372  2.6274
   22SAPC  H12B 2832   5.624   6.315  11.229 -1.2329 -0.2502 -0.4155
   22SAPC   C13 2833   5.469   6.550  11.418 -0.0872  0.5212  0.0415
   22SAPC  H13A 2834   5.417   6.574  11.326 -0.6774 -3.2976 -0.7896
   22SAPC  H13B 2835   5.397   6.501  11.481  0.9757  0.3003  1.1212
   22SAPC  H13C 2836   5.511   6.636  11.468  0.3696  0.4406 -0.2002
   22SAPC   C14 2837   5.602   6.349  11.478 -0.3208  0.4377 -0.2216
   22SAPC  H14A 2838   5.689   6.285  11.465 -1.3109 -0.8430 -0.6971
   22SAPC  H14B 2839   5.613   6.395  11.575  0.2041 -0.4791  0.1757
   22SAPC  H14C 2840   5.511   6.292  11.485 -0.9032  1.3907  0.0376
   22SAPC   C15 2841   5.701   6.543  11.378  0.4802 -0.4969  0.4672
   22SAPC  H15A 2842   5.789   6.483  11.363  1.1907  0.7861 -0.7686
   22SAPC  H15B 2843   5.704   6.623  11.305  3.1055  2.5003  3.4902
   22SAPC  H15C 2844   5.708   6.605  11.466 -0.1475  0.8999 -0.4241
   22SAPC   C11 2845   5.554   6.486  11.126 -0.3690 -0.3662 -0.5610
   22SAPC  H11A 2846   5.561   6.409  11.046  1.2922 -2.6995  1.6647
   22SAPC  H11B 2847   5.643   6.553  11.122  0.7255 -1.8425 -1.9821
   22SAPC     P 2848   5.399   6.673  11.015  0.0223  0.1181  0.2867
   22SAPC   O13 2849   5.254   6.673  10.991  0.5013  0.1171  0.4836
   22SAPC   O14 2850   5.456   6.797  11.069 -0.1449  0.1015  0.0639
   22SAPC   O12 2851   5.428   6.560  11.117  0.5782 -0.2626  0.0881
   22SAPC   O11 2852   5.481   6.644  10.881  0.8180 -0.2466  0.2099
   22SAPC    C1 2853   5.462   6.519  10.806 -0.0898 -0.1034 -0.2885
   22SAPC    HA 2854   5.557   6.461  10.806  1.1811  1.8905 -1.0607
   22SAPC    HB 2855   5.385   6.456  10.855  1.8405 -1.4207  1.2314
   22SAPC    C2 2856   5.428   6.535  10.656 -0.2297 -0.6135  0.2175
   22SAPC    HS 2857   5.381   6.443  10.613 -2.0736  0.1817  0.4333
   22SAPC   O21 2858   5.536   6.591  10.566  0.4405 -0.1481 -0.0839
   22SAPC   C21 2859   5.609   6.493  10.513 -0.2372  0.1779 -0.1301
   22SAPC   O22 2860   5.587   6.372  10.526  0.4769  0.0683 -0.0935
   22SAPC   C22 2861   5.743   6.542  10.477  0.1753  0.7498  0.3001
   22SAPC   H2R 2862   5.766   6.637  10.530  2.2317 -0.4395  1.6567
   22SAPC   H2S 2863   5.806   6.470  10.533  0.7399  0.7592 -0.3073
   22SAPC    C3 2864   5.308   6.642  10.653  0.5428 -0.1354 -0.4253
   22SAPC    HX 2865   5.333   6.730  10.716 -0.2628 -1.4031  1.8080
   22SAPC    HY 2866   5.220   6.598  10.704 -0.9410  0.0154 -2.7197
   22SAPC   O31 2867   5.286   6.677  10.521  0.1837  0.1680  0.2788
   22SAPC   C31 2868   5.205   6.600  10.455 -0.5111  0.5789  0.3008
   22SAPC   O32 2869   5.163   6.495  10.489  0.0577 -0.4008  0.1325
   22SAPC   C32 2870   5.154   6.668  10.335 -0.4939  0.2249  0.3158
   22SAPC   H2X 2871   5.233   6.727  10.282 -3.8572  3.1296 -1.8975
   22SAPC   H2Y 2872   5.071   6.733  10.368  0.2954  1.9345 -0.8925
   22SAPC   C23 2873   5.762   6.544  10.322  0.0079  0.6075  0.5408
   22SAPC   H3R 2874   5.719   6.457  10.268  1.7073  1.1193 -1.8044
   22SAPC   H3S 2875   5.869   6.552  10.297 -0.2845  1.4268 -0.5439
   22SAPC   C24 2876   5.707   6.671  10.255 -0.0734  0.1670 -0.4109
   22SAPC   H4R 2877   5.753   6.684  10.155 -1.6948  1.6585 -1.0291
   22SAPC   H4S 2878   5.754   6.749  10.319  1.4974  1.1894 -2.6662
   22SAPC   C25 2879   5.554   6.673  10.251  0.2850 -0.3485 -0.3222
   22SAPC   H5R 2880   5.503   6.708  10.342  2.0549 -0.3912  0.7230
   22SAPC   C26 2881   5.485   6.627  10.146  0.5835 -0.1114  0.0393
   22SAPC   H6R 2882   5.376   6.642  10.138  0.3315 -1.6995  0.1209
   22SAPC   C27 2883   5.537   6.569  10.018 -0.3068  0.3953 -0.2230
   22SAPC   H7R 2884   5.449   6.517   9.975 -1.1981 -0.8078  2.7990
   22SAPC   H7S 2885   5.610   6.490  10.046 -0.8075 -0.1907 -0.5342
   22SAPC   C28 2886   5.602   6.667   9.935  0.3491 -0.5722  1.0752
   22SAPC   H8R 2887   5.648   6.751   9.989  0.2851  0.2211 -0.0820
   22SAPC   C29 2888   5.616   6.663   9.795 -0.3737 -0.6982 -0.7811
   22SAPC   H9R 2889   5.679   6.742   9.752 -0.4452  0.9029  1.7860
   22SAPC  C210 2890   5.563   6.555   9.708  0.1665 -0.5687  0.2994
   22SAPC  H10R 2891   5.562   6.453   9.751 -1.5138  0.5346  3.1095
   22SAPC  H10S 2892   5.642   6.536   9.631  0.5560  0.8104  0.3346
   22SAPC  C211 2893   5.424   6.590   9.648 -0.6840 -0.1145  0.2712
   22SAPC  H11R 2894   5.345   6.556   9.715  1.7741 -2.6404  2.1011
   22SAPC  C212 2895   5.392   6.636   9.518 -0.2425  0.0337  0.0355
   22SAPC  H12R 2896   5.290   6.663   9.487  0.2246 -0.3707 -2.0075
   22SAPC  C213 2897   5.486   6.666   9.409 -0.0587  0.3876  0.0415
   22SAPC  H13R 2898   5.574   6.718   9.453  0.8217 -1.3377  0.4575
   22SAPC  H13S 2899   5.439   6.747   9.350 -1.0376 -1.4679 -1.8609
   22SAPC  C214 2900   5.530   6.552   9.314 -0.0888  0.6882  0.9116
   22SAPC  H14R 2901   5.480   6.456   9.331 -1.1790  1.1147  0.2766
   22SAPC  C215 2902   5.627   6.571   9.220  0.6846  0.3312 -0.3617
   22SAPC  H15R 2903   5.647   6.485   9.154 -2.2324 -1.9122  1.3863
   22SAPC  C216 2904   5.702   6.696   9.190 -0.4066  0.4766  0.3517
   22SAPC  H16R 2905   5.801   6.681   9.142 -0.5282 -1.1404  0.5361
   22SAPC  H16S 2906   5.714   6.752   9.285  3.5622 -0.6926  0.7220
   22SAPC  C217 2907   5.625   6.782   9.085  0.9249  0.5674  0.1876
   22SAPC  H17R 2908   5.688   6.872   9.066  0.2441  0.9918 -0.1051
   22SAPC  H17S 2909   5.528   6.807   9.133  0.4461 -0.6746 -0.1082
   22SAPC  C218 2910   5.606   6.700   8.953  0.6189  0.2010  0.2965
   22SAPC  H18R 2911   5.550   6.609   8.985  1.0063  0.2424  1.1300
   22SAPC  H18S 2912   5.700   6.693   8.893 -0.0439  1.0549 -0.8729
   22SAPC  C219 2913   5.508   6.771   8.860  0.3710  0.5214 -0.0480
   22SAPC  H19R 2914   5.421   6.805   8.920  0.9009 -0.0570  1.0739
   22SAPC  H19S 2915   5.478   6.695   8.784 -0.2268  1.8363 -1.1858
   22SAPC  C220 2916   5.564   6.889   8.780 -0.0095  0.6987 -0.4878
   22SAPC  H20R 2917   5.637   6.841   8.711 -1.1608 -0.0621 -1.2196
   22SAPC  H20S 2918   5.602   6.966   8.850 -0.2488 -0.5048  1.0089
   22SAPC  H20T 2919   5.475   6.927   8.725 -0.7697 -1.3985 -0.8072
   22SAPC   C33 2920   5.098   6.555  10.241  0.4587 -0.0451  0.5198
   22SAPC   H3X 2921   5.004   6.502  10.267 -0.0770  0.2502 -0.7197
   22SAPC   H3Y 2922   5.171   6.472  10.235 -0.3214 -0.7207  0.1617
   22SAPC   C34 2923   5.079   6.609  10.098 -0.4608  0.7444 -0.2485
   22SAPC   H4X 2924   5.062   6.515  10.040  0.4888 -0.1863  0.9298
   22SAPC   H4Y 2925   5.172   6.657  10.059 -0.6785 -0.5247 -2.5459
   22SAPC   C35 2926   4.952   6.694  10.082  0.2231  0.4198 -0.1037
   22SAPC   H5X 2927   4.966   6.799  10.116  2.1028  0.5121 -1.0515
   22SAPC   H5Y 2928   4.864   6.652  10.136 -0.2262 -0.4867 -1.4955
   22SAPC   C36 2929   4.897   6.692   9.942  0.4371  0.5253 -0.0670
   22SAPC   H6X 2930   4.803   6.751   9.932 -0.1700 -0.5206 -0.6854
   22SAPC   H6Y 2931   4.870   6.592   9.902  0.6402  0.3300  0.2831
   22SAPC   C37 2932   4.991   6.763   9.845 -0.1212 -0.7424 -0.6646
   22SAPC   H7X 2933   5.075   6.693   9.823 -0.3496 -1.4721  0.7282
   22SAPC   H7Y 2934   5.026   6.865   9.872  0.4050 -0.7693 -1.2124
   22SAPC   C38 2935   4.921   6.782   9.711  0.2055 -0.0437 -0.5098
   22SAPC   H8X 2936   4.848   6.865   9.710  0.1626 -0.0619 -2.4680
   22SAPC   H8Y 2937   4.867   6.688   9.686  0.6182 -0.4192 -0.0177
   22SAPC   C39 2938   5.023   6.804   9.602 -0.0373  0.5124  0.0842
   22SAPC   H9X 2939   5.089   6.716   9.590 -2.1813 -0.9689 -1.7082
   22SAPC   H9Y 2940   5.086   6.887   9.642 -0.1737  0.1701  1.0240
   22SAPC  C310 2941   4.953   6.808   9.459 -0.1274  0.9911  0.6965
   22SAPC  H10X 2942   4.887   6.897   9.466 -0.5171  0.6495  1.5067
   22SAPC  H10Y 2943   4.885   6.722   9.442  0.7143  0.7447 -1.7037
   22SAPC  C311 2944   5.053   6.816   9.346 -0.6232  0.0553  0.0407
   22SAPC  H11X 2945   5.146   6.764   9.376 -0.3497  0.9142  0.7151
   22SAPC  H11Y 2946   5.079   6.924   9.336 -0.2739 -0.2344 -3.9676
   22SAPC  C312 2947   4.993   6.759   9.218  0.2842  0.0237 -0.1251
   22SAPC  H12X 2948   4.893   6.806   9.214  0.0757  0.0971  3.1974
   22SAPC  H12Y 2949   4.967   6.655   9.247 -1.8603  0.4515 -0.3336
   22SAPC  C313 2950   5.077   6.775   9.093  0.1914  0.0289 -0.7131
   22SAPC  H13X 2951   5.180   6.733   9.100 -0.2933 -1.3228 -1.2673
   22SAPC  H13Y 2952   5.079   6.884   9.074  1.0083  0.0888 -0.3577
   22SAPC  C314 2953   5.008   6.713   8.969 -0.7820 -0.1693 -0.2279
   22SAPC  H14X 2954   4.901   6.744   8.968 -1.7218 -3.1335 -1.0071
   22SAPC  H14Y 2955   5.011   6.603   8.979  1.0459 -0.3251 -1.9937
   22SAPC  C315 2956   5.088   6.754   8.835 -0.3947  0.2136  0.1472
   22SAPC  H15X 2957   5.045   6.684   8.760  1.6230 -1.5693  0.5456
   22SAPC  H15Y 2958   5.198   6.743   8.846 -0.3801  1.2049  1.1443
   22SAPC  C316 2959   5.052   6.899   8.802 -0.0028 -0.3263 -0.1919
   22SAPC  H16X 2960   5.129   6.968   8.843  0.5527 -0.8280 -0.3816
   22SAPC  H16Y 2961   4.957   6.924   8.855  0.1643 -2.9330  1.5304
   22SAPC  C317 2962   5.028   6.928   8.656  0.3640 -0.8124 -0.1402
   22SAPC  H17X 2963   4.950   6.858   8.617  0.8927 -3.3168  2.8802
   22SAPC  H17Y 2964   5.120   6.896   8.603  0.4975 -1.6020  0.5305
   22SAPC  C318 2965   4.998   7.075   8.620 -0.2441  0.5269  0.6007
   22SAPC  H18X 2966   4.896   7.090   8.662 -0.8027 -1.8468  0.2558
   22SAPC  H18Y 2967   4.994   7.094   8.510 -1.0644  0.4053  0.5994
   22SAPC  H18Z 2968   5.078   7.129   8.674  2.5876 -1.5579 -1.2192
   23SAPC     N 2969   0.427   1.333  11.352  0.4309  0.1751 -0.0808
   23SAPC   C12 2970   0.498   1.198  11.376 -0.5364  0.3818 -0.1622
   23SAPC  H12A 2971   0.440   1.149  11.453 -0.1734  0.6401  0.2831
   23SAPC  H12B 2972   0.595   1.207  11.424 -0.2940 -0.2287 -0.5227
   23SAPC   C13 2973   0.500   1.392  11.238  0.6697 -0.2245  0.2798
   23SAPC  H13A 2974   0.607   1.394  11.243  0.6322 -0.6041  1.5523
   23SAPC  H13B 2975   0.478   1.332  11.151  2.4513 -1.7898  0.8510
   23SAPC  H13C 2976   0.459   1.490  11.218  0.0309 -0.0505  2.2446
   23SAPC   C14 2977   0.285   1.304  11.318  0.0585  0.6484  0.5000
   23SAPC  H14A 2978   0.239   1.399  11.295 -1.1518 -0.4338 -1.9097
   23SAPC  H14B 2979   0.268   1.249  11.226 -0.7111  2.0597 -0.2421
   23SAPC  H14C 2980   0.228   1.258  11.398 -0.2103  2.1514  1.1969
   23SAPC   C15 2981   0.426   1.411  11.480 -0.1454  0.7162 -0.1935
   23SAPC  H15A 2982   0.360   1.366  11.553  0.4231  1.2507  0.6628
   23SAPC  H15B 2983   0.529   1.416  11.511  0.0132 -1.6831 -0.2024
   23SAPC  H15C 2984   0.382   1.508  11.463 -0.3881  0.9159  1.4494
   23SAPC   C11 2985   0.516   1.105  11.258 -0.2968 -0.1299  0.3108
   23SAPC  H11A 2986   0.576   1.021  11.299 -0.3016 -0.0610  0.4621
   23SAPC  H11B 2987   0.578   1.151  11.178 -0.3657 -1.7360 -0.6943
   23SAPC     P 2988   0.356   1.072  11.048  0.3910 -0.3345 -0.1016
   23SAPC   O13 2989   0.297   0.942  10.995 -0.2827 -0.1287  0.2960
   23SAPC   O14 2990   0.274   1.196  11.041  0.2434 -0.0151  0.3112
   23SAPC   O12 2991   0.394   1.050  11.199 -0.2035 -1.2051 -0.4454
   23SAPC   O11 2992   0.488   1.101  10.964  0.3337 -0.4047  0.0059
   23SAPC    C1 2993   0.557   1.003  10.880  0.4978  0.1047  0.1766
   23SAPC    HA 2994   0.649   0.972  10.933  1.8077  0.6343 -1.7052
   23SAPC    HB 2995   0.488   0.916  10.873  0.9204 -0.4431  2.2275
   23SAPC    C2 2996   0.593   1.053  10.742  0.3709  0.2119  0.1156
   23SAPC    HS 2997   0.632   1.157  10.749  0.6157  0.0084  3.1951
   23SAPC   O21 2998   0.468   1.046  10.667  0.6698 -0.1593  0.1278
   23SAPC   C21 2999   0.386   1.155  10.664  0.2107  0.0800  0.3216
   23SAPC   O22 3000   0.407   1.258  10.724  0.0609 -0.0868 -0.2674
   23SAPC   C22 3001   0.306   1.151  10.532  0.3054 -0.1466 -0.2071
   23SAPC   H2R 3002   0.372   1.166  10.444  0.7246 -0.8568 -0.0195
   23SAPC   H2S 3003   0.250   1.056  10.522  1.0262 -0.9673  2.6885
   23SAPC    C3 3004   0.696   0.971  10.657  0.2562 -0.0558 -0.0401
   23SAPC    HX 3005   0.659   0.866  10.660 -3.5106  1.1512  2.3157
   23SAPC    HY 3006   0.793   0.978  10.712  0.0334 -1.7427  0.6267
   23SAPC   O31 3007   0.701   1.030  10.528 -0.2475 -0.2306 -0.3082
   23SAPC   C31 3008   0.816   1.053  10.473 -0.1998 -0.1710 -0.2917
   23SAPC   O32 3009   0.924   1.038  10.530  0.3552  0.4415  0.1393
   23SAPC   C32 3010   0.798   1.133  10.346 -0.2767 -0.5825  0.9976
   23SAPC   H2X 3011   0.734   1.220  10.373  0.7141  0.4581  0.0510
   23SAPC   H2Y 3012   0.755   1.068  10.267  1.9264 -0.2134 -0.5821
   23SAPC   C23 3013   0.189   1.253  10.539 -0.3168  0.1790  0.4658
   23SAPC   H3R 3014   0.143   1.257  10.640 -0.2793  1.5164  0.4480
   23SAPC   H3S 3015   0.108   1.223  10.470 -0.4525 -0.6528  0.9795
   23SAPC   C24 3016   0.238   1.395  10.519  0.5426  0.1306  0.6687
   23SAPC   H4R 3017   0.331   1.414  10.577  0.0140  0.2732  1.4955
   23SAPC   H4S 3018   0.164   1.467  10.559 -0.3585 -0.7634  0.6687
   23SAPC   C25 3019   0.247   1.419  10.370 -0.7626 -0.1491 -0.1249
   23SAPC   H5R 3020   0.150   1.412  10.319 -1.9347  1.3125  1.8098
   23SAPC   C26 3021   0.356   1.448  10.292 -0.4172 -0.4312  0.3649
   23SAPC   H6R 3022   0.339   1.472  10.186 -0.5557 -1.7775  0.0603
   23SAPC   C27 3023   0.497   1.481  10.342  0.0007 -0.3193  0.0134
   23SAPC   H7R 3024   0.539   1.405  10.410  0.8537  0.2970  0.1848
   23SAPC   H7S 3025   0.494   1.579  10.395 -0.6954 -0.6288  0.5675
   23SAPC   C28 3026   0.594   1.486  10.226 -0.0060  0.3754 -0.0464
   23SAPC   H8R 3027   0.632   1.383  10.215 -1.0462 -0.0837  0.5277
   23SAPC   C29 3028   0.650   1.590  10.164  0.1270  0.9697 -0.3557
   23SAPC   H9R 3029   0.702   1.578  10.068 -1.9949  2.8497 -1.8478
   23SAPC  C210 3030   0.629   1.737  10.196  0.9737  0.5279  0.4264
   23SAPC  H10R 3031   0.683   1.748  10.292 -1.0808 -2.1509  2.0180
   23SAPC  H10S 3032   0.521   1.761  10.205  1.0064  1.6263 -1.5724
   23SAPC  C211 3033   0.680   1.837  10.103 -0.0037  0.1246  0.9073
   23SAPC  H11R 3034   0.738   1.916  10.151  3.5381  0.0292 -2.7658
   23SAPC  C212 3035   0.636   1.859   9.979  0.6533  0.0620  0.7963
   23SAPC  H12R 3036   0.689   1.944   9.935 -0.3265  0.9842  1.3716
   23SAPC  C213 3037   0.536   1.786   9.887  0.1778  0.5108  0.0847
   23SAPC  H13R 3038   0.437   1.833   9.902 -0.1919 -0.2812  0.2107
   23SAPC  H13S 3039   0.501   1.690   9.932 -1.2504  1.6038  1.3900
   23SAPC  C214 3040   0.576   1.773   9.746  0.3457 -0.2095 -0.0501
   23SAPC  H14R 3041   0.680   1.801   9.719  0.5009 -2.4221 -2.0390
   23SAPC  C215 3042   0.501   1.728   9.653  0.0983  0.0153  0.7015
   23SAPC  H15R 3043   0.544   1.735   9.552 -1.5450  0.5322  0.0008
   23SAPC  C216 3044   0.359   1.667   9.652  0.0330  1.1442 -0.1076
   23SAPC  H16R 3045   0.277   1.741   9.668  0.2649  1.5213 -0.6426
   23SAPC  H16S 3046   0.348   1.599   9.739 -0.0806  1.4655  0.1317
   23SAPC  C217 3047   0.332   1.592   9.518 -0.1399 -0.0946  0.3167
   23SAPC  H17R 3048   0.398   1.502   9.517  1.6506  1.0970  2.5726
   23SAPC  H17S 3049   0.354   1.660   9.433  0.9324  0.3992  0.9716
   23SAPC  C218 3050   0.191   1.534   9.508 -0.0167 -0.2126 -0.3813
   23SAPC  H18R 3051   0.112   1.612   9.512  0.0547 -0.0749 -1.5055
   23SAPC  H18S 3052   0.171   1.463   9.591  0.2663  0.7819  0.5718
   23SAPC  C219 3053   0.167   1.475   9.374 -0.0408 -0.5374 -0.0548
   23SAPC  H19R 3054   0.229   1.383   9.367  2.5608  1.0901  0.6977
   23SAPC  H19S 3055   0.195   1.542   9.290  0.6600 -1.7054 -0.7911
   23SAPC  C220 3056   0.014   1.438   9.352  0.2301 -0.5793 -0.2423
   23SAPC  H20R 3057   0.007   1.385   9.255  0.4013 -0.5474 -0.2718
   23SAPC  H20S 3058  -0.042   1.534   9.355 -0.1309 -0.8120  0.9843
   23SAPC  H20T 3059  -0.026   1.387   9.443  0.9659 -2.4047 -0.9034
   23SAPC   C33 3060   0.930   1.204  10.295 -0.0544 -0.8998  0.1643
   23SAPC   H3X 3061   0.997   1.119  10.272 -0.4614 -1.3057  0.4365
   23SAPC   H3Y 3062   0.965   1.270  10.378 -1.7702  2.2019 -1.3936
   23SAPC   C34 3063   0.914   1.285  10.164 -0.2223 -0.4429 -0.2433
   23SAPC   H4X 3064   1.017   1.296  10.123 -0.0888  0.4394  0.3033
   23SAPC   H4Y 3065   0.877   1.386  10.189  0.8596  0.2460 -1.3058
   23SAPC   C35 3066   0.814   1.242  10.054 -0.6713 -0.1076 -0.7201
   23SAPC   H5X 3067   0.709   1.257  10.090 -0.8121  2.4628 -1.9481
   23SAPC   H5Y 3068   0.830   1.137  10.022  2.2065 -0.1847  0.6472
   23SAPC   C36 3069   0.839   1.308   9.920 -0.4358 -0.7062 -0.0532
   23SAPC   H6X 3070   0.913   1.249   9.863  0.2010 -1.7029  1.7071
   23SAPC   H6Y 3071   0.875   1.412   9.936  0.6832 -1.2081  0.8465
   23SAPC   C37 3072   0.718   1.311   9.834  0.6497 -0.8617  0.2632
   23SAPC   H7X 3073   0.623   1.332   9.887  0.0398 -0.6810 -0.8558
   23SAPC   H7Y 3074   0.708   1.209   9.790 -0.6954 -0.6356  0.0048
   23SAPC   C38 3075   0.733   1.402   9.719  0.1209 -0.2940  0.2379
   23SAPC   H8X 3076   0.825   1.463   9.732 -0.3033 -0.0186  2.3832
   23SAPC   H8Y 3077   0.655   1.482   9.724  2.1193  1.6457  2.6892
   23SAPC   C39 3078   0.730   1.348   9.576  0.6462 -0.3022  0.1682
   23SAPC   H9X 3079   0.647   1.277   9.557  0.4043 -0.1993  0.8286
   23SAPC   H9Y 3080   0.828   1.295   9.565  0.2056 -1.2713  0.8073
   23SAPC  C310 3081   0.716   1.459   9.466 -0.7018  0.4513 -0.4519
   23SAPC  H10X 3082   0.811   1.515   9.465 -0.0860 -0.5485  0.0286
   23SAPC  H10Y 3083   0.630   1.516   9.509  0.3429  0.9952  0.9930
   23SAPC  C311 3084   0.697   1.394   9.328  0.4826 -0.0320 -0.0486
   23SAPC  H11X 3085   0.609   1.328   9.339 -1.0213  1.6656 -1.2129
   23SAPC  H11Y 3086   0.789   1.335   9.313 -1.4895 -3.5359  0.6148
   23SAPC  C312 3087   0.674   1.500   9.224 -0.0223  0.0438  0.1436
   23SAPC  H12X 3088   0.581   1.551   9.257  0.7802  1.9895 -0.4082
   23SAPC  H12Y 3089   0.658   1.454   9.124  0.1593  0.4737 -0.0912
   23SAPC  C313 3090   0.790   1.597   9.208  0.3814 -0.3916 -0.0416
   23SAPC  H13X 3091   0.877   1.528   9.206  1.3106  0.7545  0.0428
   23SAPC  H13Y 3092   0.795   1.663   9.297  1.9751  2.8247 -2.3209
   23SAPC  C314 3093   0.793   1.658   9.071 -0.3835  0.2516 -0.8627
   23SAPC  H14X 3094   0.841   1.757   9.061  1.8815 -0.6775  0.1043
   23SAPC  H14Y 3095   0.686   1.674   9.047 -0.5970  2.5983  1.2309
   23SAPC  C315 3096   0.858   1.565   8.967  0.1431 -0.4294 -0.9308
   23SAPC  H15X 3097   0.815   1.463   8.973 -1.1088  0.1690  1.8524
   23SAPC  H15Y 3098   0.963   1.553   9.000  0.1282  2.2432  0.3359
   23SAPC  C316 3099   0.857   1.617   8.823  0.4012  0.0890 -0.8630
   23SAPC  H16X 3100   0.919   1.552   8.758  1.8886  0.2696  0.3142
   23SAPC  H16Y 3101   0.904   1.717   8.821  1.2893 -0.2114  1.6159
   23SAPC  C317 3102   0.726   1.627   8.743 -0.0131 -0.0901 -0.3837
   23SAPC  H17X 3103   0.653   1.700   8.784  1.3793  0.6703  0.8201
   23SAPC  H17Y 3104   0.686   1.523   8.751  3.0692 -1.6472 -2.8857
   23SAPC  C318 3105   0.745   1.661   8.595  0.0308 -0.5087  0.8017
   23SAPC  H18X 3106   0.785   1.574   8.539  0.3048  1.5790 -2.4973
   23SAPC  H18Y 3107   0.827   1.736   8.595  0.3772 -0.8864  0.8272
   23SAPC  H18Z 3108   0.653   1.701   8.548  1.3039 -0.1552 -1.5434
   24SAPC     N 3109   6.653   2.760  11.405 -0.1309  0.1887  0.3897
   24SAPC   C12 3110   6.593   2.883  11.326 -0.1163  0.2703  0.2342
   24SAPC  H12A 3111   6.574   2.966  11.392  0.1031  1.3815 -1.0589
   24SAPC  H12B 3112   6.494   2.853  11.294  0.1410 -1.5251  0.9830
   24SAPC   C13 3113   6.548   2.711  11.503 -0.2743  0.4591  0.0458
   24SAPC  H13A 3114   6.525   2.792  11.571 -0.2187  0.5128  0.0009
   24SAPC  H13B 3115   6.462   2.673  11.450 -0.2043  0.5837 -0.1604
   24SAPC  H13C 3116   6.577   2.635  11.573  0.0808  1.1408  0.6561
   24SAPC   C14 3117   6.691   2.646  11.311  0.2819 -0.0586 -0.2375
   24SAPC  H14A 3118   6.761   2.578  11.359  0.0285  0.0964  0.3538
   24SAPC  H14B 3119   6.602   2.590  11.287 -0.0494  1.1395 -1.9825
   24SAPC  H14C 3120   6.719   2.684  11.214  0.9818 -0.5240 -0.2277
   24SAPC   C15 3121   6.780   2.792  11.477 -0.0954  1.1729 -0.3234
   24SAPC  H15A 3122   6.811   2.700  11.524 -0.1716  1.4707  0.3144
   24SAPC  H15B 3123   6.858   2.813  11.405 -0.1577 -1.8471 -1.3853
   24SAPC  H15C 3124   6.772   2.883  11.535  0.8581  1.0337  0.0425
   24SAPC   C11 3125   6.683   2.941  11.204  0.7434  0.2186 -0.0263
   24SAPC  H11A 3126   6.788   2.953  11.239  0.9611  1.7882 -1.1146
   24SAPC  H11B 3127   6.638   3.040  11.182 -1.0681 -0.8399 -1.4221
   24SAPC     P 3128   6.549   2.831  11.001  0.0255 -0.1448 -0.1456
   24SAPC   O13 3129   6.573   2.708  10.928  0.9179  0.2836  0.3043
   24SAPC   O14 3130   6.430   2.824  11.086  0.1340 -0.2216  0.0683
   24SAPC   O12 3131   6.683   2.860  11.085 -0.0886  0.1754  0.4280
   24SAPC   O11 3132   6.538   2.958  10.899 -0.4936  0.1351 -0.4800
   24SAPC    C1 3133   6.646   2.983  10.809  0.2209 -0.2364  0.4148
   24SAPC    HA 3134   6.719   2.901  10.795 -1.1811 -1.4558  0.0401
   24SAPC    HB 3135   6.591   2.994  10.714 -0.9408  0.7349  1.1648
   24SAPC    C2 3136   6.719   3.117  10.836  0.4386 -0.4002  0.7185
   24SAPC    HS 3137   6.754   3.118  10.941  0.8948 -1.1135  0.5889
   24SAPC   O21 3138   6.634   3.230  10.811  0.4759 -0.2429  0.0616
   24SAPC   C21 3139   6.633   3.329  10.899  0.3916  0.4522 -0.1134
   24SAPC   O22 3140   6.680   3.328  11.013  0.9075  0.0129 -0.9120
   24SAPC   C22 3141   6.574   3.463  10.847 -0.1565  0.0601  0.3284
   24SAPC   H2R 3142   6.490   3.497  10.910 -0.5159 -0.2453  0.0250
   24SAPC   H2S 3143   6.651   3.541  10.865 -0.9740  0.7464  0.8718
   24SAPC    C3 3144   6.847   3.129  10.740 -0.2076 -0.2660 -0.3383
   24SAPC    HX 3145   6.915   3.053  10.784 -1.0935 -0.3930  0.8599
   24SAPC    HY 3146   6.891   3.230  10.754  1.2332 -0.4069 -3.1562
   24SAPC   O31 3147   6.806   3.100  10.599 -0.0457 -0.0953  0.3637
   24SAPC   C31 3148   6.813   3.210  10.523 -0.6366  0.6214  0.2150
   24SAPC   O32 3149   6.871   3.313  10.547  0.0562 -0.7306 -0.0702
   24SAPC   C32 3150   6.743   3.186  10.391  0.3039  0.4564  0.0261
   24SAPC   H2X 3151   6.677   3.272  10.369 -0.6483 -0.4410 -0.7778
   24SAPC   H2Y 3152   6.671   3.102  10.405  3.1650 -1.8970  1.9582
   24SAPC   C23 3153   6.552   3.465  10.695  0.1692  0.2486  0.7165
   24SAPC   H3R 3154   6.488   3.375  10.681  1.1545 -0.0704 -2.4211
   24SAPC   H3S 3155   6.644   3.442  10.639 -0.5347  1.0814 -0.8214
   24SAPC   C24 3156   6.496   3.599  10.645 -0.2625 -0.3230 -0.4973
   24SAPC   H4R 3157   6.511   3.587  10.535  1.4451 -1.8701 -0.1480
   24SAPC   H4S 3158   6.560   3.675  10.693  0.7940 -1.4764 -0.0300
   24SAPC   C25 3159   6.356   3.623  10.683  0.2853 -0.4910 -0.6054
   24SAPC   H5R 3160   6.320   3.561  10.766 -0.4292 -0.3460 -0.8066
   24SAPC   C26 3161   6.265   3.700  10.620  0.3581  0.6788 -0.0264
   24SAPC   H6R 3162   6.160   3.709  10.650 -0.1040 -1.5181 -0.7686
   24SAPC   C27 3163   6.289   3.775  10.497  0.3415  0.2583 -0.2109
   24SAPC   H7R 3164   6.398   3.799  10.492  0.9671 -2.2480  0.0803
   24SAPC   H7S 3165   6.225   3.866  10.501 -1.8203 -1.1085 -1.7165
   24SAPC   C28 3166   6.272   3.695  10.372  0.6155  0.3682  0.0622
   24SAPC   H8R 3167   6.295   3.588  10.379  2.1263  0.5119 -1.8174
   24SAPC   C29 3168   6.230   3.738  10.254 -0.4458  0.4291  0.3688
   24SAPC   H9R 3169   6.211   3.670  10.169  1.6044  0.8411 -0.5021
   24SAPC  C210 3170   6.204   3.880  10.230 -0.0276  0.0229  0.1760
   24SAPC  H10R 3171   6.282   3.944  10.275  1.4414 -1.3580 -0.3213
   24SAPC  H10S 3172   6.109   3.909  10.280  0.3577  1.6219  0.0288
   24SAPC  C211 3173   6.187   3.908  10.085  0.5353 -0.0414  0.4893
   24SAPC  H11R 3174   6.274   3.881  10.023  1.5769  1.6821  1.1466
   24SAPC  C212 3175   6.097   3.989  10.024 -0.0837  0.4000  0.6005
   24SAPC  H12R 3176   6.111   4.010   9.917 -1.4058  2.6970  0.8169
   24SAPC  C213 3177   5.977   4.058  10.082 -0.1932 -0.1460  0.0362
   24SAPC  H13R 3178   5.969   4.065  10.192  1.0364 -1.0051  0.1964
   24SAPC  H13S 3179   5.889   3.993  10.059  1.0478 -2.3353  1.1092
   24SAPC  C214 3180   5.964   4.195  10.013  0.4826 -0.2402  0.1935
   24SAPC  H14R 3181   6.048   4.216   9.946  2.7676 -1.3284  2.5423
   24SAPC  C215 3182   5.858   4.282  10.025 -0.9366  0.1310 -0.8509
   24SAPC  H15R 3183   5.859   4.379   9.972  0.4899  0.8804  0.4728
   24SAPC  C216 3184   5.745   4.255  10.118  0.3668  0.5987  0.3963
   24SAPC  H16R 3185   5.743   4.155  10.166  2.4198  0.6838  0.7332
   24SAPC  H16S 3186   5.652   4.267  10.059  0.6170 -0.6406 -0.2830
   24SAPC  C217 3187   5.738   4.343  10.238  0.1123  0.0366 -0.1897
   24SAPC  H17R 3188   5.836   4.345  10.291 -0.0548 -0.6949  0.1661
   24SAPC  H17S 3189   5.675   4.283  10.307 -1.2343  1.2987 -0.2824
   24SAPC  C218 3190   5.676   4.482  10.216  0.3866  0.2782 -0.5038
   24SAPC  H18R 3191   5.728   4.530  10.130 -0.7089  0.9061 -0.8441
   24SAPC  H18S 3192   5.695   4.545  10.305 -1.5143  0.5171 -0.2193
   24SAPC  C219 3193   5.524   4.462  10.209 -0.2449 -0.3736  0.5028
   24SAPC  H19R 3194   5.492   4.419  10.306  1.1706  2.9924  2.6464
   24SAPC  H19S 3195   5.487   4.389  10.135 -2.8713 -0.1415  1.5000
   24SAPC  C220 3196   5.433   4.589  10.183  0.0561  0.2044  0.0372
   24SAPC  H20R 3197   5.445   4.654  10.272 -1.8860  1.4089 -0.5345
   24SAPC  H20S 3198   5.331   4.546  10.188  0.1367 -0.1329 -0.9982
   24SAPC  H20T 3199   5.450   4.640  10.086 -0.8966 -1.8905 -1.2921
   24SAPC   C33 3200   6.830   3.174  10.267 -0.1922  0.8347 -0.0287
   24SAPC   H3X 3201   6.912   3.100  10.275  0.8652  1.7852 -1.3878
   24SAPC   H3Y 3202   6.893   3.265  10.264  0.2079  0.6041  1.0415
   24SAPC   C34 3203   6.769   3.120  10.139 -0.6895  0.1165  0.7093
   24SAPC   H4X 3204   6.667   3.158  10.120 -0.8492 -1.1628 -1.2608
   24SAPC   H4Y 3205   6.764   3.010  10.151  0.4123  0.1730  1.8897
   24SAPC   C35 3206   6.862   3.136  10.009 -0.0034  0.5040  0.4076
   24SAPC   H5X 3207   6.809   3.075   9.933 -0.9559  2.1324 -0.2922
   24SAPC   H5Y 3208   6.965   3.094  10.017 -0.2076  0.0451  0.6468
   24SAPC   C36 3209   6.873   3.276   9.968  0.1274 -0.2421 -0.1359
   24SAPC   H6X 3210   6.910   3.336  10.053 -1.1486 -0.2509  0.4594
   24SAPC   H6Y 3211   6.771   3.318   9.954  0.9849  2.3270  0.6994
   24SAPC   C37 3212   6.972   3.297   9.850  0.1563 -0.5267  0.1809
   24SAPC   H7X 3213   7.071   3.253   9.872  1.3497  1.3232 -1.2134
   24SAPC   H7Y 3214   7.000   3.403   9.834  0.7869 -0.4387  1.6776
   24SAPC   C38 3215   6.922   3.239   9.720 -1.0305  0.0234  0.0592
   24SAPC   H8X 3216   6.912   3.128   9.725  0.1942 -0.0689  0.8649
   24SAPC   H8Y 3217   6.993   3.260   9.638  3.6247 -0.1328  3.6349
   24SAPC   C39 3218   6.783   3.284   9.686  0.5111  0.1803  0.4784
   24SAPC   H9X 3219   6.766   3.392   9.702 -0.1683  0.2821 -0.7774
   24SAPC   H9Y 3220   6.702   3.227   9.736  2.1159 -0.2708  2.7142
   24SAPC  C310 3221   6.761   3.252   9.533  0.1058  0.2557  0.1095
   24SAPC  H10X 3222   6.753   3.142   9.525 -2.4021  0.5158 -2.4886
   24SAPC  H10Y 3223   6.856   3.278   9.481 -0.0251  0.3904 -0.0646
   24SAPC  C311 3224   6.654   3.327   9.466  0.1301 -0.1274  0.1645
   24SAPC  H11X 3225   6.665   3.437   9.469 -0.7784 -0.0268  0.0851
   24SAPC  H11Y 3226   6.563   3.301   9.524  0.1169  0.4577  0.4150
   24SAPC  C312 3227   6.642   3.295   9.316  0.0779  0.9737 -0.2543
   24SAPC  H12X 3228   6.640   3.185   9.300 -0.1178  0.8778  0.3827
   24SAPC  H12Y 3229   6.734   3.319   9.260  0.6050 -1.0680 -0.3459
   24SAPC  C313 3230   6.523   3.376   9.252  0.3210 -0.7289 -0.7608
   24SAPC  H13X 3231   6.544   3.479   9.288  0.5784 -1.3654  1.0233
   24SAPC  H13Y 3232   6.432   3.337   9.303  0.3573 -0.0585 -0.1697
   24SAPC  C314 3233   6.522   3.367   9.102 -0.1908  0.3009 -0.2445
   24SAPC  H14X 3234   6.473   3.272   9.072  0.8891 -0.4052  0.1944
   24SAPC  H14Y 3235   6.623   3.361   9.056  0.1893  1.5556  0.3668
   24SAPC  C315 3236   6.454   3.486   9.038 -0.4052 -0.0955  0.3818
   24SAPC  H15X 3237   6.476   3.468   8.930  1.5500 -0.1517  0.7545
   24SAPC  H15Y 3238   6.500   3.581   9.073 -3.0181  0.9911  1.0901
   24SAPC  C316 3239   6.304   3.504   9.066 -0.5417 -0.6088  0.5437
   24SAPC  H16X 3240   6.285   3.548   9.166 -0.7865  1.1892 -0.2648
   24SAPC  H16Y 3241   6.250   3.407   9.066 -1.6680  0.0062  1.1352
   24SAPC  C317 3242   6.242   3.609   8.970  0.0919  0.5281 -0.4289
   24SAPC  H17X 3243   6.132   3.595   8.974 -0.1756  2.4534  0.2181
   24SAPC  H17Y 3244   6.275   3.588   8.866  2.9821 -0.5415  0.5878
   24SAPC  C318 3245   6.284   3.747   9.021  0.5048 -0.2749  0.7339
   24SAPC  H18X 3246   6.240   3.774   9.120 -3.5558 -0.0353 -0.9539
   24SAPC  H18Y 3247   6.253   3.826   8.949 -1.7818 -1.7867 -0.0430
   24SAPC  H18Z 3248   6.395   3.752   9.029  0.3550  1.5537  2.7619
   25SAPC     N 3249   1.777   0.728   6.269  0.2733 -0.4812 -0.2975
   25SAPC   C12 3250   1.879   0.750   6.377 -0.1080  0.3523  0.2068
   25SAPC  H12A 3251   1.980   0.726   6.346 -0.2420 -0.2861  0.2459
   25SAPC  H12B 3252   1.851   0.664   6.436 -1.1416 -1.0695 -2.1726
   25SAPC   C13 3253   1.639   0.733   6.320 -0.1696  0.0357 -0.1860
   25SAPC  H13A 3254   1.610   0.834   6.342 -1.4008  0.4291 -3.1623
   25SAPC  H13B 3255   1.576   0.690   6.243  0.2603 -1.9532  0.5088
   25SAPC  H13C 3256   1.616   0.676   6.408 -1.2543 -1.2662 -1.2692
   25SAPC   C14 3257   1.794   0.826   6.150  0.3611  0.4488 -0.6981
   25SAPC  H14A 3258   1.758   0.926   6.167  0.2597  0.3336 -0.2260
   25SAPC  H14B 3259   1.899   0.833   6.124  0.9144  0.0591  1.2896
   25SAPC  H14C 3260   1.738   0.777   6.071  0.7210 -1.1689  0.0060
   25SAPC   C15 3261   1.796   0.599   6.198  0.8817  0.4699  0.2788
   25SAPC  H15A 3262   1.727   0.592   6.116 -1.1102  0.3111  1.8957
   25SAPC  H15B 3263   1.895   0.611   6.156  0.3870  1.6435 -0.6147
   25SAPC  H15C 3264   1.786   0.518   6.269 -0.6032  1.7198  1.5738
   25SAPC   C11 3265   1.883   0.879   6.455  0.7342 -0.0429  0.4810
   25SAPC  H11A 3266   1.953   0.869   6.540  0.8760  0.3881  0.4154
   25SAPC  H11B 3267   1.783   0.909   6.495  1.6499  1.8203  1.5100
   25SAPC     P 3268   2.073   1.024   6.345  0.0339 -0.2202  0.3457
   25SAPC   O13 3269   2.152   0.915   6.288  0.2431  0.5795  0.4976
   25SAPC   O14 3270   2.074   1.154   6.277  0.1383  0.0238  0.6120
   25SAPC   O12 3271   1.920   0.984   6.366  0.2125 -0.3947  0.1389
   25SAPC   O11 3272   2.119   1.071   6.495 -0.7105 -0.0531  0.1445
   25SAPC    C1 3273   2.033   1.166   6.561 -0.4174 -0.1067  0.1432
   25SAPC    HA 3274   1.950   1.215   6.506 -0.3094  1.2078  1.1023
   25SAPC    HB 3275   1.983   1.110   6.642 -2.8929 -0.6110 -1.6004
   25SAPC    C2 3276   2.115   1.278   6.633 -0.1526  0.4186 -0.6176
   25SAPC    HS 3277   2.165   1.336   6.552 -0.7713 -0.8133 -1.9035
   25SAPC   O21 3278   2.213   1.210   6.720  0.4217  0.0457 -0.3912
   25SAPC   C21 3279   2.310   1.285   6.760  0.1212  0.1173  0.2933
   25SAPC   O22 3280   2.323   1.404   6.734 -0.2224  0.3314  0.1848
   25SAPC   C22 3281   2.387   1.194   6.853  0.8157  0.5358 -0.1986
   25SAPC   H2R 3282   2.326   1.173   6.944  1.2626  2.3965  0.5844
   25SAPC   H2S 3283   2.406   1.093   6.810 -0.2414 -0.4116  1.4405
   25SAPC    C3 3284   2.027   1.395   6.705  0.0785  0.1099 -0.0188
   25SAPC    HX 3285   1.962   1.439   6.626 -0.6521 -0.2557  0.3685
   25SAPC    HY 3286   2.094   1.474   6.743 -0.2003  0.3311  0.0121
   25SAPC   O31 3287   1.959   1.346   6.823  0.2182 -0.4862 -0.2382
   25SAPC   C31 3288   1.824   1.322   6.820  0.2535  0.5922  0.2067
   25SAPC   O32 3289   1.757   1.358   6.727  0.2099 -0.1991  0.1507
   25SAPC   C32 3290   1.786   1.242   6.940  0.0639 -0.0865  0.5949
   25SAPC   H2X 3291   1.833   1.284   7.032  0.9812 -0.7424  0.4329
   25SAPC   H2Y 3292   1.834   1.143   6.928  0.2196 -0.0347  0.7874
   25SAPC   C23 3293   2.533   1.247   6.891  0.3443  0.0850  0.6404
   25SAPC   H3R 3294   2.577   1.285   6.796  2.2680 -1.7554  0.7277
   25SAPC   H3S 3295   2.593   1.164   6.932  3.3983  2.4496  1.3592
   25SAPC   C24 3296   2.543   1.343   6.999 -0.6016 -0.1890 -0.1614
   25SAPC   H4R 3297   2.502   1.439   6.959  0.9861  1.0675  1.0801
   25SAPC   H4S 3298   2.643   1.386   7.018  0.3075 -0.3392 -3.7951
   25SAPC   C25 3299   2.465   1.305   7.123  0.7204  0.1829 -0.1819
   25SAPC   H5R 3300   2.519   1.230   7.183  0.2084  1.5356  2.0804
   25SAPC   C26 3301   2.343   1.352   7.161  0.1213  0.1782 -0.2303
   25SAPC   H6R 3302   2.306   1.333   7.263  2.0925 -0.5049  0.3987
   25SAPC   C27 3303   2.269   1.454   7.084  0.3756 -0.8301 -0.9234
   25SAPC   H7R 3304   2.294   1.444   6.976 -2.1098 -0.9829 -1.5635
   25SAPC   H7S 3305   2.306   1.554   7.113 -1.5606  1.0683 -4.3440
   25SAPC   C28 3306   2.116   1.435   7.109 -0.5834 -0.7196  0.2542
   25SAPC   H8R 3307   2.075   1.345   7.060 -2.3142  1.0975 -1.8678
   25SAPC   C29 3308   2.026   1.507   7.192 -0.4552  0.5459 -0.0307
   25SAPC   H9R 3309   1.928   1.459   7.201 -0.3200  0.2409 -0.1875
   25SAPC  C210 3310   2.060   1.621   7.283 -0.0937  0.7942 -0.1161
   25SAPC  H10R 3311   1.973   1.647   7.346  0.5522  3.5371 -0.2031
   25SAPC  H10S 3312   2.096   1.712   7.229  0.8281  0.8281  0.5129
   25SAPC  C211 3313   2.174   1.601   7.385 -0.0349  0.4123 -0.1671
   25SAPC  H11R 3314   2.275   1.600   7.343  0.2194  1.6535  0.3696
   25SAPC  C212 3315   2.175   1.578   7.520 -0.1159  0.5357 -0.5442
   25SAPC  H12R 3316   2.275   1.566   7.564 -0.6867 -0.8113  0.4429
   25SAPC  C213 3317   2.061   1.572   7.618  0.5532  0.3433 -1.1136
   25SAPC  H13R 3318   2.040   1.467   7.647 -3.5646  0.3821 -3.1472
   25SAPC  H13S 3319   1.971   1.605   7.562  0.2134  0.1037 -0.7160
   25SAPC  C214 3320   2.086   1.663   7.735 -0.1351 -0.2023 -0.4261
   25SAPC  H14R 3321   2.084   1.771   7.717  0.6883 -0.4540 -2.2570
   25SAPC  C215 3322   2.111   1.622   7.859 -0.0966  0.6906 -0.4708
   25SAPC  H15R 3323   2.112   1.699   7.938 -1.4106 -0.7731  1.0513
   25SAPC  C216 3324   2.133   1.478   7.909  0.7974  0.7998 -0.3554
   25SAPC  H16R 3325   2.113   1.393   7.840 -0.0295 -1.2247  2.2075
   25SAPC  H16S 3326   2.072   1.457   7.999  0.2906 -1.3512 -1.1225
   25SAPC  C217 3327   2.283   1.481   7.960 -0.5128  0.6267 -0.1863
   25SAPC  H17R 3328   2.314   1.570   8.019  2.3463 -1.0934  1.1191
   25SAPC  H17S 3329   2.349   1.483   7.871  1.8898 -0.4921  1.4544
   25SAPC  C218 3330   2.324   1.352   8.030 -0.1024 -0.6623 -0.0433
   25SAPC  H18R 3331   2.324   1.271   7.954 -0.8934  1.3175 -2.2497
   25SAPC  H18S 3332   2.250   1.319   8.106 -0.1268  0.0051  0.2256
   25SAPC  C219 3333   2.460   1.362   8.091 -0.5475 -0.5027 -0.1170
   25SAPC  H19R 3334   2.537   1.395   8.017 -0.0057 -1.0121  0.2063
   25SAPC  H19S 3335   2.498   1.259   8.112  1.6631  0.5390  1.3680
   25SAPC  C220 3336   2.448   1.442   8.218 -0.0965 -0.6040  0.1172
   25SAPC  H20R 3337   2.387   1.391   8.296  0.7909 -3.0637 -0.7238
   25SAPC  H20S 3338   2.416   1.549   8.215 -2.9491 -1.3865 -0.2520
   25SAPC  H20T 3339   2.548   1.436   8.266  0.1988  0.6746 -0.2877
   25SAPC   C33 3340   1.628   1.234   6.959 -0.1578  0.4933  0.4218
   25SAPC   H3X 3341   1.588   1.187   6.867  0.0893 -1.0530  1.0740
   25SAPC   H3Y 3342   1.591   1.338   6.950 -0.5329  0.2770 -0.7876
   25SAPC   C34 3343   1.576   1.169   7.086  0.3436  0.0876 -0.6144
   25SAPC   H4X 3344   1.610   1.063   7.085 -0.7132 -0.2762  0.0640
   25SAPC   H4Y 3345   1.466   1.155   7.078  0.3450 -1.7639  1.3563
   25SAPC   C35 3346   1.628   1.242   7.210 -0.0275  0.3331  0.4872
   25SAPC   H5X 3347   1.617   1.352   7.198  0.8877  0.7968  3.2341
   25SAPC   H5Y 3348   1.737   1.221   7.220 -0.1782  0.4626  3.1266
   25SAPC   C36 3349   1.565   1.219   7.349  0.6895  0.2086  0.1456
   25SAPC   H6X 3350   1.543   1.111   7.363  0.5529  0.3553  1.1377
   25SAPC   H6Y 3351   1.465   1.267   7.348  0.8069  1.2557  5.6503
   25SAPC   C37 3352   1.652   1.278   7.458  0.6212  0.0784  0.0740
   25SAPC   H7X 3353   1.617   1.382   7.477 -1.6995 -0.6338  0.1090
   25SAPC   H7Y 3354   1.757   1.278   7.423  0.0140  0.9348 -1.8819
   25SAPC   C38 3355   1.628   1.201   7.594  0.1121 -0.4096 -0.3660
   25SAPC   H8X 3356   1.671   1.099   7.582 -0.8066 -0.8337 -0.0785
   25SAPC   H8Y 3357   1.519   1.181   7.594 -0.3608  1.9358 -0.2073
   25SAPC   C39 3358   1.679   1.272   7.720 -0.7745 -0.5174 -0.1599
   25SAPC   H9X 3359   1.642   1.376   7.733  1.2971  0.4061 -1.2170
   25SAPC   H9Y 3360   1.787   1.274   7.696 -0.9999 -2.3133 -1.5964
   25SAPC  C310 3361   1.666   1.187   7.853 -0.0202 -0.0786 -0.6026
   25SAPC  H10X 3362   1.720   1.091   7.839 -0.6777 -0.1425 -2.9636
   25SAPC  H10Y 3363   1.562   1.168   7.887  1.6471 -1.5866  4.6550
   25SAPC  C311 3364   1.738   1.253   7.965 -0.0408 -0.4899 -0.8275
   25SAPC  H11X 3365   1.671   1.333   8.002  1.4580  0.9498 -1.1483
   25SAPC  H11Y 3366   1.841   1.294   7.956  0.4376 -1.3171  0.5825
   25SAPC  C312 3367   1.754   1.160   8.090 -0.4711  1.0027 -0.1438
   25SAPC  H12X 3368   1.819   1.077   8.054 -0.8315  0.4744  0.3929
   25SAPC  H12Y 3369   1.660   1.106   8.113 -0.7870  2.7103  3.3226
   25SAPC  C313 3370   1.810   1.239   8.207 -0.7904 -0.2581 -0.1832
   25SAPC  H13X 3371   1.775   1.343   8.188  2.6693  0.8605 -1.1613
   25SAPC  H13Y 3372   1.920   1.254   8.206 -0.8136  0.1085  1.2112
   25SAPC  C314 3373   1.772   1.188   8.351 -0.4189 -0.3452 -0.1539
   25SAPC  H14X 3374   1.835   1.100   8.376  1.3997  0.8480 -0.3148
   25SAPC  H14Y 3375   1.666   1.159   8.336 -0.1897 -0.2320 -2.3953
   25SAPC  C315 3376   1.796   1.296   8.459  0.4783 -0.2621 -0.3385
   25SAPC  H15X 3377   1.731   1.384   8.442 -2.4415 -2.4457 -1.2879
   25SAPC  H15Y 3378   1.896   1.342   8.444 -1.1685  4.2466  1.0663
   25SAPC  C316 3379   1.790   1.267   8.611 -0.5667 -0.1425 -0.7124
   25SAPC  H16X 3380   1.791   1.367   8.661 -1.2540  0.0153 -1.0031
   25SAPC  H16Y 3381   1.886   1.220   8.640 -0.0858  2.3066  2.1071
   25SAPC  C317 3382   1.670   1.187   8.659  0.1866 -0.0652  0.2016
   25SAPC  H17X 3383   1.586   1.205   8.589  0.1167  1.1945  0.5859
   25SAPC  H17Y 3384   1.634   1.240   8.750  1.6384  0.5507  0.4506
   25SAPC  C318 3385   1.696   1.032   8.674  0.0678 -0.4726 -0.3903
   25SAPC  H18X 3386   1.769   1.016   8.756 -1.5658  1.9583  1.6695
   25SAPC  H18Y 3387   1.726   0.995   8.573 -0.5369 -1.1726 -0.3247
   25SAPC  H18Z 3388   1.600   0.985   8.705  1.2913 -2.7280  0.2101
   26SAPC     N 3389   6.202   1.890   6.542 -0.4594  0.1520  0.0108
   26SAPC   C12 3390   6.352   1.886   6.531 -0.4111  0.6162  0.2643
   26SAPC  H12A 3391   6.382   1.784   6.512  1.2817  1.2867 -0.8340
   26SAPC  H12B 3392   6.403   1.915   6.622  1.3141  1.5269 -0.9586
   26SAPC   C13 3393   6.136   1.837   6.416 -0.6239  0.6775  0.2875
   26SAPC  H13A 3394   6.153   1.916   6.344  0.0077  0.8454  0.6103
   26SAPC  H13B 3395   6.170   1.739   6.389  1.0134  1.7232 -1.7739
   26SAPC  H13C 3396   6.032   1.822   6.441 -0.4614 -1.8388 -0.3135
   26SAPC   C14 3397   6.156   1.798   6.653 -0.2315 -0.2014  0.1989
   26SAPC  H14A 3398   6.205   1.817   6.747  0.5048  1.4880 -0.4976
   26SAPC  H14B 3399   6.048   1.805   6.658 -0.4295  1.6768 -3.5457
   26SAPC  H14C 3400   6.176   1.696   6.624  0.4480 -0.1119  0.3356
   26SAPC   C15 3401   6.150   2.026   6.562 -0.8800  0.6893 -0.7501
   26SAPC  H15A 3402   6.156   2.067   6.662 -2.2529  0.6598 -0.6321
   26SAPC  H15B 3403   6.204   2.097   6.502 -1.7044 -0.5791 -3.0974
   26SAPC  H15C 3404   6.048   2.025   6.526 -0.8251  0.5282 -0.8991
   26SAPC   C11 3405   6.423   1.973   6.423 -0.9792 -0.8595  0.4858
   26SAPC  H11A 3406   6.375   1.943   6.327  0.7559 -2.1996 -0.0087
   26SAPC  H11B 3407   6.525   1.931   6.415  0.0622  0.5263  4.3401
   26SAPC     P 3408   6.377   2.224   6.351 -0.1689  0.1879 -0.0393
   26SAPC   O13 3409   6.484   2.293   6.278 -0.1084  0.5250 -0.5246
   26SAPC   O14 3410   6.269   2.170   6.270 -0.2579  0.1049 -0.8294
   26SAPC   O12 3411   6.433   2.113   6.453 -0.6758  0.3977  0.2234
   26SAPC   O11 3412   6.312   2.321   6.459 -0.4721  0.0480  0.8609
   26SAPC    C1 3413   6.407   2.376   6.554 -0.2452 -0.6810 -0.1125
   26SAPC    HA 3414   6.509   2.397   6.515 -1.0565  1.2346 -1.3357
   26SAPC    HB 3415   6.369   2.477   6.578 -1.7144 -0.6250 -2.3332
   26SAPC    C2 3416   6.422   2.320   6.696  0.5115  0.4780 -0.3750
   26SAPC    HS 3417   6.479   2.225   6.691  1.1597  0.9005 -1.1327
   26SAPC   O21 3418   6.283   2.305   6.748  0.5556 -0.0506 -0.1463
   26SAPC   C21 3419   6.267   2.220   6.848 -0.1880  0.8135 -1.5507
   26SAPC   O22 3420   6.335   2.120   6.873 -0.6625  0.2429  0.0203
   26SAPC   C22 3421   6.132   2.249   6.913 -0.1137 -0.8555 -0.5373
   26SAPC   H2R 3422   6.104   2.351   6.881 -2.6875 -1.4880 -0.5308
   26SAPC   H2S 3423   6.056   2.178   6.873 -1.4609  1.0176 -1.4172
   26SAPC    C3 3424   6.500   2.419   6.776 -0.1941  0.7070  0.0821
   26SAPC    HX 3425   6.456   2.521   6.781  0.9991  1.2757 -0.5090
   26SAPC    HY 3426   6.589   2.447   6.715 -0.3105  0.7425 -0.0715
   26SAPC   O31 3427   6.537   2.369   6.906 -0.2779  0.2363  0.2182
   26SAPC   C31 3428   6.655   2.327   6.933 -0.2342  0.9158  0.0703
   26SAPC   O32 3429   6.751   2.314   6.853  0.3650  0.4149  0.3509
   26SAPC   C32 3430   6.651   2.294   7.077  0.2124 -0.4654  0.0183
   26SAPC   H2X 3431   6.555   2.248   7.108 -0.0311  0.7859  1.2304
   26SAPC   H2Y 3432   6.663   2.388   7.135  0.0188 -0.4023 -0.0428
   26SAPC   C23 3433   6.128   2.241   7.060  0.6344  0.4443 -0.2777
   26SAPC   H3R 3434   6.207   2.305   7.105 -0.8408  0.9336  1.7545
   26SAPC   H3S 3435   6.147   2.134   7.085 -0.6793 -0.1758 -1.7471
   26SAPC   C24 3436   5.989   2.271   7.124 -0.0347  0.4873 -0.2725
   26SAPC   H4R 3437   5.979   2.221   7.222 -0.1473 -0.4384 -0.7478
   26SAPC   H4S 3438   5.919   2.210   7.062  1.0152 -2.7339  1.4784
   26SAPC   C25 3439   5.962   2.417   7.131 -0.5190 -0.4918 -0.6031
   26SAPC   H5R 3440   5.968   2.464   7.031  0.7864  0.5803 -0.0518
   26SAPC   C26 3441   5.964   2.490   7.238  1.2638  0.3141 -0.0663
   26SAPC   H6R 3442   5.959   2.600   7.231 -0.3478  0.2032 -1.1829
   26SAPC   C27 3443   5.984   2.444   7.385  0.1284 -1.0146  0.4584
   26SAPC   H7R 3444   6.004   2.536   7.444 -1.6678  0.7087 -1.4461
   26SAPC   H7S 3445   6.074   2.378   7.388  0.4193 -0.6523 -0.0916
   26SAPC   C28 3446   5.879   2.367   7.456  0.4077  0.6300 -0.9780
   26SAPC   H8R 3447   5.833   2.283   7.402 -2.5942  1.4931  0.0568
   26SAPC   C29 3448   5.827   2.384   7.579  0.2852 -0.0520  1.2009
   26SAPC   H9R 3449   5.753   2.311   7.614 -0.5610  0.7187  1.0765
   26SAPC  C210 3450   5.858   2.492   7.682 -0.5562  0.6438 -0.6003
   26SAPC  H10R 3451   5.766   2.510   7.741 -0.2702 -2.6494  1.0953
   26SAPC  H10S 3452   5.891   2.587   7.635 -0.2928  2.6098  3.1931
   26SAPC  C211 3453   5.977   2.437   7.767 -0.2907 -0.0935  0.2320
   26SAPC  H11R 3454   6.066   2.426   7.704  0.1738 -0.2133  0.9048
   26SAPC  C212 3455   5.981   2.414   7.895  0.0030 -0.1845 -0.3952
   26SAPC  H12R 3456   6.079   2.392   7.940 -0.1061  0.1933  0.0334
   26SAPC  C213 3457   5.875   2.437   7.995  0.5698 -0.1984 -0.7240
   26SAPC  H13R 3458   5.848   2.341   8.044 -2.7206  1.7924  1.8136
   26SAPC  H13S 3459   5.776   2.468   7.955 -0.0491 -0.4397  0.5449
   26SAPC  C214 3460   5.900   2.543   8.092  0.5953  0.1934 -0.3274
   26SAPC  H14R 3461   5.895   2.644   8.048  0.5444  0.5426  0.4512
   26SAPC  C215 3462   5.920   2.524   8.223 -0.3732  0.1038 -0.1601
   26SAPC  H15R 3463   5.944   2.617   8.277 -0.9273  1.0423 -1.4666
   26SAPC  C216 3464   5.935   2.396   8.298 -0.3239  0.1727  0.2878
   26SAPC  H16R 3465   6.006   2.327   8.248  0.1274  0.5985  0.3350
   26SAPC  H16S 3466   5.839   2.339   8.309 -0.1627 -0.6535 -2.0955
   26SAPC  C217 3467   5.983   2.405   8.446 -0.3752 -0.0513 -0.4958
   26SAPC  H17R 3468   6.073   2.469   8.456 -1.0254  0.7467  0.4862
   26SAPC  H17S 3469   6.019   2.307   8.483 -0.4693  0.0755 -0.0629
   26SAPC  C218 3470   5.869   2.458   8.540  0.3479 -0.1857 -1.0681
   26SAPC  H18R 3471   5.781   2.390   8.544  0.4376 -0.2449  0.4564
   26SAPC  H18S 3472   5.838   2.559   8.508 -1.0025  0.3026  1.5040
   26SAPC  C219 3473   5.905   2.473   8.688  0.6139  0.5208  0.0144
   26SAPC  H19R 3474   5.989   2.545   8.694 -0.8019  2.4081 -1.5364
   26SAPC  H19S 3475   5.938   2.373   8.723  0.0272  0.4481  0.3747
   26SAPC  C220 3476   5.790   2.513   8.779  0.0780 -0.0961 -0.1129
   26SAPC  H20R 3477   5.748   2.611   8.749 -2.5537 -1.3075 -0.7137
   26SAPC  H20S 3478   5.818   2.505   8.886 -0.4692 -0.0009  0.0377
   26SAPC  H20T 3479   5.712   2.436   8.764 -1.1889  1.2112 -0.4514
   26SAPC   C33 3480   6.779   2.217   7.112  0.7485 -0.4148 -0.4735
   26SAPC   H3X 3481   6.865   2.288   7.106  1.7739 -1.6354 -0.5265
   26SAPC   H3Y 3482   6.793   2.129   7.047  1.2838 -0.4049 -0.3788
   26SAPC   C34 3483   6.776   2.152   7.257  0.3550  0.7290  0.0980
   26SAPC   H4X 3484   6.867   2.087   7.257 -0.0556  0.1205  1.4190
   26SAPC   H4Y 3485   6.694   2.078   7.266 -0.7532  1.7495 -1.3086
   26SAPC   C35 3486   6.789   2.239   7.380  0.8323 -0.2297 -0.0029
   26SAPC   H5X 3487   6.705   2.310   7.393  0.8749 -0.5283  2.5533
   26SAPC   H5Y 3488   6.877   2.307   7.373  1.1230 -0.4537  1.1393
   26SAPC   C36 3489   6.801   2.150   7.501 -0.5153 -0.4767 -0.0787
   26SAPC   H6X 3490   6.896   2.093   7.500 -1.9472 -2.9761  0.1876
   26SAPC   H6Y 3491   6.725   2.071   7.482 -0.7295  0.4454 -3.9402
   26SAPC   C37 3492   6.799   2.227   7.633  0.0892 -0.2522 -0.0415
   26SAPC   H7X 3493   6.705   2.284   7.647  1.2045  1.5013  0.6915
   26SAPC   H7Y 3494   6.880   2.303   7.626  1.2900 -1.3608  1.2487
   26SAPC   C38 3495   6.822   2.141   7.766 -0.2921 -0.3982  0.0883
   26SAPC   H8X 3496   6.924   2.097   7.763  0.4907  1.2527 -3.5869
   26SAPC   H8Y 3497   6.747   2.059   7.760  0.4466 -1.0415 -0.5532
   26SAPC   C39 3498   6.800   2.226   7.886  0.0718  0.5603 -0.4048
   26SAPC   H9X 3499   6.715   2.297   7.875  1.6059  2.3080 -1.7331
   26SAPC   H9Y 3500   6.887   2.293   7.903  0.1443 -0.1133  2.3753
   26SAPC  C310 3501   6.788   2.147   8.020  0.4088  0.3840  0.1024
   26SAPC  H10X 3502   6.876   2.081   8.037  1.4428  1.7131  0.0493
   26SAPC  H10Y 3503   6.699   2.082   8.006  0.9175 -0.6295  1.3915
   26SAPC  C311 3504   6.785   2.246   8.132 -0.3888 -0.4937  0.3635
   26SAPC  H11X 3505   6.720   2.205   8.213 -0.5795 -0.6698  0.1236
   26SAPC  H11Y 3506   6.746   2.345   8.102  0.2996 -0.9472 -2.2329
   26SAPC  C312 3507   6.925   2.261   8.195  0.0547 -0.4986  0.2936
   26SAPC  H12X 3508   6.999   2.298   8.120  2.9670  0.3113  3.2765
   26SAPC  H12Y 3509   6.939   2.155   8.225 -1.8974 -1.4609 -1.8820
   26SAPC  C313 3510   6.935   2.361   8.316 -0.5067 -0.6038 -0.3133
   26SAPC  H13X 3511   6.879   2.457   8.309  0.6182  0.0295 -1.1177
   26SAPC  H13Y 3512   7.043   2.388   8.304  0.0237 -2.9065 -1.1791
   26SAPC  C314 3513   6.929   2.308   8.460 -0.2419 -0.1940 -0.7303
   26SAPC  H14X 3514   6.827   2.274   8.484  0.4554 -1.5819  0.3972
   26SAPC  H14Y 3515   6.948   2.388   8.536  1.7788 -1.6426  0.3756
   26SAPC  C315 3516   7.021   2.190   8.504 -0.6386  0.0082  0.8392
   26SAPC  H15X 3517   7.123   2.233   8.511  0.4346 -2.2311 -0.0394
   26SAPC  H15Y 3518   7.029   2.122   8.416  0.9698 -1.2856  1.9067
   26SAPC  C316 3519   6.983   2.120   8.637 -0.8446 -0.6242 -0.3910
   26SAPC  H16X 3520   7.017   2.186   8.719 -0.2193 -0.3380 -0.8687
   26SAPC  H16Y 3521   7.044   2.027   8.636 -1.8965 -1.3959  1.8548
   26SAPC  C317 3522   6.842   2.084   8.660  0.0304 -0.1502  0.1587
   26SAPC  H17X 3523   6.804   2.028   8.572  1.8285 -2.8855  0.9908
   26SAPC  H17Y 3524   6.780   2.176   8.672 -0.7389 -0.7322  0.6837
   26SAPC  C318 3525   6.833   1.995   8.792  0.7622 -0.3948  0.0116
   26SAPC  H18X 3526   6.891   1.901   8.782 -0.0671 -0.7250 -2.6481
   26SAPC  H18Y 3527   6.730   1.968   8.824  0.9265 -1.3502 -0.2420
   26SAPC  H18Z 3528   6.876   2.050   8.878 -1.4837 -0.8226  1.5007
   27SAPC     N 3529   4.155   3.851   6.892 -0.5633  1.2229  0.1543
   27SAPC   C12 3530   4.170   3.921   7.024  0.2124 -0.7054 -0.2950
   27SAPC  H12A 3531   4.275   3.926   7.052  0.4505  1.3828 -1.3252
   27SAPC  H12B 3532   4.115   3.867   7.099 -1.6831  3.5306  1.6583
   27SAPC   C13 3533   4.009   3.846   6.845 -0.6262  0.2128  0.0516
   27SAPC  H13A 3534   4.000   3.809   6.744  0.9020 -1.0365  0.3293
   27SAPC  H13B 3535   3.954   3.780   6.909 -0.8594  1.8180  1.5626
   27SAPC  H13C 3536   3.971   3.947   6.841  2.1987  1.3441 -0.9482
   27SAPC   C14 3537   4.246   3.922   6.795 -0.0831 -0.0863 -0.1856
   27SAPC  H14A 3538   4.348   3.922   6.830  0.8558  3.1111 -2.4928
   27SAPC  H14B 3539   4.237   3.877   6.698  0.6654  0.2761 -0.4222
   27SAPC  H14C 3540   4.218   4.025   6.779  0.6538 -0.2194 -2.7138
   27SAPC   C15 3541   4.209   3.710   6.911 -0.4037 -0.4035  0.1377
   27SAPC  H15A 3542   4.313   3.719   6.940 -0.3602 -1.4049  0.3478
   27SAPC  H15B 3543   4.161   3.658   6.993 -0.0076 -1.3944 -0.2361
   27SAPC  H15C 3544   4.204   3.654   6.819 -0.2748  0.7996 -0.6255
   27SAPC   C11 3545   4.100   4.052   7.045 -0.3818 -0.0989  0.9591
   27SAPC  H11A 3546   4.104   4.124   6.960 -2.4148  0.8677  1.6084
   27SAPC  H11B 3547   4.157   4.099   7.128  2.8060 -1.2322 -0.4325
   27SAPC     P 3548   3.893   3.980   7.200  0.1228 -0.5789  0.0275
   27SAPC   O13 3549   3.752   4.007   7.203  0.0471  0.9603  0.2863
   27SAPC   O14 3550   3.935   3.845   7.241  0.6784 -0.0210 -0.0128
   27SAPC   O12 3551   3.962   4.023   7.069  0.0928  0.1251  0.2311
   27SAPC   O11 3552   3.957   4.077   7.295  0.0892 -0.0645 -0.2462
   27SAPC    C1 3553   3.902   4.208   7.306 -0.3153  0.4971 -0.4393
   27SAPC    HA 3554   3.792   4.206   7.291 -0.3488  1.5971 -0.4161
   27SAPC    HB 3555   3.931   4.248   7.405  1.6309 -0.2649 -0.6517
   27SAPC    C2 3556   3.971   4.307   7.209 -1.0391  0.1111 -0.0413
   27SAPC    HS 3557   3.963   4.272   7.104  1.2172 -0.1910 -0.1527
   27SAPC   O21 3558   4.107   4.320   7.249 -0.2815 -0.8245 -0.1754
   27SAPC   C21 3559   4.192   4.378   7.166  0.1607  0.2072  0.3405
   27SAPC   O22 3560   4.165   4.415   7.052 -0.3761  0.7081  0.5248
   27SAPC   C22 3561   4.332   4.388   7.235 -0.7181 -0.6341 -0.2645
   27SAPC   H2R 3562   4.356   4.281   7.253 -2.0570 -0.9299 -0.1811
   27SAPC   H2S 3563   4.398   4.433   7.157  1.3776  0.2392  1.8807
   27SAPC    C3 3564   3.910   4.446   7.210 -0.0716  0.1134 -0.0783
   27SAPC    HX 3565   3.824   4.453   7.140  0.4312 -0.1341 -0.7315
   27SAPC    HY 3566   3.978   4.517   7.159 -1.2620  0.8877 -0.6495
   27SAPC   O31 3567   3.880   4.488   7.343 -0.4700 -0.7400 -0.1646
   27SAPC   C31 3568   3.978   4.552   7.413  0.3175  0.5829 -0.0804
   27SAPC   O32 3569   4.065   4.620   7.362  0.6890  0.0799 -0.1469
   27SAPC   C32 3570   3.948   4.542   7.561 -0.2763 -1.1499 -0.2460
   27SAPC   H2X 3571   3.908   4.441   7.587  0.6834 -1.2104  1.1306
   27SAPC   H2Y 3572   3.867   4.614   7.584  1.9862  0.6435  2.8636
   27SAPC   C23 3573   4.338   4.473   7.361 -0.3486 -0.3527 -0.2197
   27SAPC   H3R 3574   4.258   4.438   7.430  0.2441  0.1279  0.7358
   27SAPC   H3S 3575   4.316   4.579   7.335  0.5222 -0.3261 -0.8758
   27SAPC   C24 3576   4.476   4.459   7.437  0.2423 -0.0215  0.2298
   27SAPC   H4R 3577   4.508   4.352   7.445  0.5277 -0.0447 -1.0056
   27SAPC   H4S 3578   4.464   4.504   7.537  1.9018 -0.1088  0.5059
   27SAPC   C25 3579   4.572   4.538   7.358 -0.0191  0.4045  0.7252
   27SAPC   H5R 3580   4.607   4.489   7.266  0.8977 -1.9525  2.2365
   27SAPC   C26 3581   4.640   4.644   7.402 -0.2287 -0.2446  0.1442
   27SAPC   H6R 3582   4.705   4.684   7.324 -1.9387  1.9815 -0.2430
   27SAPC   C27 3583   4.638   4.715   7.535  0.0760  0.1398 -0.1274
   27SAPC   H7R 3584   4.556   4.678   7.600 -0.3341 -0.6885 -1.0840
   27SAPC   H7S 3585   4.613   4.820   7.508  1.8474  0.0909 -2.2837
   27SAPC   C28 3586   4.772   4.694   7.604 -0.3539 -0.2043 -0.2074
   27SAPC   H8R 3587   4.848   4.632   7.555 -0.8901 -2.1311  1.2648
   27SAPC   C29 3588   4.790   4.727   7.729  0.7702  0.6943 -0.3807
   27SAPC   H9R 3589   4.893   4.719   7.768  0.3406  0.1447  0.6742
   27SAPC  C210 3590   4.689   4.795   7.822 -0.1985 -0.4627 -0.4440
   27SAPC  H10R 3591   4.610   4.851   7.768 -0.7797 -0.7501  0.1001
   27SAPC  H10S 3592   4.756   4.855   7.887  0.7696 -2.4212  0.4784
   27SAPC  C211 3593   4.614   4.688   7.907  0.3465  0.3679 -0.3843
   27SAPC  H11R 3594   4.521   4.649   7.863 -0.0512 -1.1760  1.7000
   27SAPC  C212 3595   4.662   4.638   8.018 -0.2677  0.2325 -0.4476
   27SAPC  H12R 3596   4.605   4.562   8.073 -1.6887  1.4128 -0.2298
   27SAPC  C213 3597   4.786   4.672   8.094 -0.4706  0.3019 -0.3468
   27SAPC  H13R 3598   4.792   4.783   8.098  2.7097  0.4310 -3.5971
   27SAPC  H13S 3599   4.865   4.635   8.025 -1.0596  0.8735 -1.3327
   27SAPC  C214 3600   4.799   4.610   8.232  0.1476  0.5571  0.2028
   27SAPC  H14R 3601   4.830   4.505   8.244  2.9468  1.3423  0.7043
   27SAPC  C215 3602   4.743   4.676   8.336 -0.1159  0.2197 -0.5009
   27SAPC  H15R 3603   4.754   4.626   8.433 -3.0853  0.4205  0.0176
   27SAPC  C216 3604   4.666   4.808   8.341 -0.1854 -0.0431  0.5546
   27SAPC  H16R 3605   4.560   4.788   8.313  0.2321 -1.1409 -0.3176
   27SAPC  H16S 3606   4.696   4.867   8.251 -2.0617 -0.6254 -0.5108
   27SAPC  C217 3607   4.689   4.898   8.464  0.3906 -0.0938  0.3990
   27SAPC  H17R 3608   4.650   4.996   8.430  1.0548 -0.4249 -1.4473
   27SAPC  H17S 3609   4.798   4.914   8.479 -0.3084  2.8373  3.6238
   27SAPC  C218 3610   4.611   4.850   8.580 -0.7864 -0.0611 -0.3920
   27SAPC  H18R 3611   4.670   4.761   8.611 -1.8916 -0.5898  0.2516
   27SAPC  H18S 3612   4.503   4.829   8.567 -0.8326  0.4679 -0.8879
   27SAPC  C219 3613   4.621   4.951   8.688  0.3336 -0.0278  0.6219
   27SAPC  H19R 3614   4.726   4.978   8.708 -0.0064  0.2980  2.1721
   27SAPC  H19S 3615   4.596   4.901   8.785  0.4830 -0.2552  0.5442
   27SAPC  C220 3616   4.542   5.077   8.676 -0.9965 -0.4231 -0.0375
   27SAPC  H20R 3617   4.436   5.052   8.655 -1.2630 -0.2881  1.0568
   27SAPC  H20S 3618   4.576   5.150   8.600  1.0530 -2.2409 -0.9571
   27SAPC  H20T 3619   4.555   5.123   8.777 -0.7046  2.2506 -1.2205
   27SAPC   C33 3620   4.073   4.566   7.651 -0.1277  0.0132  0.0120
   27SAPC   H3X 3621   4.130   4.653   7.613 -1.3299  0.4131 -0.9498
   27SAPC   H3Y 3622   4.135   4.473   7.652  2.8697  1.8297 -1.9986
   27SAPC   C34 3623   4.028   4.599   7.788 -0.3809  0.5071 -0.6007
   27SAPC   H4X 3624   3.950   4.529   7.826  0.2321  0.5349  0.7753
   27SAPC   H4Y 3625   3.971   4.695   7.787  2.9827  2.6896  0.7637
   27SAPC   C35 3626   4.134   4.603   7.900  0.6861 -0.5173  0.6651
   27SAPC   H5X 3627   4.076   4.595   7.994 -1.0582 -0.5859 -0.3810
   27SAPC   H5Y 3628   4.191   4.699   7.901 -1.4822  0.9158 -1.3435
   27SAPC   C36 3629   4.237   4.483   7.896  0.4785  0.3403 -0.1851
   27SAPC   H6X 3630   4.295   4.478   7.802 -0.0665  0.3037 -0.5264
   27SAPC   H6Y 3631   4.172   4.394   7.883  1.1984 -0.0181 -1.4694
   27SAPC   C37 3632   4.341   4.479   8.007 -0.1305  0.0950  0.2607
   27SAPC   H7X 3633   4.389   4.579   8.013 -1.3897  0.7775 -0.6254
   27SAPC   H7Y 3634   4.423   4.409   7.979  1.1531  1.7439 -0.2526
   27SAPC   C38 3635   4.289   4.442   8.150  0.1935  0.4191  0.5173
   27SAPC   H8X 3636   4.256   4.336   8.146  0.5555  0.3007  0.6663
   27SAPC   H8Y 3637   4.193   4.492   8.177 -1.1011 -1.5838 -0.2018
   27SAPC   C39 3638   4.386   4.455   8.265  0.0552 -0.0417 -0.1159
   27SAPC   H9X 3639   4.423   4.560   8.266  0.4366 -0.1726 -0.2447
   27SAPC   H9Y 3640   4.479   4.404   8.232 -0.0094 -0.4954  0.3852
   27SAPC  C310 3641   4.331   4.403   8.394  0.0397  0.2961  0.2752
   27SAPC  H10X 3642   4.298   4.300   8.369  0.4376  0.2365 -0.0001
   27SAPC  H10Y 3643   4.245   4.465   8.428  0.7726  0.5405  1.7759
   27SAPC  C311 3644   4.434   4.405   8.509 -0.2695 -0.1866 -0.6005
   27SAPC  H11X 3645   4.529   4.370   8.464 -0.4208 -1.4736  0.0285
   27SAPC  H11Y 3646   4.405   4.335   8.590  3.4940  0.1570  1.2363
   27SAPC  C312 3647   4.459   4.550   8.560 -0.0216 -0.5190  0.9998
   27SAPC  H12X 3648   4.371   4.612   8.532  0.6535 -0.3991 -0.9845
   27SAPC  H12Y 3649   4.542   4.600   8.506  0.5756 -0.6057  1.8211
   27SAPC  C313 3650   4.490   4.551   8.710 -0.3742  0.6820  0.3095
   27SAPC  H13X 3651   4.409   4.506   8.772 -0.0583  0.4271  0.5451
   27SAPC  H13Y 3652   4.520   4.652   8.744  0.5102  1.5055 -2.6399
   27SAPC  C314 3653   4.607   4.458   8.751 -0.2583 -0.2951  0.5799
   27SAPC  H14X 3654   4.581   4.350   8.753 -0.3710 -0.2801  0.1132
   27SAPC  H14Y 3655   4.635   4.499   8.850 -0.0202 -0.2251  0.4833
   27SAPC  C315 3656   4.728   4.471   8.662  0.2425  0.1090  0.5111
   27SAPC  H15X 3657   4.748   4.574   8.626  0.5953 -0.9790 -2.7666
   27SAPC  H15Y 3658   4.707   4.411   8.571  0.7001  1.9036 -0.8194
   27SAPC  C316 3659   4.851   4.414   8.736 -0.2963 -1.1449 -0.0919
   27SAPC  H16X 3660   4.879   4.484   8.818  3.3772 -3.2935  0.7063
   27SAPC  H16Y 3661   4.934   4.399   8.664  0.3043 -1.0335  0.5643
   27SAPC  C317 3662   4.849   4.275   8.797 -0.0399 -0.7162 -0.4294
   27SAPC  H17X 3663   4.828   4.200   8.717 -0.8518 -2.4026  1.3007
   27SAPC  H17Y 3664   4.772   4.269   8.876  0.1458 -0.0143 -0.1841
   27SAPC  C318 3665   4.982   4.236   8.870  1.1497  0.0102  0.2149
   27SAPC  H18X 3666   4.974   4.138   8.922 -0.3514 -0.9848 -1.7333
   27SAPC  H18Y 3667   5.010   4.315   8.943 -0.1870  2.3226 -1.6430
   27SAPC  H18Z 3668   5.061   4.223   8.793  0.1273  2.0208 -1.2870
   28SAPC     N 3669   4.138   4.797   6.919 -0.3990  0.6385 -0.4306
   28SAPC   C12 3670   4.267   4.767   6.847 -0.3359  0.1327  0.2134
   28SAPC  H12A 3671   4.263   4.812   6.749  4.7665 -1.0287 -0.8046
   28SAPC  H12B 3672   4.273   4.659   6.842  2.3488  0.2710 -2.5413
   28SAPC   C13 3673   4.023   4.740   6.848  0.1400  0.3671 -0.0357
   28SAPC  H13A 3674   3.998   4.789   6.755 -1.3293  1.5795  0.9334
   28SAPC  H13B 3675   4.034   4.634   6.831 -1.3845  0.1468  0.2298
   28SAPC  H13C 3676   3.939   4.756   6.914 -1.0613  0.9956 -1.6477
   28SAPC   C14 3677   4.139   4.743   7.065 -0.2380  0.3394 -0.4565
   28SAPC  H14A 3678   4.195   4.813   7.126 -0.1854  0.3944 -0.5692
   28SAPC  H14B 3679   4.039   4.731   7.105 -0.4511 -0.7723 -1.2622
   28SAPC  H14C 3680   4.195   4.651   7.067 -0.6534  0.0722 -0.9558
   28SAPC   C15 3681   4.118   4.949   6.939 -0.1124 -0.6412 -0.1126
   28SAPC  H15A 3682   4.129   4.995   6.842  0.9807 -0.4945  0.0733
   28SAPC  H15B 3683   4.024   4.975   6.986 -0.1878  0.8798 -1.0312
   28SAPC  H15C 3684   4.203   4.980   6.997 -0.0490 -0.4315 -0.3135
   28SAPC   C11 3685   4.402   4.819   6.906 -0.6941 -0.0491  0.1090
   28SAPC  H11A 3686   4.482   4.762   6.854  0.4779  1.0995  0.5823
   28SAPC  H11B 3687   4.409   4.800   7.016  1.3068 -0.1654 -0.0058
   28SAPC     P 3688   4.445   5.023   6.747  0.1762 -0.1270  0.4286
   28SAPC   O13 3689   4.581   5.000   6.702 -0.3736  0.0370 -0.3688
   28SAPC   O14 3690   4.339   4.980   6.653  0.4513 -0.7790 -1.0706
   28SAPC   O12 3691   4.420   4.958   6.893 -0.5984 -0.2279 -0.0744
   28SAPC   O11 3692   4.427   5.176   6.772 -0.3270 -0.0656 -0.3767
   28SAPC    C1 3693   4.486   5.248   6.882  0.9787  0.8233 -0.0930
   28SAPC    HA 3694   4.576   5.193   6.917 -0.4339 -0.3789  1.8775
   28SAPC    HB 3695   4.516   5.347   6.843 -0.3023  0.8174 -1.1567
   28SAPC    C2 3696   4.370   5.272   6.987  0.3636  0.3732  0.4950
   28SAPC    HS 3697   4.408   5.356   7.049  0.1692 -0.9074  2.4290
   28SAPC   O21 3698   4.357   5.161   7.076 -0.2692  0.4016  0.5039
   28SAPC   C21 3699   4.467   5.129   7.142  0.2028  0.4416  0.0868
   28SAPC   O22 3700   4.576   5.187   7.142  0.4756 -0.0728  0.5514
   28SAPC   C22 3701   4.438   5.018   7.242 -0.4117 -0.4123  0.5752
   28SAPC   H2R 3702   4.394   4.928   7.193  1.5636 -2.0294  1.6142
   28SAPC   H2S 3703   4.541   4.990   7.271  0.0812 -0.3398 -1.0150
   28SAPC    C3 3704   4.239   5.312   6.917  0.1432  0.2537  0.4099
   28SAPC    HX 3705   4.195   5.214   6.886  0.6894 -0.6038  2.1863
   28SAPC    HY 3706   4.255   5.376   6.828 -3.0607 -2.9117 -2.7981
   28SAPC   O31 3707   4.161   5.377   7.021 -0.0125  0.3344  0.8393
   28SAPC   C31 3708   4.064   5.448   6.981 -0.5262 -0.1661  0.5748
   28SAPC   O32 3709   4.048   5.507   6.872  0.3941  0.8332 -0.7826
   28SAPC   C32 3710   3.963   5.450   7.098 -0.3322  0.7428  0.2110
   28SAPC   H2X 3711   3.867   5.498   7.069 -0.6950  0.9337  1.6795
   28SAPC   H2Y 3712   4.016   5.512   7.173  0.4136 -1.3211  1.4998
   28SAPC   C23 3713   4.330   5.052   7.352  0.0322 -0.1157  0.3415
   28SAPC   H3R 3714   4.236   5.092   7.310  1.1130  1.3381 -0.8242
   28SAPC   H3S 3715   4.366   5.133   7.420 -1.7836  0.8144  0.2388
   28SAPC   C24 3716   4.308   4.924   7.445  0.6530 -0.0649  0.0936
   28SAPC   H4R 3717   4.286   4.832   7.388 -1.4256  0.5025 -0.0767
   28SAPC   H4S 3718   4.412   4.913   7.483  0.1087 -0.2442  1.6304
   28SAPC   C25 3719   4.212   4.932   7.565  0.0241 -0.7395 -1.1807
   28SAPC   H5R 3720   4.106   4.920   7.536  0.2537 -1.8998 -1.5923
   28SAPC   C26 3721   4.246   4.946   7.696  0.0074  0.1611 -0.2654
   28SAPC   H6R 3722   4.163   4.942   7.768  0.5366 -1.1635  0.3014
   28SAPC   C27 3723   4.390   4.957   7.751  0.0445  0.2612  0.3044
   28SAPC   H7R 3724   4.468   4.960   7.671  2.5952  0.4482  2.6434
   28SAPC   H7S 3725   4.413   4.862   7.804 -0.7217  0.1462  0.4349
   28SAPC   C28 3726   4.398   5.081   7.833  0.0432  0.3170 -0.1766
   28SAPC   H8R 3727   4.445   5.159   7.771  2.2739  0.3921  1.4839
   28SAPC   C29 3728   4.397   5.092   7.966 -0.3825  0.4603  0.4561
   28SAPC   H9R 3729   4.418   5.185   8.021  0.5138 -0.1034  1.1014
   28SAPC  C210 3730   4.377   4.973   8.056 -0.6573  0.4119  0.7046
   28SAPC  H10R 3731   4.441   4.892   8.015 -0.7293 -0.1413  1.6589
   28SAPC  H10S 3732   4.275   4.930   8.043 -0.1623 -0.2955 -1.2160
   28SAPC  C211 3733   4.413   5.005   8.196 -0.0788 -0.5181 -0.2055
   28SAPC  H11R 3734   4.514   5.039   8.221  0.1039 -1.6547  0.6589
   28SAPC  C212 3735   4.316   5.026   8.291 -0.4133 -0.3448 -0.5240
   28SAPC  H12R 3736   4.348   5.045   8.394 -0.0398 -0.2710 -0.6519
   28SAPC  C213 3737   4.164   4.992   8.275 -0.5251 -0.2208 -0.1768
   28SAPC  H13R 3738   4.133   5.030   8.175  1.2597  0.1479 -0.6300
   28SAPC  H13S 3739   4.104   5.056   8.343 -1.9707 -1.7081  0.0236
   28SAPC  C214 3740   4.131   4.845   8.275  0.4730 -0.0678  0.0800
   28SAPC  H14R 3741   4.196   4.782   8.214  0.2096 -0.6745  0.4195
   28SAPC  C215 3742   4.014   4.789   8.325  0.1145 -0.3386 -0.5273
   28SAPC  H15R 3743   4.012   4.679   8.325 -0.8370 -0.4698  3.6399
   28SAPC  C216 3744   3.911   4.861   8.406  0.4710  0.0800  0.5580
   28SAPC  H16R 3745   3.808   4.831   8.377  0.8916  1.3786 -2.7557
   28SAPC  H16S 3746   3.914   4.971   8.388  2.1926 -0.3382 -2.3869
   28SAPC  C217 3747   3.946   4.836   8.556 -0.5975  0.3151 -0.4917
   28SAPC  H17R 3748   4.046   4.880   8.574 -0.9935  0.2181  2.3260
   28SAPC  H17S 3749   3.970   4.728   8.564  3.2669  0.9925 -1.0855
   28SAPC  C218 3750   3.845   4.880   8.655  0.4125  0.8032 -0.5891
   28SAPC  H18R 3751   3.744   4.843   8.627 -0.3004  0.6060  1.9797
   28SAPC  H18S 3752   3.830   4.990   8.654  2.4477  1.1796  1.3550
   28SAPC  C219 3753   3.887   4.837   8.796  0.3204  0.3328  0.3457
   28SAPC  H19R 3754   3.997   4.851   8.811  0.8315 -0.6609 -2.0436
   28SAPC  H19S 3755   3.863   4.730   8.805 -0.3096  0.3862 -0.6372
   28SAPC  C220 3756   3.822   4.929   8.899  0.8644 -0.7937 -0.7131
   28SAPC  H20R 3757   3.712   4.939   8.888  0.6853  3.2060  2.4625
   28SAPC  H20S 3758   3.865   5.032   8.901 -1.5040  0.2594 -0.4285
   28SAPC  H20T 3759   3.821   4.887   9.001 -1.3035  0.9271  0.0565
   28SAPC   C33 3760   3.936   5.311   7.162  0.9188 -0.2249  0.1882
   28SAPC   H3X 3761   4.030   5.253   7.175  0.4200 -1.5187 -1.5691
   28SAPC   H3Y 3762   3.884   5.247   7.088  0.9962 -0.3700  0.2591
   28SAPC   C34 3763   3.851   5.320   7.287  0.2720  0.1966 -0.0307
   28SAPC   H4X 3764   3.813   5.221   7.320 -0.8663  0.6906  0.1878
   28SAPC   H4Y 3765   3.767   5.391   7.273 -2.3404 -2.9415 -1.7123
   28SAPC   C35 3766   3.929   5.374   7.411  0.5564 -0.0681 -0.0850
   28SAPC   H5X 3767   3.863   5.383   7.500  0.7588  0.6514  0.0000
   28SAPC   H5Y 3768   3.960   5.480   7.400 -1.4562  0.7834  1.6686
   28SAPC   C36 3769   4.057   5.293   7.438  0.5299 -0.0320 -0.5168
   28SAPC   H6X 3770   4.113   5.298   7.342  0.1714 -0.5146 -0.7566
   28SAPC   H6Y 3771   4.034   5.192   7.479 -0.9083  0.7948  0.7996
   28SAPC   C37 3772   4.147   5.349   7.551 -0.3835 -0.1209  0.2710
   28SAPC   H7X 3773   4.171   5.458   7.546  2.9516 -0.7972 -0.9124
   28SAPC   H7Y 3774   4.246   5.299   7.547  0.8450  2.2190 -0.1930
   28SAPC   C38 3775   4.079   5.323   7.687 -0.4629  0.0122 -0.3257
   28SAPC   H8X 3776   4.069   5.213   7.699 -0.9879 -0.3060 -2.9185
   28SAPC   H8Y 3777   3.974   5.358   7.694 -0.6770 -0.7504  0.4129
   28SAPC   C39 3778   4.165   5.379   7.801 -0.0812 -0.2473  0.0166
   28SAPC   H9X 3779   4.166   5.490   7.794 -0.5210 -0.2746 -0.6428
   28SAPC   H9Y 3780   4.270   5.346   7.798  0.1726  0.5354 -0.0001
   28SAPC  C310 3781   4.109   5.345   7.936 -0.2801 -0.1502 -0.5257
   28SAPC  H10X 3782   4.103   5.235   7.946 -0.1024 -0.2331 -1.2931
   28SAPC  H10Y 3783   4.004   5.377   7.954  0.4408  1.3853  1.4153
   28SAPC  C311 3784   4.195   5.399   8.054  0.6851  0.1239  0.0889
   28SAPC  H11X 3785   4.183   5.510   8.051  2.9852  0.4440  1.0675
   28SAPC  H11Y 3786   4.300   5.371   8.032  0.8193 -1.0325  1.9690
   28SAPC  C312 3787   4.138   5.350   8.185  0.1368 -0.0365 -0.0042
   28SAPC  H12X 3788   4.215   5.344   8.264 -0.6866 -0.2129  0.7922
   28SAPC  H12Y 3789   4.107   5.245   8.168 -1.0519 -0.1220  2.3265
   28SAPC  C313 3790   4.026   5.432   8.246  0.0118 -1.0660 -0.3266
   28SAPC  H13X 3791   3.977   5.481   8.160  0.7811  0.0910 -0.1253
   28SAPC  H13Y 3792   4.060   5.525   8.297 -2.9225 -0.7987  1.3973
   28SAPC  C314 3793   3.929   5.378   8.349 -0.2500  0.5624  0.7046
   28SAPC  H14X 3794   3.896   5.279   8.310 -0.9375  1.1434 -0.2496
   28SAPC  H14Y 3795   3.837   5.441   8.354 -1.4479 -0.9400 -0.9426
   28SAPC  C315 3796   3.987   5.372   8.488  0.6091  0.0444  0.0277
   28SAPC  H15X 3797   3.919   5.300   8.539 -0.8988  1.1486 -0.3591
   28SAPC  H15Y 3798   3.970   5.461   8.553  0.5323 -0.7710  1.1636
   28SAPC  C316 3799   4.135   5.325   8.500  0.0535 -0.7510  0.6636
   28SAPC  H16X 3800   4.195   5.415   8.477 -0.2569 -0.4856  0.8771
   28SAPC  H16Y 3801   4.161   5.247   8.426  0.5403  0.0639 -0.0326
   28SAPC  C317 3802   4.182   5.284   8.643  0.5389  0.0934  0.5107
   28SAPC  H17X 3803   4.193   5.381   8.697 -3.5277  0.5165  0.8344
   28SAPC  H17Y 3804   4.284   5.241   8.627  0.8909  0.7830  0.8501
   28SAPC  C318 3805   4.097   5.188   8.714  0.3552  0.6675 -0.0866
   28SAPC  H18X 3806   4.062   5.115   8.638  1.8563 -0.4076  0.1969
   28SAPC  H18Y 3807   4.015   5.243   8.763  0.5534  1.7054 -0.8927
   28SAPC  H18Z 3808   4.144   5.134   8.800  0.6985 -0.1979 -0.7981
   29SAPC     N 3809   0.682   5.111   6.440 -0.1419  0.3433 -0.1518
   29SAPC   C12 3810   0.674   5.012   6.558 -0.7997  0.3901  0.3123
   29SAPC  H12A 3811   0.746   5.042   6.632 -2.5314  4.2854  0.6698
   29SAPC  H12B 3812   0.708   4.917   6.519  2.3792  1.0365  1.2835
   29SAPC   C13 3813   0.823   5.118   6.393  0.6777 -0.6045 -0.2263
   29SAPC  H13A 3814   0.835   5.171   6.300 -1.2550 -0.2772 -0.3362
   29SAPC  H13B 3815   0.894   5.148   6.468 -0.5578 -1.3280  1.2933
   29SAPC  H13C 3816   0.863   5.022   6.363 -0.6800 -0.9959 -0.8764
   29SAPC   C14 3817   0.599   5.058   6.327  0.2947 -0.6998  0.2147
   29SAPC  H14A 3818   0.605   5.124   6.242 -0.3790  0.0340  0.7226
   29SAPC  H14B 3819   0.635   4.964   6.288  1.2760 -0.1010 -0.3517
   29SAPC  H14C 3820   0.499   5.029   6.356 -0.0627 -0.3521 -0.6686
   29SAPC   C15 3821   0.630   5.242   6.489 -0.4232  0.0171  0.0815
   29SAPC  H15A 3822   0.686   5.281   6.572 -2.5063  0.2048  1.4800
   29SAPC  H15B 3823   0.632   5.319   6.413 -1.6750  0.6266  0.6298
   29SAPC  H15C 3824   0.526   5.233   6.519 -0.1759 -3.3869  0.3080
   29SAPC   C11 3825   0.542   4.979   6.633 -0.3460  0.2809 -0.6549
   29SAPC  H11A 3826   0.521   5.065   6.701 -1.1854  0.9084 -1.6680
   29SAPC  H11B 3827   0.553   4.892   6.701 -1.8723 -0.0859 -0.8325
   29SAPC     P 3828   0.376   4.817   6.507  0.5577  0.1773 -0.4781
   29SAPC   O13 3829   0.312   4.818   6.370 -0.4502 -0.0955  0.0135
   29SAPC   O14 3830   0.482   4.719   6.525  0.0019 -0.0978 -0.4242
   29SAPC   O12 3831   0.422   4.968   6.553 -0.5281 -0.1950 -0.2097
   29SAPC   O11 3832   0.265   4.788   6.619  0.4762  0.7196  0.0493
   29SAPC    C1 3833   0.157   4.882   6.630  1.1373 -0.2770 -0.5875
   29SAPC    HA 3834   0.170   4.984   6.587  0.2914 -0.3457 -1.0332
   29SAPC    HB 3835   0.068   4.841   6.577  2.2280 -2.2928 -0.9554
   29SAPC    C2 3836   0.107   4.887   6.781 -0.0430  0.5148 -0.5160
   29SAPC    HS 3837   0.017   4.953   6.783 -1.2697 -1.0796 -0.6588
   29SAPC   O21 3838   0.207   4.916   6.877 -0.5021  0.1917  0.6590
   29SAPC   C21 3839   0.252   5.043   6.870 -0.6616 -0.4915 -0.2379
   29SAPC   O22 3840   0.210   5.132   6.796 -0.0052  0.0366  0.0388
   29SAPC   C22 3841   0.367   5.072   6.971 -0.7284  0.2843 -0.1443
   29SAPC   H2R 3842   0.336   5.041   7.073  2.1920 -1.1302  0.4370
   29SAPC   H2S 3843   0.450   5.002   6.947 -0.6143  0.6088 -0.7064
   29SAPC    C3 3844   0.042   4.754   6.818  0.9194  0.1216 -0.8468
   29SAPC    HX 3845   0.116   4.671   6.807  2.2422  1.1500 -0.0233
   29SAPC    HY 3846  -0.051   4.742   6.759  1.2521  0.0646 -1.3703
   29SAPC   O31 3847   0.008   4.764   6.958 -0.4957 -0.0435  0.3400
   29SAPC   C31 3848  -0.012   4.660   7.030 -0.2758 -0.3661  0.4856
   29SAPC   O32 3849  -0.023   4.551   6.977  0.7121 -0.0011 -0.4670
   29SAPC   C32 3850  -0.043   4.692   7.177  0.3226 -0.4777  0.0446
   29SAPC   H2X 3851  -0.145   4.735   7.193 -0.6241 -3.3346  2.7191
   29SAPC   H2Y 3852   0.037   4.760   7.214  1.0480 -0.7518 -0.9955
   29SAPC   C23 3853   0.416   5.218   6.971  0.0325 -0.5835 -0.0809
   29SAPC   H3R 3854   0.330   5.288   6.973  0.2979 -0.0901 -2.6041
   29SAPC   H3S 3855   0.474   5.250   6.882 -0.5602  1.1807  0.1313
   29SAPC   C24 3856   0.501   5.250   7.095 -0.0360 -0.1659  0.1216
   29SAPC   H4R 3857   0.550   5.349   7.088 -0.6607  0.1889  0.6334
   29SAPC   H4S 3858   0.587   5.180   7.101  0.8816  0.9550  0.4463
   29SAPC   C25 3859   0.420   5.240   7.222 -0.1005  0.6578  0.1842
   29SAPC   H5R 3860   0.323   5.291   7.214 -0.9700 -0.8538  0.6579
   29SAPC   C26 3861   0.440   5.164   7.338 -0.5143  0.6199  0.3270
   29SAPC   H6R 3862   0.368   5.171   7.421 -1.9776 -2.6287 -0.5095
   29SAPC   C27 3863   0.565   5.079   7.370  0.4076  0.8809  0.3822
   29SAPC   H7R 3864   0.597   5.021   7.280 -1.9451 -1.6328  1.0293
   29SAPC   H7S 3865   0.530   4.996   7.434 -0.3404 -0.3608 -1.5273
   29SAPC   C28 3866   0.669   5.172   7.428 -0.0669  0.7191 -0.5047
   29SAPC   H8R 3867   0.729   5.223   7.351 -0.6056 -0.8797 -2.0395
   29SAPC   C29 3868   0.701   5.198   7.557  0.6001  0.7452  0.5617
   29SAPC   H9R 3869   0.786   5.267   7.567  0.9893  0.1715  1.3723
   29SAPC  C210 3870   0.633   5.124   7.673 -0.5233  0.0790  0.9493
   29SAPC  H10R 3871   0.690   5.047   7.729 -0.0089  0.4960  1.0088
   29SAPC  H10S 3872   0.540   5.070   7.644 -0.1491  0.7925 -1.8441
   29SAPC  C211 3873   0.601   5.235   7.770  0.9073 -0.3766 -0.4696
   29SAPC  H11R 3874   0.549   5.319   7.722  1.6363  1.0641  1.1255
   29SAPC  C212 3875   0.643   5.253   7.896 -0.0139  0.0797 -0.6767
   29SAPC  H12R 3876   0.608   5.347   7.943  0.3077  0.0641 -0.4024
   29SAPC  C213 3877   0.734   5.161   7.977  0.1723  0.5937  0.2207
   29SAPC  H13R 3878   0.793   5.236   8.034  2.9566  0.7482 -2.6079
   29SAPC  H13S 3879   0.808   5.118   7.906  1.1302 -1.7642  2.4515
   29SAPC  C214 3880   0.679   5.036   8.049 -0.6361  0.5750  0.1927
   29SAPC  H14R 3881   0.670   4.943   7.992  2.6812 -0.2594  0.8290
   29SAPC  C215 3882   0.658   5.018   8.176  0.2865 -0.5753  0.5828
   29SAPC  H15R 3883   0.624   4.918   8.207  0.6838 -0.4099  1.5928
   29SAPC  C216 3884   0.681   5.114   8.286 -0.2519  0.1841 -0.9492
   29SAPC  H16R 3885   0.590   5.127   8.348 -0.2990 -0.6131 -0.8469
   29SAPC  H16S 3886   0.693   5.217   8.246 -0.0626  0.7454  0.4692
   29SAPC  C217 3887   0.799   5.078   8.376 -0.5132 -0.6408  0.5247
   29SAPC  H17R 3888   0.831   5.154   8.451 -0.0327  0.2721 -0.5719
   29SAPC  H17S 3889   0.891   5.066   8.314 -0.5922  1.2918 -0.0566
   29SAPC  C218 3890   0.795   4.953   8.466  1.5416  0.1610  0.8519
   29SAPC  H18R 3891   0.887   4.940   8.526  0.8172  0.0965  1.9778
   29SAPC  H18S 3892   0.786   4.869   8.394  2.3762  0.9522 -0.2081
   29SAPC  C219 3893   0.664   4.955   8.554 -0.3497 -0.6461  0.7313
   29SAPC  H19R 3894   0.578   4.949   8.484  0.9255 -0.0390 -0.9474
   29SAPC  H19S 3895   0.661   5.052   8.608 -1.2314 -0.8506  1.0594
   29SAPC  C220 3896   0.661   4.841   8.658 -0.6304 -0.0146  0.4519
   29SAPC  H20R 3897   0.580   4.861   8.732  0.6323  1.9068  1.4164
   29SAPC  H20S 3898   0.749   4.845   8.726 -1.1167  0.1873  1.0856
   29SAPC  H20T 3899   0.654   4.742   8.608  1.0448  0.3969 -0.7006
   29SAPC   C33 3900  -0.043   4.576   7.275  0.5189  0.0505 -0.1285
   29SAPC   H3X 3901   0.060   4.551   7.307  0.4730 -0.2538 -0.2180
   29SAPC   H3Y 3902  -0.101   4.484   7.252 -2.1032  1.4981  0.3388
   29SAPC   C34 3903  -0.101   4.626   7.411  0.0739  1.2062 -0.2385
   29SAPC   H4X 3904  -0.211   4.639   7.397 -0.2390  2.9293  3.0535
   29SAPC   H4Y 3905  -0.048   4.716   7.445  2.8027 -0.7751  1.1314
   29SAPC   C35 3906  -0.082   4.523   7.524  0.2438 -0.0720 -0.8962
   29SAPC   H5X 3907   0.027   4.505   7.536  0.2112  1.1377  1.9096
   29SAPC   H5Y 3908  -0.123   4.423   7.497  2.2923 -0.5888 -2.3320
   29SAPC   C36 3909  -0.132   4.571   7.662  0.4703  0.2976 -0.0921
   29SAPC   H6X 3910  -0.236   4.552   7.694  1.3232  1.1685  3.5788
   29SAPC   H6Y 3911  -0.115   4.680   7.676 -1.6841  0.6790 -0.0106
   29SAPC   C37 3912  -0.042   4.521   7.773 -0.2235  0.7542  0.1941
   29SAPC   H7X 3913   0.059   4.564   7.755  0.2157 -0.0585  0.6775
   29SAPC   H7Y 3914  -0.020   4.413   7.765 -0.2812  0.7643 -0.1458
   29SAPC   C38 3915  -0.097   4.558   7.912  0.0203 -0.3322 -0.4196
   29SAPC   H8X 3916  -0.207   4.543   7.914 -0.0318  0.0430 -0.4774
   29SAPC   H8Y 3917  -0.077   4.666   7.930 -0.3762 -0.2222 -0.6368
   29SAPC   C39 3918  -0.042   4.470   8.025 -0.7061  0.1010  0.0841
   29SAPC   H9X 3919   0.067   4.494   8.022 -0.2112 -1.8333  1.1651
   29SAPC   H9Y 3920  -0.058   4.361   8.013  0.8388 -0.0847 -0.5744
   29SAPC  C310 3921  -0.090   4.515   8.159  0.0217  0.1730  0.4028
   29SAPC  H10X 3922  -0.200   4.504   8.170  0.1315 -0.7044  0.7154
   29SAPC  H10Y 3923  -0.075   4.625   8.163 -1.1546  0.4040 -0.8543
   29SAPC  C311 3924  -0.025   4.441   8.274 -0.0673  0.3397 -0.5783
   29SAPC  H11X 3925   0.085   4.452   8.265  0.1036 -0.1737  0.6926
   29SAPC  H11Y 3926  -0.038   4.331   8.278  1.9783  0.1076  1.1256
   29SAPC  C312 3927  -0.083   4.486   8.400  0.3441 -0.5839 -0.2311
   29SAPC  H12X 3928  -0.192   4.464   8.395 -0.4734  2.7029  0.8104
   29SAPC  H12Y 3929  -0.086   4.593   8.430 -0.3803 -1.4634  3.2265
   29SAPC  C313 3930  -0.035   4.403   8.518  0.3629 -0.2619  0.0006
   29SAPC  H13X 3931   0.076   4.404   8.513  0.3781 -1.5944 -0.2120
   29SAPC  H13Y 3932  -0.066   4.297   8.510 -1.2881  0.2343 -0.5342
   29SAPC  C314 3933  -0.077   4.466   8.654  0.6575  0.0617 -0.1625
   29SAPC  H14X 3934  -0.187   4.467   8.670  0.7833  1.5220  0.8505
   29SAPC  H14Y 3935  -0.044   4.571   8.664  1.6164 -0.3179  0.9265
   29SAPC  C315 3936  -0.018   4.389   8.775 -0.1494 -0.0834 -0.3918
   29SAPC  H15X 3937   0.092   4.388   8.759 -0.2558  1.7124 -1.4274
   29SAPC  H15Y 3938  -0.057   4.285   8.779  0.1774 -0.1693  1.8893
   29SAPC  C316 3939  -0.057   4.452   8.907  0.5403 -0.0824 -0.0436
   29SAPC  H16X 3940  -0.029   4.559   8.904 -2.5354  0.7978 -1.1312
   29SAPC  H16Y 3941  -0.011   4.393   8.989  2.6607 -0.1492 -1.2199
   29SAPC  C317 3942  -0.205   4.460   8.952  0.5230  0.1219  0.4589
   29SAPC  H17X 3943  -0.269   4.515   8.878  0.1630 -2.6681 -1.4480
   29SAPC  H17Y 3944  -0.213   4.510   9.051 -1.1974 -3.0678  2.0856
   29SAPC  C318 3945  -0.268   4.319   8.958  0.2708  1.0541  0.2501
   29SAPC  H18X 3946  -0.379   4.316   8.964  0.3214 -0.9344  0.7778
   29SAPC  H18Y 3947  -0.232   4.256   9.042  0.5428 -0.9032 -1.2679
   29SAPC  H18Z 3948  -0.239   4.259   8.869  2.3971 -0.0592  1.6163
   30SAPC     N 3949   6.524   2.992   6.023 -0.6348 -0.6692 -0.2374
   30SAPC   C12 3950   6.469   3.013   6.161 -0.7167  0.2227  0.7792
   30SAPC  H12A 3951   6.393   2.938   6.174  0.0500 -0.7109  0.0178
   30SAPC  H12B 3952   6.423   3.111   6.163 -1.5521  0.0075 -2.2044
   30SAPC   C13 3953   6.635   3.088   5.995 -0.1746  0.0109  0.7257
   30SAPC  H13A 3954   6.598   3.189   5.995  0.1692  0.1404  0.0990
   30SAPC  H13B 3955   6.701   3.078   6.080  1.6688 -1.4573 -0.7747
   30SAPC  H13C 3956   6.686   3.074   5.901  2.5134  2.0182  1.7435
   30SAPC   C14 3957   6.584   2.853   6.013  0.5855 -0.6505  0.0611
   30SAPC  H14A 3958   6.502   2.784   6.024 -2.3748  2.5441 -0.0375
   30SAPC  H14B 3959   6.635   2.831   5.921  2.8374  0.3865  0.9833
   30SAPC  H14C 3960   6.659   2.844   6.090 -0.5873  0.3107  1.3827
   30SAPC   C15 3961   6.416   3.004   5.927 -0.0885  0.0831  0.3373
   30SAPC  H15A 3962   6.451   2.988   5.827  1.5890 -2.7074  1.2415
   30SAPC  H15B 3963   6.333   2.934   5.930  1.5640 -2.3454 -3.2732
   30SAPC  H15C 3964   6.370   3.102   5.932 -1.3137 -0.4935  1.0119
   30SAPC   C11 3965   6.565   3.003   6.285 -0.5591  0.3536 -0.3830
   30SAPC  H11A 3966   6.625   2.910   6.283  1.9089  1.8322 -0.0348
   30SAPC  H11B 3967   6.493   3.010   6.370  0.6865 -1.9546  0.9431
   30SAPC     P 3968   6.613   3.243   6.369 -0.8812  0.2145 -0.2541
   30SAPC   O13 3969   6.691   3.351   6.309  0.2758 -0.3614 -0.6759
   30SAPC   O14 3970   6.467   3.262   6.369  0.8900  0.6580  0.3178
   30SAPC   O12 3971   6.656   3.116   6.294 -0.2259  0.0200  0.2277
   30SAPC   O11 3972   6.663   3.213   6.516 -0.6009  0.3238 -0.2915
   30SAPC    C1 3973   6.792   3.196   6.563  0.2937 -0.6069  0.1171
   30SAPC    HA 3974   6.860   3.173   6.478  0.8374  0.8789  0.1220
   30SAPC    HB 3975   6.837   3.290   6.600 -0.7601  0.2595 -0.7490
   30SAPC    C2 3976   6.792   3.076   6.665  0.8660 -0.3685  0.0899
   30SAPC    HS 3977   6.728   2.989   6.636  1.1708 -0.8577  0.8544
   30SAPC   O21 3978   6.734   3.132   6.781 -0.4781 -0.0275 -0.0418
   30SAPC   C21 3979   6.680   3.053   6.873 -0.4895 -0.0154 -0.5092
   30SAPC   O22 3980   6.676   2.930   6.861  0.1600 -0.3417 -0.3108
   30SAPC   C22 3981   6.615   3.146   6.972 -0.1806  0.3146 -0.5893
   30SAPC   H2R 3982   6.690   3.211   7.022 -1.1030  0.9499  0.0082
   30SAPC   H2S 3983   6.549   3.221   6.922  0.2189  3.6455  3.3423
   30SAPC    C3 3984   6.924   3.010   6.692  0.4442 -0.2603  0.1203
   30SAPC    HX 3985   6.950   2.945   6.605  0.5762  1.4032 -1.1268
   30SAPC    HY 3986   6.915   2.946   6.783 -1.0611  0.6360  0.6271
   30SAPC   O31 3987   7.030   3.106   6.715 -0.0423  0.3084  0.4004
   30SAPC   C31 3988   7.142   3.059   6.763 -0.5318 -0.4341 -0.2668
   30SAPC   O32 3989   7.174   2.946   6.788 -0.3062  0.6973  0.7100
   30SAPC   C32 3990   7.227   3.178   6.812 -0.2788  0.1668 -0.0121
   30SAPC   H2X 3991   7.270   3.226   6.721 -1.0340 -2.5793 -1.9769
   30SAPC   H2Y 3992   7.316   3.133   6.861 -1.3849 -1.9230  0.2122
   30SAPC   C23 3993   6.523   3.075   7.080  0.0092 -0.3164 -0.4265
   30SAPC   H3R 3994   6.454   2.995   7.046 -1.4390  1.1449 -1.0234
   30SAPC   H3S 3995   6.458   3.149   7.132  0.7637  1.0927 -1.4175
   30SAPC   C24 3996   6.613   3.014   7.191  0.4897  0.4630  0.6835
   30SAPC   H4R 3997   6.687   3.092   7.220 -0.5280  2.4702 -1.6841
   30SAPC   H4S 3998   6.672   2.942   7.130  0.0011  0.3259  0.3743
   30SAPC   C25 3999   6.542   2.947   7.308 -0.4092  0.1195 -0.4207
   30SAPC   H5R 4000   6.482   2.860   7.277 -0.2344 -0.0855 -0.1809
   30SAPC   C26 4001   6.553   2.986   7.435  0.5872  0.0746 -0.4114
   30SAPC   H6R 4002   6.495   2.941   7.517  0.3675  0.4358 -0.3641
   30SAPC   C27 4003   6.625   3.106   7.484  0.3728  0.1318  0.0376
   30SAPC   H7R 4004   6.675   3.175   7.414  1.8064  0.9352  1.7702
   30SAPC   H7S 4005   6.707   3.071   7.550 -0.6936 -3.2798 -0.2105
   30SAPC   C28 4006   6.530   3.188   7.566 -0.0850 -0.0708 -0.8814
   30SAPC   H8R 4007   6.441   3.237   7.524 -1.3234  0.1113  1.7299
   30SAPC   C29 4008   6.548   3.213   7.698 -0.4066  0.1683  0.2405
   30SAPC   H9R 4009   6.478   3.288   7.738 -1.0800  0.8750 -2.0851
   30SAPC  C210 4010   6.657   3.175   7.789  0.7432  0.5159  0.4111
   30SAPC  H10R 4011   6.697   3.266   7.838  0.7314  0.2052  0.9950
   30SAPC  H10S 4012   6.742   3.124   7.738  0.9010  0.0838  1.1072
   30SAPC  C211 4013   6.597   3.079   7.887  0.3942 -0.3491  0.7751
   30SAPC  H11R 4014   6.560   2.986   7.842 -2.5411  1.2498 -0.4465
   30SAPC  C212 4015   6.586   3.104   8.018  0.1540 -0.0435  0.0381
   30SAPC  H12R 4016   6.539   3.029   8.083  0.3099  0.9691  1.3560
   30SAPC  C213 4017   6.625   3.218   8.106  0.8471 -0.2240  0.7499
   30SAPC  H13R 4018   6.614   3.311   8.046  0.2551 -0.6597  0.1591
   30SAPC  H13S 4019   6.731   3.223   8.137  0.7829 -0.6034  1.0311
   30SAPC  C214 4020   6.542   3.228   8.232  0.1439 -0.4641 -0.6556
   30SAPC  H14R 4021   6.465   3.304   8.214  0.4460 -0.0669 -0.3002
   30SAPC  C215 4022   6.555   3.156   8.342 -0.5027 -0.7022 -1.2047
   30SAPC  H15R 4023   6.484   3.167   8.425 -0.0987 -0.3065 -0.9035
   30SAPC  C216 4024   6.655   3.041   8.360  0.0739 -0.4306 -0.0519
   30SAPC  H16R 4025   6.753   3.078   8.396 -0.7433  0.2101  1.6322
   30SAPC  H16S 4026   6.652   2.968   8.276 -1.7455 -0.0822 -0.3348
   30SAPC  C217 4027   6.585   2.968   8.484 -0.2954  0.4044  0.2721
   30SAPC  H17R 4028   6.620   2.862   8.488 -0.1920  0.4391  0.2920
   30SAPC  H17S 4029   6.477   2.963   8.462  0.1572 -0.7169 -1.9941
   30SAPC  C218 4030   6.623   3.036   8.613 -0.0069 -0.3375  0.9507
   30SAPC  H18R 4031   6.641   3.146   8.605  1.7251 -0.5460  1.4794
   30SAPC  H18S 4032   6.727   3.013   8.646  0.4558  0.9057  0.4425
   30SAPC  C219 4033   6.523   3.011   8.727  0.5329  0.1160  0.1425
   30SAPC  H19R 4034   6.573   2.957   8.811  0.6240 -2.2400 -1.3150
   30SAPC  H19S 4035   6.454   2.928   8.698 -0.5693  0.0944  2.5283
   30SAPC  C220 4036   6.439   3.141   8.774 -0.7374  0.1253 -0.2846
   30SAPC  H20R 4037   6.366   3.172   8.696  0.3815  1.2257 -0.9385
   30SAPC  H20S 4038   6.501   3.229   8.803  0.1793 -0.2758 -0.9563
   30SAPC  H20T 4039   6.383   3.099   8.860 -1.3046 -2.2161 -1.7119
   30SAPC   C33 4040   7.152   3.271   6.910 -0.7185 -0.0493 -0.2608
   30SAPC   H3X 4041   7.056   3.314   6.872 -0.0589 -1.6473 -4.2420
   30SAPC   H3Y 4042   7.221   3.355   6.930 -1.2589  0.2942  0.1993
   30SAPC   C34 4043   7.131   3.213   7.053 -0.9010  0.1909  0.6371
   30SAPC   H4X 4044   7.227   3.219   7.109 -1.4131 -0.9645  1.6834
   30SAPC   H4Y 4045   7.109   3.104   7.051 -3.1177  0.5537  1.7472
   30SAPC   C35 4046   7.018   3.286   7.126 -0.2160  0.4974 -0.5099
   30SAPC   H5X 4047   6.929   3.288   7.059  0.0583  0.6519 -0.8729
   30SAPC   H5Y 4048   7.060   3.387   7.147  2.5370 -0.7104  0.2136
   30SAPC   C36 4049   6.974   3.231   7.268  0.4051  0.6072 -0.3696
   30SAPC   H6X 4050   6.978   3.121   7.256  2.9919  0.7316 -1.3414
   30SAPC   H6Y 4051   6.868   3.262   7.275 -0.2186 -1.6354  0.8277
   30SAPC   C37 4052   7.056   3.280   7.388 -0.0823  0.1868 -0.1419
   30SAPC   H7X 4053   7.038   3.388   7.405 -1.7932 -0.1932  0.6734
   30SAPC   H7Y 4054   7.163   3.255   7.370  0.7057  1.7805  1.8926
   30SAPC   C38 4055   6.996   3.213   7.514  0.0454  0.0222 -0.1295
   30SAPC   H8X 4056   7.005   3.102   7.504  0.6868  0.1461 -1.0956
   30SAPC   H8Y 4057   6.890   3.244   7.517 -0.0485 -0.1035 -1.6413
   30SAPC   C39 4058   7.069   3.263   7.643 -0.1618  0.2251 -0.2539
   30SAPC   H9X 4059   7.076   3.374   7.636 -0.2498  0.1178 -3.0540
   30SAPC   H9Y 4060   7.176   3.236   7.637 -0.0938  0.4658 -0.1268
   30SAPC  C310 4061   6.998   3.210   7.770  0.2791  0.6968  0.3221
   30SAPC  H10X 4062   6.985   3.100   7.762  1.0573  0.5615  0.8683
   30SAPC  H10Y 4063   6.899   3.261   7.774 -0.2372 -0.3615  2.1290
   30SAPC  C311 4064   7.070   3.242   7.899 -0.2375  0.6947  0.3098
   30SAPC  H11X 4065   7.096   3.350   7.900  1.4678  0.3403 -0.8677
   30SAPC  H11Y 4066   7.172   3.201   7.915 -0.5271  1.2506  4.8955
   30SAPC  C312 4067   6.996   3.191   8.019  0.1419  0.3413 -0.3678
   30SAPC  H12X 4068   6.976   3.082   8.009 -1.9257  0.4904  1.2909
   30SAPC  H12Y 4069   6.905   3.255   8.021  1.7542  2.7431 -0.4971
   30SAPC  C313 4070   7.078   3.215   8.146  0.3652  0.0388  0.8771
   30SAPC  H13X 4071   7.088   3.325   8.136 -1.3566  0.2608  1.2442
   30SAPC  H13Y 4072   7.177   3.163   8.142  1.9929  2.9225  1.3108
   30SAPC  C314 4073   7.003   3.186   8.269  0.0269  0.3079  0.0031
   30SAPC  H14X 4074   6.979   3.077   8.265  1.8718 -0.1146 -0.1950
   30SAPC  H14Y 4075   6.907   3.239   8.291 -0.5156 -1.5279  2.5814
   30SAPC  C315 4076   7.086   3.198   8.395 -0.3184  0.0629  0.0243
   30SAPC  H15X 4077   7.145   3.293   8.396  0.1741 -0.2284 -0.7391
   30SAPC  H15Y 4078   7.161   3.117   8.404  1.2796  1.6940  2.9267
   30SAPC  C316 4079   7.006   3.179   8.525 -0.3741  1.3529  0.3271
   30SAPC  H16X 4080   6.949   3.084   8.518 -0.6269  1.6295 -3.6919
   30SAPC  H16Y 4081   6.936   3.265   8.533 -0.6538  1.2350 -0.8150
   30SAPC  C317 4082   7.100   3.170   8.656 -0.2200  0.0247 -0.0770
   30SAPC  H17X 4083   7.136   3.272   8.684 -0.2251  0.4467 -1.5215
   30SAPC  H17Y 4084   7.183   3.099   8.637 -2.2002 -2.3647 -0.3705
   30SAPC  C318 4085   7.026   3.108   8.776  0.3130 -0.2683 -0.8318
   30SAPC  H18X 4086   6.969   3.015   8.752  0.5012 -0.2554 -1.3524
   30SAPC  H18Y 4087   6.966   3.190   8.821  0.0464 -1.1950  0.5545
   30SAPC  H18Z 4088   7.097   3.084   8.857  0.2788  0.4530 -0.5811
   31SAPC     N 4089   1.723   3.567   6.249  0.8707 -0.4686  0.0961
   31SAPC   C12 4090   1.821   3.545   6.360  0.5708 -0.8185 -0.1479
   31SAPC  H12A 4091   1.908   3.608   6.353 -0.8341  1.1948 -0.5581
   31SAPC  H12B 4092   1.860   3.444   6.355  2.2442 -0.1781 -0.4165
   31SAPC   C13 4093   1.673   3.711   6.248 -0.1360  0.4127  0.0014
   31SAPC  H13A 4094   1.585   3.711   6.185  0.1615 -4.2408 -0.7354
   31SAPC  H13B 4095   1.647   3.740   6.349  1.5833 -0.3206  0.6796
   31SAPC  H13C 4096   1.752   3.777   6.217 -1.2584  1.7211 -0.2017
   31SAPC   C14 4097   1.795   3.556   6.115 -0.0567 -0.0311  0.7022
   31SAPC  H14A 4098   1.733   3.557   6.027  1.9225  1.3634 -0.7754
   31SAPC  H14B 4099   1.863   3.639   6.101 -0.2246  0.1279  0.8366
   31SAPC  H14C 4100   1.846   3.461   6.119  1.8714  0.7486 -2.0711
   31SAPC   C15 4101   1.608   3.479   6.254  0.3285 -0.3811 -0.0686
   31SAPC  H15A 4102   1.542   3.514   6.332  0.0506 -1.1671  0.0572
   31SAPC  H15B 4103   1.548   3.469   6.164  0.1402 -0.6209  0.0806
   31SAPC  H15C 4104   1.641   3.380   6.282  1.0159 -0.0511  0.3126
   31SAPC   C11 4105   1.769   3.578   6.498 -0.1874  0.3091 -0.5855
   31SAPC  H11A 4106   1.814   3.510   6.573 -2.4650  0.5034  1.0820
   31SAPC  H11B 4107   1.663   3.543   6.504  0.1098 -0.5215  0.2228
   31SAPC     P 4108   1.903   3.789   6.560 -0.0106 -0.2610  0.0186
   31SAPC   O13 4109   2.018   3.726   6.483  0.4285 -0.5613  0.3503
   31SAPC   O14 4110   1.874   3.929   6.525 -0.2265  0.5508  0.2048
   31SAPC   O12 4111   1.769   3.715   6.535 -0.5614 -0.0402 -0.7771
   31SAPC   O11 4112   1.927   3.780   6.719 -0.3763 -0.0105 -0.2274
   31SAPC    C1 4113   1.826   3.720   6.802  0.5254  0.4422  0.1451
   31SAPC    HA 4114   1.730   3.777   6.805  0.5895  0.6031 -0.5954
   31SAPC    HB 4115   1.804   3.618   6.763 -0.7305  0.2428  1.2965
   31SAPC    C2 4116   1.872   3.690   6.947 -0.0613  0.0510 -0.8065
   31SAPC    HS 4117   1.808   3.621   7.006  0.0957  1.4739  1.1515
   31SAPC   O21 4118   1.888   3.812   7.015  0.1626 -0.1225 -0.9581
   31SAPC   C21 4119   1.784   3.856   7.083  0.4534 -0.3795  0.2955
   31SAPC   O22 4120   1.678   3.796   7.098  0.3448 -0.2455  0.6936
   31SAPC   C22 4121   1.799   3.994   7.131  1.1237 -0.2688 -0.5766
   31SAPC   H2R 4122   1.822   4.071   7.054  1.7101 -0.4061 -0.5400
   31SAPC   H2S 4123   1.695   4.028   7.151  0.8750 -0.9297 -0.7214
   31SAPC    C3 4124   2.013   3.624   6.943  0.4890 -0.5395  0.1215
   31SAPC    HX 4125   2.077   3.705   6.904  0.5199 -0.2646  0.7358
   31SAPC    HY 4126   2.015   3.536   6.874  1.1281 -0.7959  0.4529
   31SAPC   O31 4127   2.051   3.571   7.072 -0.8307  0.2745  0.0206
   31SAPC   C31 4128   2.157   3.625   7.142  0.3072 -0.0750 -0.1678
   31SAPC   O32 4129   2.222   3.715   7.103 -0.0025 -0.3542  0.1804
   31SAPC   C32 4130   2.184   3.555   7.272 -0.0724  0.1024  0.0513
   31SAPC   H2X 4131   2.234   3.460   7.241 -1.4186 -0.4534 -0.5346
   31SAPC   H2Y 4132   2.090   3.525   7.323  0.0943  0.9957  0.9076
   31SAPC   C23 4133   1.897   4.005   7.249  0.0287 -0.4671  0.1989
   31SAPC   H3R 4134   1.910   4.115   7.255  1.1547 -0.6142  0.8044
   31SAPC   H3S 4135   1.998   3.967   7.221  1.1200  0.8600  2.1061
   31SAPC   C24 4136   1.847   3.957   7.383  0.3244 -0.2426 -0.4668
   31SAPC   H4R 4137   1.921   3.983   7.462 -0.9834  0.3293  0.6237
   31SAPC   H4S 4138   1.837   3.847   7.375 -0.9314 -0.0896 -1.3644
   31SAPC   C25 4139   1.716   4.016   7.422  0.3506  0.3871  1.2046
   31SAPC   H5R 4140   1.631   3.985   7.359  1.9053 -0.6644 -0.4898
   31SAPC   C26 4141   1.701   4.108   7.517  0.3364  0.4132 -0.1584
   31SAPC   H6R 4142   1.602   4.154   7.532  1.0354  1.0042  3.5092
   31SAPC   C27 4143   1.804   4.180   7.605  0.1677 -0.1563 -0.0839
   31SAPC   H7R 4144   1.864   4.253   7.547 -1.0461  1.4980  0.6257
   31SAPC   H7S 4145   1.874   4.117   7.663  0.3456  2.0229  2.2658
   31SAPC   C28 4146   1.730   4.254   7.718  0.5358 -0.3257  0.1670
   31SAPC   H8R 4147   1.679   4.347   7.690 -0.2159 -0.1954  1.8069
   31SAPC   C29 4148   1.719   4.220   7.850 -0.4450 -0.6396  0.1391
   31SAPC   H9R 4149   1.664   4.296   7.907  1.3478  1.0341 -0.2614
   31SAPC  C210 4150   1.778   4.103   7.919 -0.5265  0.2034 -0.9529
   31SAPC  H10R 4151   1.827   4.028   7.853  2.0612  1.2128 -0.3311
   31SAPC  H10S 4152   1.693   4.041   7.953  0.2413  0.3251  1.3908
   31SAPC  C211 4153   1.854   4.134   8.045  0.0219  0.0077 -0.6899
   31SAPC  H11R 4154   1.935   4.206   8.033 -0.2261  0.4134  0.0063
   31SAPC  C212 4155   1.830   4.086   8.174 -0.1102  0.7310  0.6195
   31SAPC  H12R 4156   1.895   4.128   8.252 -1.7264  1.2123  1.7597
   31SAPC  C213 4157   1.721   3.993   8.220  0.4037  0.2518 -0.4291
   31SAPC  H13R 4158   1.663   3.941   8.140  0.3083  0.5799 -0.5734
   31SAPC  H13S 4159   1.652   4.057   8.279  2.6596  1.6065  0.8603
   31SAPC  C214 4160   1.773   3.889   8.318 -0.8292 -0.3295  0.6488
   31SAPC  H14R 4161   1.867   3.845   8.281 -1.1742  0.0399 -0.7414
   31SAPC  C215 4162   1.727   3.843   8.434  0.4972 -0.4006 -0.7236
   31SAPC  H15R 4163   1.787   3.776   8.498 -1.9391 -2.8674 -0.8143
   31SAPC  C216 4164   1.600   3.895   8.498  0.4148  0.1249  0.7871
   31SAPC  H16R 4165   1.574   3.810   8.566  0.9831  0.4807  1.4645
   31SAPC  H16S 4166   1.514   3.920   8.432  1.5767 -0.4005 -0.9629
   31SAPC  C217 4167   1.625   4.026   8.573  0.0204  0.3553 -0.3488
   31SAPC  H17R 4168   1.530   4.051   8.625 -0.0214 -1.2999  0.4428
   31SAPC  H17S 4169   1.647   4.111   8.506  0.4597  0.0774 -0.5624
   31SAPC  C218 4170   1.737   4.020   8.682  0.3013  0.6718  0.0177
   31SAPC  H18R 4171   1.753   4.124   8.719 -1.2421  0.6896  0.7066
   31SAPC  H18S 4172   1.830   3.979   8.637  2.2168  0.4122  3.7561
   31SAPC  C219 4173   1.699   3.933   8.804  0.3775 -0.4142  0.2093
   31SAPC  H19R 4174   1.675   3.830   8.771 -3.6861  0.2381  0.6437
   31SAPC  H19S 4175   1.605   3.981   8.837 -1.0366 -1.9347 -1.4465
   31SAPC  C220 4176   1.800   3.943   8.918 -0.0760  0.1016 -0.1364
   31SAPC  H20R 4177   1.877   3.865   8.901 -1.6908 -1.6521  0.2222
   31SAPC  H20S 4178   1.760   3.915   9.018 -0.5449  1.5041  0.0816
   31SAPC  H20T 4179   1.841   4.046   8.910 -1.1237  0.4114 -1.8575
   31SAPC   C33 4180   2.267   3.636   7.371  0.4903  0.1419 -0.1614
   31SAPC   H3X 4181   2.341   3.701   7.319 -0.0555  1.1364  0.2770
   31SAPC   H3Y 4182   2.317   3.563   7.439  0.2156  0.3013  0.2159
   31SAPC   C34 4183   2.174   3.711   7.467 -0.0472  0.0972  0.2214
   31SAPC   H4X 4184   2.078   3.739   7.419 -1.5053 -2.7557  1.2621
   31SAPC   H4Y 4185   2.215   3.805   7.509 -0.9908  0.5397  0.1775
   31SAPC   C35 4186   2.137   3.637   7.600  0.1809  0.6245  0.1271
   31SAPC   H5X 4187   2.225   3.599   7.656 -0.3572 -0.9611 -0.0330
   31SAPC   H5Y 4188   2.076   3.552   7.563  1.5160 -1.3100  2.0976
   31SAPC   C36 4189   2.050   3.715   7.696  0.3142 -0.0774  0.0148
   31SAPC   H6X 4190   1.956   3.761   7.660  1.2483  1.0922 -1.0449
   31SAPC   H6Y 4191   2.104   3.796   7.750  1.7205 -0.7909 -0.2466
   31SAPC   C37 4192   2.005   3.622   7.811  0.5955 -0.2690 -0.3820
   31SAPC   H7X 4193   2.098   3.573   7.847 -0.6158 -2.2145  0.2064
   31SAPC   H7Y 4194   1.944   3.547   7.757 -2.7190  1.8676  0.0736
   31SAPC   C38 4195   1.911   3.695   7.904  0.3556 -0.1706  0.0949
   31SAPC   H8X 4196   1.817   3.738   7.862 -0.0817  0.6172  1.7982
   31SAPC   H8Y 4197   1.973   3.777   7.944 -0.0319  0.6498 -0.9398
   31SAPC   C39 4198   1.871   3.610   8.020  0.1742  0.0693 -0.7243
   31SAPC   H9X 4199   1.812   3.517   8.005  0.3047 -0.1509  0.0810
   31SAPC   H9Y 4200   1.803   3.682   8.071 -1.1819 -0.9656 -1.0248
   31SAPC  C310 4201   1.985   3.580   8.121 -0.0308  0.2894  0.6545
   31SAPC  H10X 4202   2.030   3.679   8.144  0.8466  0.1068 -0.2101
   31SAPC  H10Y 4203   2.058   3.520   8.062 -0.1942  0.8956 -0.1920
   31SAPC  C311 4204   1.927   3.505   8.247 -0.2927 -0.2143  1.0595
   31SAPC  H11X 4205   1.888   3.411   8.203  1.1416 -0.8809  1.1797
   31SAPC  H11Y 4206   1.843   3.567   8.284 -0.8648  0.2459 -0.8615
   31SAPC  C312 4207   2.034   3.480   8.356  0.3761  0.2662 -0.2633
   31SAPC  H12X 4208   2.089   3.568   8.397  0.8778 -1.4548  3.1352
   31SAPC  H12Y 4209   2.102   3.409   8.306 -0.4572 -1.7704  1.3351
   31SAPC  C313 4210   1.971   3.407   8.474 -0.2247 -0.5514 -0.0204
   31SAPC  H13X 4211   1.914   3.318   8.441  0.7476 -1.7914  1.4907
   31SAPC  H13Y 4212   1.896   3.479   8.514 -0.1033 -0.7709  0.6127
   31SAPC  C314 4213   2.082   3.361   8.578  0.2800  0.2939 -0.7314
   31SAPC  H14X 4214   2.153   3.446   8.588  0.1177  0.6786 -2.4874
   31SAPC  H14Y 4215   2.132   3.273   8.534  2.4166  0.6419  0.8339
   31SAPC  C315 4216   2.012   3.335   8.706  0.8058 -0.6343  0.0742
   31SAPC  H15X 4217   1.951   3.420   8.742 -0.7732 -1.9891  0.7384
   31SAPC  H15Y 4218   2.085   3.317   8.787  0.1203  1.1245  1.1341
   31SAPC  C316 4219   1.914   3.210   8.703  0.3028 -0.8167 -0.0398
   31SAPC  H16X 4220   1.984   3.135   8.662  1.0613  0.7860 -1.8372
   31SAPC  H16Y 4221   1.834   3.234   8.630 -0.8073 -0.6968  1.1841
   31SAPC  C317 4222   1.865   3.198   8.841 -0.1379 -0.0135  0.2204
   31SAPC  H17X 4223   1.798   3.280   8.872 -1.3056 -1.0584  0.5443
   31SAPC  H17Y 4224   1.953   3.195   8.909 -0.1319 -1.5230  0.1929
   31SAPC  C318 4225   1.800   3.055   8.871 -0.4739  0.1179  0.4597
   31SAPC  H18X 4226   1.784   3.058   8.981 -0.9139 -2.7069  0.5575
   31SAPC  H18Y 4227   1.870   2.973   8.846 -0.7266  0.1367 -0.3139
   31SAPC  H18Z 4228   1.704   3.034   8.820  0.4798 -2.4569 -0.4143
   32SAPC     N 4229   2.026   5.066   6.185 -0.1092 -0.9410  0.1014
   32SAPC   C12 4230   2.107   5.089   6.313 -0.4969  0.7721 -0.2401
   32SAPC  H12A 4231   2.194   5.149   6.289 -0.0771 -0.1112 -0.9904
   32SAPC  H12B 4232   2.139   4.991   6.347 -2.3757  0.2876  0.2454
   32SAPC   C13 4233   1.993   5.197   6.110 -0.3246  0.6984 -0.3472
   32SAPC  H13A 4234   2.079   5.249   6.071 -0.7325  1.4712 -0.2220
   32SAPC  H13B 4235   1.929   5.178   6.025  2.1601  1.3735 -2.4910
   32SAPC  H13C 4236   1.941   5.264   6.177  0.7350  1.2672 -0.0666
   32SAPC   C14 4237   2.108   4.969   6.097 -0.6061 -0.0586  0.7978
   32SAPC  H14A 4238   2.122   4.867   6.129  0.6448 -0.4211 -0.7790
   32SAPC  H14B 4239   2.076   4.980   5.994 -1.0627  2.8123  1.1423
   32SAPC  H14C 4240   2.205   5.015   6.086  0.8293 -2.4805  2.4529
   32SAPC   C15 4241   1.899   5.003   6.223  0.9128  0.0783  0.1125
   32SAPC  H15A 4242   1.817   5.066   6.251  0.8098  0.7600 -1.6189
   32SAPC  H15B 4243   1.856   4.950   6.139  0.4564 -0.2887  0.5711
   32SAPC  H15C 4244   1.925   4.926   6.295 -0.2855 -1.8144 -1.3809
   32SAPC   C11 4245   2.033   5.150   6.430  0.1042 -0.4045  0.0348
   32SAPC  H11A 4246   2.101   5.145   6.517 -0.1993 -2.2160  0.2030
   32SAPC  H11B 4247   1.940   5.102   6.464 -1.0432  2.2650  0.9625
   32SAPC     P 4248   2.103   5.403   6.425 -0.3302  0.2687 -0.0272
   32SAPC   O13 4249   2.239   5.346   6.430  0.5223  0.0143 -0.6621
   32SAPC   O14 4250   2.078   5.494   6.308 -0.1245 -1.0737 -0.7147
   32SAPC   O12 4251   1.993   5.289   6.406 -0.3861  0.0108  0.0138
   32SAPC   O11 4252   2.064   5.469   6.560  0.8623  0.4913  0.4212
   32SAPC    C1 4253   1.936   5.526   6.571  0.6939 -0.2201 -0.6044
   32SAPC    HA 4254   1.940   5.626   6.525  1.6177 -0.3451 -0.8043
   32SAPC    HB 4255   1.856   5.479   6.509  1.2888  1.6749 -2.9482
   32SAPC    C2 4256   1.882   5.535   6.716  0.1641 -0.0985 -0.3048
   32SAPC    HS 4257   1.800   5.609   6.732  1.4686  1.1026  1.1892
   32SAPC   O21 4258   1.986   5.573   6.804 -0.1983 -0.3134 -0.4526
   32SAPC   C21 4259   2.021   5.702   6.793 -0.5492 -0.7506  0.5026
   32SAPC   O22 4260   1.977   5.781   6.713 -0.0164 -0.0159  0.0017
   32SAPC   C22 4261   2.109   5.723   6.918 -0.2533 -0.7134  0.1066
   32SAPC   H2R 4262   2.051   5.686   7.005  2.0176  0.1191  2.0810
   32SAPC   H2S 4263   2.191   5.648   6.911 -1.9988 -2.7196 -0.0079
   32SAPC    C3 4264   1.834   5.395   6.757  0.1485  0.5990  0.2662
   32SAPC    HX 4265   1.922   5.328   6.751 -0.2984  0.0274  0.1014
   32SAPC    HY 4266   1.759   5.379   6.677  2.0042 -3.0870 -0.9714
   32SAPC   O31 4267   1.769   5.402   6.881  0.0254 -0.2007 -0.0457
   32SAPC   C31 4268   1.747   5.282   6.938 -0.4997 -0.7639 -0.0894
   32SAPC   O32 4269   1.767   5.173   6.892  0.5308 -0.2288 -0.3100
   32SAPC   C32 4270   1.695   5.306   7.075 -0.4555  0.0393  0.3692
   32SAPC   H2X 4271   1.591   5.278   7.102 -1.2418  2.5885  0.1935
   32SAPC   H2Y 4272   1.689   5.415   7.092 -0.8357 -0.2633  2.4493
   32SAPC   C23 4273   2.162   5.865   6.935 -0.1604  0.0682  0.0291
   32SAPC   H3R 4274   2.071   5.929   6.938 -1.3038 -1.5033  2.5283
   32SAPC   H3S 4275   2.219   5.892   6.843  0.3912 -0.2627  0.2668
   32SAPC   C24 4276   2.255   5.882   7.059  0.2364  0.1166  0.6483
   32SAPC   H4R 4277   2.290   5.988   7.056 -1.9992  0.9052 -0.5275
   32SAPC   H4S 4278   2.348   5.823   7.061 -0.1235 -0.4489  1.0764
   32SAPC   C25 4279   2.175   5.849   7.183 -0.1334 -0.5008  0.3158
   32SAPC   H5R 4280   2.101   5.924   7.214  0.2794  0.9747 -2.0243
   32SAPC   C26 4281   2.183   5.734   7.247  0.1120  0.0971 -0.1759
   32SAPC   H6R 4282   2.123   5.727   7.339  0.8931  2.5486  0.5971
   32SAPC   C27 4283   2.277   5.612   7.217  0.0791  0.3731 -0.3639
   32SAPC   H7R 4284   2.362   5.625   7.287  0.7472  1.8796 -1.3814
   32SAPC   H7S 4285   2.319   5.606   7.114 -2.8084 -2.4706 -1.5270
   32SAPC   C28 4286   2.189   5.493   7.237 -0.3786  0.3983  0.2463
   32SAPC   H8R 4287   2.156   5.448   7.143  0.1788 -0.2158  0.3403
   32SAPC   C29 4288   2.149   5.434   7.351  0.3897 -0.3859  1.0512
   32SAPC   H9R 4289   2.097   5.337   7.346 -0.1243 -0.0377 -2.7456
   32SAPC  C210 4290   2.195   5.468   7.491 -0.6620 -0.9023 -0.5965
   32SAPC  H10R 4291   2.248   5.566   7.496  0.4179 -1.5378  1.8140
   32SAPC  H10S 4292   2.255   5.386   7.536 -1.1744 -0.4302  1.0507
   32SAPC  C211 4293   2.080   5.488   7.590 -0.1847  0.3749 -0.7616
   32SAPC  H11R 4294   1.984   5.525   7.551 -0.6264  1.9077  1.5555
   32SAPC  C212 4295   2.084   5.442   7.716 -0.3202 -0.5715  0.1972
   32SAPC  H12R 4296   1.989   5.431   7.770 -0.4367  1.5595  0.5118
   32SAPC  C213 4297   2.199   5.375   7.804 -0.1366  0.2814  0.4573
   32SAPC  H13R 4298   2.263   5.316   7.735 -0.7322  0.3099 -0.1346
   32SAPC  H13S 4299   2.146   5.302   7.869 -1.1531  3.2599  3.2541
   32SAPC  C214 4300   2.272   5.487   7.870 -0.3107  0.2137 -0.2296
   32SAPC  H14R 4301   2.269   5.589   7.828 -1.7732  0.7807  1.1702
   32SAPC  C215 4302   2.346   5.479   7.984 -0.0656  0.8773 -0.6375
   32SAPC  H15R 4303   2.407   5.566   8.011  0.4113  0.6166 -0.8428
   32SAPC  C216 4304   2.350   5.356   8.076 -0.7382  0.3156  1.0126
   32SAPC  H16R 4305   2.459   5.333   8.080 -0.0588  1.7564 -3.5344
   32SAPC  H16S 4306   2.324   5.262   8.023 -1.4130  1.4966 -0.8392
   32SAPC  C217 4307   2.271   5.365   8.205 -1.1925  0.1079 -0.3885
   32SAPC  H17R 4308   2.306   5.456   8.259 -1.3807  0.4816 -0.8857
   32SAPC  H17S 4309   2.289   5.279   8.273  2.3690  1.1989  0.3076
   32SAPC  C218 4310   2.119   5.385   8.195  0.0355  0.8957  0.3956
   32SAPC  H18R 4311   2.070   5.298   8.147 -1.2808  2.0302 -0.3981
   32SAPC  H18S 4312   2.091   5.455   8.113 -1.4930 -0.9868 -0.7664
   32SAPC  C219 4313   2.053   5.385   8.337  0.8237  0.6559 -0.8401
   32SAPC  H19R 4314   2.085   5.292   8.388 -0.6744 -0.3646 -1.6980
   32SAPC  H19S 4315   1.942   5.374   8.335  0.7719 -0.2384  1.8872
   32SAPC  C220 4316   2.085   5.508   8.427  0.1415  0.0089  0.5323
   32SAPC  H20R 4317   2.050   5.595   8.367  3.0008 -0.0037 -1.3139
   32SAPC  H20S 4318   2.194   5.512   8.448 -0.0171 -0.1297  1.4251
   32SAPC  H20T 4319   2.022   5.519   8.518 -1.8645 -2.2689 -0.4475
   32SAPC   C33 4320   1.787   5.242   7.189  0.6868  0.6046 -0.1823
   32SAPC   H3X 4321   1.882   5.294   7.213  0.3104  0.3151  2.1288
   32SAPC   H3Y 4322   1.804   5.134   7.175  1.6777  1.0180 -2.6358
   32SAPC   C34 4323   1.710   5.252   7.324  0.2051  0.1267  0.2576
   32SAPC   H4X 4324   1.614   5.196   7.324 -0.2926  0.7931  3.4419
   32SAPC   H4Y 4325   1.683   5.356   7.351 -0.3242 -0.1777  0.9347
   32SAPC   C35 4326   1.790   5.187   7.432 -0.0590 -0.3555  0.7394
   32SAPC   H5X 4327   1.891   5.234   7.425 -0.1040 -0.4189 -0.6974
   32SAPC   H5Y 4328   1.806   5.079   7.412  0.6128 -0.1734  0.2517
   32SAPC   C36 4329   1.735   5.216   7.573  0.2408  0.1852 -1.6053
   32SAPC   H6X 4330   1.625   5.201   7.580 -0.2222  3.5399  0.5201
   32SAPC   H6Y 4331   1.735   5.326   7.584  0.5522  0.0780 -0.4115
   32SAPC   C37 4332   1.800   5.132   7.687 -0.1031  0.3967  0.2049
   32SAPC   H7X 4333   1.903   5.165   7.714 -0.8589  0.2357  3.7279
   32SAPC   H7Y 4334   1.813   5.031   7.643 -1.3219 -0.7910  2.3939
   32SAPC   C38 4335   1.717   5.124   7.806  0.0255  0.3764  0.0991
   32SAPC   H8X 4336   1.614   5.089   7.784 -0.2657  2.5866 -2.5230
   32SAPC   H8Y 4337   1.689   5.229   7.831  0.9260  0.6183  0.1460
   32SAPC   C39 4338   1.782   5.064   7.931  0.4754  0.5186 -0.7484
   32SAPC   H9X 4339   1.891   5.081   7.921  0.8636 -1.1159  0.3251
   32SAPC   H9Y 4340   1.780   4.953   7.921  0.6324  0.3871  0.5064
   32SAPC  C310 4341   1.708   5.110   8.057 -0.0319 -0.0573 -0.5084
   32SAPC  H10X 4342   1.600   5.112   8.034 -0.1678  1.4522  0.1322
   32SAPC  H10Y 4343   1.750   5.211   8.077 -0.7133 -0.1848  1.7315
   32SAPC  C311 4344   1.748   5.017   8.170 -0.1031 -0.2946 -0.1671
   32SAPC  H11X 4345   1.859   5.013   8.166 -0.1016  0.1319 -0.5978
   32SAPC  H11Y 4346   1.701   4.917   8.156 -2.0482  0.5584  0.0039
   32SAPC  C312 4347   1.723   5.067   8.315  0.3135 -0.1344 -0.4828
   32SAPC  H12X 4348   1.617   5.066   8.347  0.5574  0.3110  0.3846
   32SAPC  H12Y 4349   1.760   5.171   8.316 -0.7431  0.3127 -2.5127
   32SAPC  C313 4350   1.792   4.973   8.411 -0.6214  0.0394 -0.0551
   32SAPC  H13X 4351   1.899   4.970   8.383 -0.5504 -1.9266  0.2570
   32SAPC  H13Y 4352   1.758   4.868   8.399 -0.0767 -0.3407  1.5147
   32SAPC  C314 4353   1.778   5.031   8.556  0.1616 -0.0530 -0.3719
   32SAPC  H14X 4354   1.675   5.064   8.582  1.5980  2.5394  2.7524
   32SAPC  H14Y 4355   1.838   5.124   8.559 -1.0120  0.7216  0.1025
   32SAPC  C315 4356   1.826   4.938   8.673  0.1972  0.4055  0.3767
   32SAPC  H15X 4357   1.840   5.009   8.757  2.2123 -0.1713  0.5693
   32SAPC  H15Y 4358   1.927   4.898   8.651  1.0481  1.4843  2.1579
   32SAPC  C316 4359   1.738   4.812   8.708 -0.2725 -0.5013  0.6217
   32SAPC  H16X 4360   1.685   4.790   8.613 -2.2358 -1.2739  1.8034
   32SAPC  H16Y 4361   1.663   4.847   8.783  1.8204  0.5305  2.3544
   32SAPC  C317 4362   1.822   4.702   8.752 -0.3306  0.8339 -0.4739
   32SAPC  H17X 4363   1.767   4.632   8.818  1.6584  0.6866  1.1346
   32SAPC  H17Y 4364   1.901   4.739   8.821  0.6147 -2.4334  0.4079
   32SAPC  C318 4365   1.890   4.614   8.639  0.2379  0.8809 -0.0250
   32SAPC  H18X 4366   1.946   4.524   8.673 -3.0208 -1.0330  0.6781
   32SAPC  H18Y 4367   1.963   4.669   8.575 -0.0466 -2.1576 -3.2509
   32SAPC  H18Z 4368   1.811   4.574   8.573  0.5959  1.0254 -0.5470
   33POPC     N 4369   5.719   4.135  11.210  0.0454  0.4291 -0.2618
   33POPC   C12 4370   5.668   4.171  11.071 -0.9273  0.4073 -0.6276
   33POPC  H12A 4371   5.646   4.277  11.061 -1.2026  0.5594  1.1833
   33POPC  H12B 4372   5.571   4.124  11.077 -0.7240  0.0318 -0.2458
   33POPC   C13 4373   5.626   4.171  11.321  0.2803  0.1843 -0.6920
   33POPC  H13A 4374   5.661   4.137  11.417  0.2874 -0.0656 -0.7827
   33POPC  H13B 4375   5.604   4.277  11.322  1.5250  0.4586  0.1955
   33POPC  H13C 4376   5.537   4.114  11.302  0.1561  0.2507 -0.2988
   33POPC   C14 4377   5.745   3.985  11.217 -0.1970  0.3393 -0.2620
   33POPC  H14A 4378   5.818   3.961  11.141  0.2013 -0.7208  0.4227
   33POPC  H14B 4379   5.793   3.966  11.312  1.0948 -0.9691 -1.1333
   33POPC  H14C 4380   5.654   3.928  11.210  0.6208 -0.9864 -0.4543
   33POPC   C15 4381   5.846   4.207  11.239  0.1986  0.2921  0.7700
   33POPC  H15A 4382   5.919   4.177  11.165 -0.7545  2.4904 -1.1640
   33POPC  H15B 4383   5.879   4.186  11.340 -1.0153 -2.5773  0.6729
   33POPC  H15C 4384   5.832   4.313  11.228  3.5986  0.7616 -0.0871
   33POPC   C11 4385   5.744   4.141  10.942 -0.2962  0.3206 -0.2122
   33POPC  H11A 4386   5.689   4.201  10.867  0.6221 -0.1933 -1.3195
   33POPC  H11B 4387   5.745   4.031  10.926  2.5965 -0.1641  2.2181
   33POPC     P 4388   5.991   4.132  10.887 -0.0775  0.5041 -0.4113
   33POPC   O13 4389   6.015   3.997  10.938 -0.2011  0.0846  0.5265
   33POPC   O14 4390   6.102   4.228  10.886 -1.0280 -0.0700  0.2817
   33POPC   O12 4391   5.871   4.198  10.962 -0.2543  0.0409 -0.1274
   33POPC   O11 4392   5.949   4.125  10.741  0.0682 -0.0630 -0.3725
   33POPC    C1 4393   5.922   4.226  10.652  0.3174 -0.9731 -0.8294
   33POPC    HA 4394   5.847   4.197  10.576 -0.7662  1.6452 -0.8496
   33POPC    HB 4395   5.891   4.317  10.707  2.8500 -1.2170  1.1869
   33POPC    C2 4396   6.046   4.265  10.570  0.7436 -0.2303  0.2550
   33POPC    HS 4397   6.109   4.323  10.642 -2.1405  2.1321  1.0751
   33POPC   O21 4398   6.005   4.346  10.463 -0.0663 -0.3168 -0.0203
   33POPC   C21 4399   6.098   4.429  10.417 -0.6346 -0.2930  0.8050
   33POPC   O22 4400   6.193   4.466  10.481  0.4640 -0.3340  1.0719
   33POPC   C22 4401   6.066   4.478  10.275 -0.4502  0.6333 -0.2961
   33POPC   H2R 4402   5.970   4.533  10.290 -0.4050  1.9147 -3.7801
   33POPC   H2S 4403   6.056   4.391  10.207  0.5168 -0.4273  0.8747
   33POPC    C3 4404   6.111   4.135  10.519  0.2703  0.5207  0.2356
   33POPC    HX 4405   6.038   4.082  10.454  2.0125 -0.8864 -0.6642
   33POPC    HY 4406   6.142   4.057  10.592 -1.3817  0.5250  0.9978
   33POPC   O31 4407   6.218   4.167  10.420 -0.7013  0.1812 -0.1495
   33POPC   C31 4408   6.346   4.168  10.467  0.1610  0.3303  0.2050
   33POPC   O32 4409   6.380   4.112  10.567  0.1003 -0.4991 -0.2297
   33POPC   C32 4410   6.432   4.242  10.369  0.1795  0.2346  0.4713
   33POPC   H2X 4411   6.442   4.348  10.400 -1.4439  0.3863  0.5446
   33POPC   H2Y 4412   6.386   4.247  10.268 -0.9695 -3.4760  0.6480
   33POPC   C23 4413   6.167   4.573  10.208 -0.6314  0.5313  0.1056
   33POPC   H3R 4414   6.266   4.524  10.193 -0.3108  1.5843 -1.5582
   33POPC   H3S 4415   6.198   4.654  10.278  0.6102  2.0870 -2.0824
   33POPC   C24 4416   6.120   4.634  10.069  0.3081 -0.4917 -0.5516
   33POPC   H4R 4417   6.077   4.547  10.015  0.3759 -1.1568  0.4209
   33POPC   H4S 4418   6.206   4.673  10.011  1.4445 -2.7236 -0.5095
   33POPC   C25 4419   6.026   4.747  10.096  0.1492 -0.2613 -0.2270
   33POPC   H5R 4420   6.079   4.818  10.163  2.1962 -0.8890 -1.0974
   33POPC   H5S 4421   5.935   4.708  10.148 -0.8917  1.0459 -1.0202
   33POPC   C26 4422   5.992   4.817   9.961 -0.2642 -0.0164  0.7844
   33POPC   H6R 4423   5.941   4.755   9.886 -0.5407  0.6259  0.4314
   33POPC   H6S 4424   6.087   4.844   9.909 -2.1973 -0.0267 -3.0530
   33POPC   C27 4425   5.907   4.946   9.965 -1.1551  1.0988 -0.0795
   33POPC   H7R 4426   5.942   4.995  10.058  0.1214  2.4006 -1.1833
   33POPC   H7S 4427   5.798   4.928   9.971 -0.9457 -0.9887 -1.4006
   33POPC   C28 4428   5.943   5.021   9.842  0.1597  0.4649  0.3600
   33POPC   H8R 4429   5.931   4.945   9.761  0.5300  0.1892  0.5626
   33POPC   H8S 4430   6.048   5.054   9.846  1.0249 -2.1696  2.5651
   33POPC   C29 4431   5.850   5.136   9.819 -0.2980 -0.2381  0.5135
   33POPC   H91 4432   5.752   5.091   9.794 -0.2901  0.5815 -1.0765
   33POPC  C210 4433   5.869   5.265   9.844  0.0740  0.2652 -0.3268
   33POPC  H101 4434   5.780   5.323   9.817 -0.4325 -0.9637 -1.4312
   33POPC  C211 4435   5.992   5.343   9.890 -0.8199  0.0937 -0.3668
   33POPC  H11R 4436   5.975   5.449   9.861 -1.7779 -0.2540 -1.1410
   33POPC  H11S 4437   6.077   5.309   9.827  1.6473  2.0372  1.7282
   33POPC  C212 4438   6.042   5.339  10.037 -0.4032 -0.2882  0.4628
   33POPC  H12R 4439   6.149   5.367  10.044  0.2339 -1.8800 -1.6786
   33POPC  H12S 4440   6.032   5.233  10.067  1.2294 -1.9687 -4.0165
   33POPC  C213 4441   5.953   5.424  10.126 -0.5608  0.4410 -0.1028
   33POPC  H13R 4442   5.851   5.382  10.125 -1.3001  2.0625  1.0383
   33POPC  H13S 4443   5.948   5.518  10.066 -0.7751  1.0888  0.9027
   33POPC  C214 4444   5.986   5.452  10.274  0.1263  0.4290  0.3078
   33POPC  H14R 4445   6.059   5.379  10.315  1.2572  1.4095  0.1153
   33POPC  H14S 4446   5.891   5.437  10.330 -0.4139 -1.2982 -1.0026
   33POPC  C215 4447   6.064   5.584  10.285  0.9713 -0.1584 -0.5382
   33POPC  H15R 4448   5.993   5.668  10.274  1.2198  0.6190  2.7900
   33POPC  H15S 4449   6.152   5.596  10.217  3.1001  3.6648  2.4486
   33POPC  C216 4450   6.117   5.619  10.431  0.6173  0.3126 -0.4227
   33POPC  H16R 4451   6.039   5.606  10.508 -0.4531 -1.1370 -1.6898
   33POPC  H16S 4452   6.157   5.723  10.429  2.2863 -0.3051 -1.9642
   33POPC  C217 4453   6.235   5.527  10.478  0.9136 -0.2603 -0.0888
   33POPC  H17R 4454   6.197   5.422  10.475 -1.4610  0.4412  2.2574
   33POPC  H17S 4455   6.254   5.538  10.587  0.0852 -0.0100  0.0319
   33POPC  C218 4456   6.374   5.542  10.413 -0.2676 -0.3442  0.6170
   33POPC  H18R 4457   6.422   5.630  10.461  0.9004 -0.9804  0.6626
   33POPC  H18S 4458   6.371   5.557  10.303 -0.7589 -0.4582  0.6113
   33POPC  H18T 4459   6.433   5.454  10.446 -0.0392 -0.3431  0.2220
   33POPC   C33 4460   6.576   4.182  10.371  0.0013  0.7081  0.2503
   33POPC   H3X 4461   6.618   4.194  10.473  0.8563  1.2358 -0.1498
   33POPC   H3Y 4462   6.648   4.242  10.311  2.1267 -2.5950 -0.8297
   33POPC   C34 4463   6.591   4.036  10.315 -0.9903  0.7172 -0.5378
   33POPC   H4X 4464   6.527   3.963  10.369 -0.6146 -0.5779 -1.7949
   33POPC   H4Y 4465   6.696   4.001  10.320 -0.9914  0.8810  1.9610
   33POPC   C35 4466   6.545   4.016  10.165  0.5430 -0.3469 -0.0406
   33POPC   H5X 4467   6.443   4.057  10.150  1.0232  0.3842 -1.5140
   33POPC   H5Y 4468   6.557   3.911  10.133 -1.2940 -0.9430  1.0580
   33POPC   C36 4469   6.646   4.074  10.067 -0.0866 -0.0922  0.2281
   33POPC   H6X 4470   6.744   4.031  10.096  1.0638  2.5590  0.5328
   33POPC   H6Y 4471   6.649   4.183  10.090  1.0231 -0.7880  4.1373
   33POPC   C37 4472   6.615   4.070   9.920  0.2130  0.1981  0.2276
   33POPC   H7X 4473   6.514   4.114   9.907 -0.6800 -2.3710 -2.3074
   33POPC   H7Y 4474   6.603   3.965   9.886 -0.8201 -0.2118  1.7338
   33POPC   C38 4475   6.713   4.149   9.842  0.4426 -0.1404  0.1216
   33POPC   H8X 4476   6.808   4.092   9.827  0.6606  0.5352 -1.1611
   33POPC   H8Y 4477   6.737   4.245   9.892 -2.1213  1.1383 -0.9492
   33POPC   C39 4478   6.668   4.176   9.697 -0.2490  0.2557  0.0525
   33POPC   H9X 4479   6.558   4.175   9.679 -0.6379 -2.1787  1.9976
   33POPC   H9Y 4480   6.697   4.087   9.637  0.7319  0.1496  0.6716
   33POPC  C310 4481   6.729   4.304   9.642  0.4376 -0.3938  0.4656
   33POPC  H10X 4482   6.838   4.308   9.660  1.5713 -2.0069 -4.5063
   33POPC  H10Y 4483   6.686   4.397   9.687 -0.3707 -0.1337 -0.8056
   33POPC  C311 4484   6.716   4.315   9.485  0.3116 -0.0837 -0.1580
   33POPC  H11X 4485   6.609   4.286   9.472  1.3427 -4.3656 -0.6675
   33POPC  H11Y 4486   6.774   4.225   9.455  0.2209 -0.1842 -0.0326
   33POPC  C312 4487   6.752   4.444   9.428  0.0336 -0.2466 -1.3181
   33POPC  H12X 4488   6.859   4.459   9.453 -0.0705 -0.1095 -0.9475
   33POPC  H12Y 4489   6.698   4.526   9.480  0.8856 -0.6653  0.2575
   33POPC  C313 4490   6.727   4.458   9.278 -0.5114 -0.0490 -0.2546
   33POPC  H13X 4491   6.619   4.450   9.253 -0.3538  0.8907 -1.3232
   33POPC  H13Y 4492   6.784   4.371   9.237  0.4629  0.6854 -0.4912
   33POPC  C314 4493   6.789   4.583   9.219  0.0363 -0.6023 -0.3301
   33POPC  H14X 4494   6.832   4.570   9.117 -1.4985  2.8055 -1.5795
   33POPC  H14Y 4495   6.881   4.609   9.276  1.1732 -1.9440 -1.4527
   33POPC  C315 4496   6.708   4.712   9.203  0.8017 -0.6559  0.1726
   33POPC  H15X 4497   6.662   4.693   9.104  0.5229 -0.7607  0.3212
   33POPC  H15Y 4498   6.782   4.795   9.193 -0.8041  0.6528 -1.5915
   33POPC  C316 4499   6.604   4.744   9.307  0.1790 -0.8782  0.0295
   33POPC  H16X 4500   6.567   4.846   9.283  1.3853 -0.4374 -0.0424
   33POPC  H16Y 4501   6.643   4.730   9.411  0.0806 -0.6005  0.1041
   33POPC  H16Z 4502   6.516   4.680   9.285 -0.6534  0.6503 -1.2288
   34POPC     N 4503   4.839   5.624  11.018  0.7840  0.1826 -0.1007
   34POPC   C12 4504   4.833   5.472  10.994 -0.5167  0.6025  0.5399
   34POPC  H12A 4505   4.899   5.445  10.912  0.0782  0.5937  1.0149
   34POPC  H12B 4506   4.733   5.440  10.971 -0.5423  1.0160  0.0663
   34POPC   C13 4507   4.806   5.696  10.896  0.1128 -1.0712  0.3792
   34POPC  H13A 4508   4.882   5.678  10.822 -0.7015 -0.0812 -0.7474
   34POPC  H13B 4509   4.705   5.671  10.867 -0.1773  0.4451 -0.0307
   34POPC  H13C 4510   4.798   5.804  10.898  2.1366 -0.6002 -3.9600
   34POPC   C14 4511   4.730   5.658  11.121  0.0477  0.6183  0.4227
   34POPC  H14A 4512   4.730   5.765  11.133  2.8591  1.1359 -2.5694
   34POPC  H14B 4513   4.637   5.617  11.086 -0.2007  1.1129  0.5016
   34POPC  H14C 4514   4.747   5.619  11.220 -2.1793  2.6042  1.6811
   34POPC   C15 4515   4.969   5.672  11.076 -0.5311  0.0464 -0.0019
   34POPC  H15A 4516   5.049   5.661  11.005  0.7533 -0.8596  1.5376
   34POPC  H15B 4517   4.984   5.618  11.168 -0.7419 -0.3365 -0.1879
   34POPC  H15C 4518   4.965   5.779  11.090 -2.2504  0.6950 -3.8934
   34POPC   C11 4519   4.904   5.383  11.098  1.2076 -0.2925  0.4614
   34POPC  H11A 4520   4.858   5.282  11.087  0.7703  0.0034 -0.6179
   34POPC  H11B 4521   4.876   5.403  11.204  1.3253  0.9807  0.2605
   34POPC     P 4522   5.112   5.336  10.936 -0.4118 -0.2318  0.4770
   34POPC   O13 4523   5.186   5.206  10.951 -0.2419 -0.7768 -0.1845
   34POPC   O14 4524   5.187   5.454  10.881  0.4235 -0.2538 -0.1901
   34POPC   O12 4525   5.049   5.387  11.072  1.0194 -0.3821 -0.0970
   34POPC   O11 4526   4.984   5.295  10.850  0.0685  0.3524  0.0800
   34POPC    C1 4527   4.996   5.317  10.705  0.3202  0.0059  0.6649
   34POPC    HA 4528   5.055   5.406  10.675  0.2287 -0.5049 -1.1809
   34POPC    HB 4529   4.894   5.347  10.671  1.5055  3.4881 -0.2296
   34POPC    C2 4530   5.048   5.186  10.639  0.0677 -0.4965  0.3937
   34POPC    HS 4531   5.152   5.179  10.676 -0.4777  0.6641  2.2491
   34POPC   O21 4532   5.032   5.191  10.499 -0.4021 -0.0632 -0.0738
   34POPC   C21 4533   5.120   5.254  10.426 -0.5870 -0.0805 -0.0264
   34POPC   O22 4534   5.203   5.335  10.471  0.6626  0.0282 -0.2765
   34POPC   C22 4535   5.103   5.216  10.282 -0.1137  0.5918 -0.1707
   34POPC   H2R 4536   4.996   5.221  10.254  0.0632  1.1000 -0.7682
   34POPC   H2S 4537   5.131   5.108  10.284 -2.6550 -0.1387 -0.3246
   34POPC    C3 4538   4.973   5.065  10.711  0.1180  0.3887  0.7257
   34POPC    HX 4539   4.864   5.090  10.708 -0.2177 -1.0085 -2.5609
   34POPC    HY 4540   5.021   5.060  10.811 -0.3631  0.0293  0.9441
   34POPC   O31 4541   4.992   4.938  10.639 -0.3061  0.1449  0.7755
   34POPC   C31 4542   5.109   4.885  10.650  0.3918 -0.2920  0.3249
   34POPC   O32 4543   5.204   4.937  10.707  0.2695  0.2530  0.1532
   34POPC   C32 4544   5.102   4.747  10.585 -0.2850  0.3419  0.7488
   34POPC   H2X 4545   4.996   4.712  10.580  0.4516 -1.9597 -1.8539
   34POPC   H2Y 4546   5.164   4.678  10.647  3.5482 -0.3905 -3.3717
   34POPC   C23 4547   5.173   5.302  10.184  0.3196  0.1968 -0.4256
   34POPC   H3R 4548   5.282   5.296  10.205  0.0997 -0.0256  0.7132
   34POPC   H3S 4549   5.137   5.407  10.185 -0.9958 -0.2440  0.2984
   34POPC   C24 4550   5.144   5.257  10.043 -0.4938  0.3484  0.6567
   34POPC   H4R 4551   5.039   5.235  10.017 -0.1076  0.8374 -1.4841
   34POPC   H4S 4552   5.194   5.159  10.024 -0.4811  1.0039 -3.7387
   34POPC   C25 4553   5.200   5.358   9.942  0.0950 -0.8427  0.7447
   34POPC   H5R 4554   5.310   5.352   9.955 -0.0882 -1.3482  2.2965
   34POPC   H5S 4555   5.170   5.462   9.966  1.0178 -0.6587  1.1455
   34POPC   C26 4556   5.158   5.332   9.793 -0.6572  0.5180 -0.2905
   34POPC   H6R 4557   5.047   5.339   9.789 -1.0236 -3.0858  0.5709
   34POPC   H6S 4558   5.171   5.222   9.780  0.1154  0.3990  1.2582
   34POPC   C27 4559   5.224   5.423   9.696 -0.6240  0.3462  0.1907
   34POPC   H7R 4560   5.330   5.390   9.688 -0.4844  1.0504 -1.2488
   34POPC   H7S 4561   5.225   5.527   9.735  0.8836 -0.3932  2.2756
   34POPC   C28 4562   5.158   5.427   9.553 -0.7059  0.2791 -0.1150
   34POPC   H8R 4563   5.201   5.512   9.497 -0.1353 -0.0206 -0.1367
   34POPC   H8S 4564   5.050   5.449   9.564 -0.4357  1.2474  0.7011
   34POPC   C29 4565   5.168   5.295   9.482  0.0095 -0.3131  0.3383
   34POPC   H91 4566   5.130   5.205   9.532 -2.5604 -0.1603 -1.1851
   34POPC  C210 4567   5.234   5.273   9.364 -0.2750 -0.8274  0.0553
   34POPC  H101 4568   5.261   5.169   9.340 -1.0151 -1.2112  0.8286
   34POPC  C211 4569   5.298   5.375   9.272  0.1486  0.3563 -0.5953
   34POPC  H11R 4570   5.331   5.471   9.316  0.9881 -0.0644 -0.2774
   34POPC  H11S 4571   5.219   5.415   9.205 -2.5474  0.6202  2.5364
   34POPC  C212 4572   5.421   5.325   9.192  0.4996  0.2116 -0.8968
   34POPC  H12R 4573   5.398   5.225   9.151 -1.2921 -0.0667  0.6069
   34POPC  H12S 4574   5.514   5.319   9.252  1.1173 -0.0596 -1.8809
   34POPC  C213 4575   5.441   5.407   9.065 -0.1176 -0.5051  0.2546
   34POPC  H13R 4576   5.443   5.513   9.100 -1.4174  0.3816 -2.0861
   34POPC  H13S 4577   5.350   5.397   9.002 -0.0189 -2.6999  0.4061
   34POPC  C214 4578   5.570   5.377   8.980 -0.2202 -0.2724  0.2110
   34POPC  H14R 4579   5.584   5.269   8.959 -1.0960 -0.9735  2.8109
   34POPC  H14S 4580   5.653   5.406   9.048  1.1488 -0.5672 -1.2810
   34POPC  C215 4581   5.581   5.442   8.842 -0.2601  0.0899  0.5707
   34POPC  H15R 4582   5.666   5.514   8.845  2.3081 -2.7131  0.2799
   34POPC  H15S 4583   5.484   5.491   8.820  0.5229  2.0475  1.3199
   34POPC  C216 4584   5.622   5.341   8.727  0.0553 -0.8066  0.2523
   34POPC  H16R 4585   5.551   5.256   8.734 -0.1195 -0.9098 -2.1401
   34POPC  H16S 4586   5.725   5.307   8.751 -0.3358 -2.3221 -0.0839
   34POPC  C217 4587   5.613   5.406   8.592 -0.3724 -0.1648  0.4712
   34POPC  H17R 4588   5.640   5.514   8.590 -1.8019  0.2026 -0.2482
   34POPC  H17S 4589   5.511   5.408   8.549 -0.2482  1.6826  0.1630
   34POPC  C218 4590   5.690   5.326   8.488  0.1104 -0.0830 -0.2053
   34POPC  H18R 4591   5.800   5.340   8.488  0.3995 -1.9607 -1.7025
   34POPC  H18S 4592   5.659   5.368   8.390  0.4265  1.8177  0.4775
   34POPC  H18T 4593   5.669   5.216   8.488  0.2427 -0.2097  3.0345
   34POPC   C33 4594   5.142   4.732  10.430 -0.4257 -0.3174 -0.6149
   34POPC   H3X 4595   5.154   4.622  10.414 -0.6338 -0.4069 -0.1576
   34POPC   H3Y 4596   5.248   4.765  10.421 -0.7494  1.1644  0.6976
   34POPC   C34 4597   5.053   4.803  10.323  1.2530  0.4179  0.2273
   34POPC   H4X 4598   5.050   4.912  10.344 -0.9710  0.5286 -0.3346
   34POPC   H4Y 4599   4.948   4.767  10.329  0.3513  2.7118 -0.6445
   34POPC   C35 4600   5.109   4.790  10.183  0.7249 -0.7899  0.1967
   34POPC   H5X 4601   5.093   4.682  10.165  1.0800 -0.9087  0.5792
   34POPC   H5Y 4602   5.220   4.801  10.183  0.7115 -0.3210  2.1448
   34POPC   C36 4603   5.041   4.881  10.082 -0.4994  0.1366 -0.1551
   34POPC   H6X 4604   5.083   4.983  10.096  1.9342 -0.4779 -2.1562
   34POPC   H6Y 4605   4.931   4.880  10.093 -0.4211  0.1425  0.6949
   34POPC   C37 4606   5.062   4.832   9.939 -0.0104  0.4143 -0.1180
   34POPC   H7X 4607   5.005   4.738   9.920 -2.3562  1.2455  2.2473
   34POPC   H7Y 4608   5.168   4.806   9.917 -0.8075 -4.2108  0.4039
   34POPC   C38 4609   5.011   4.942   9.840 -0.1413 -0.2434 -0.0229
   34POPC   H8X 4610   5.037   5.046   9.867 -1.2384 -0.5423  2.4566
   34POPC   H8Y 4611   4.900   4.940   9.836 -0.1484  0.7623 -0.4905
   34POPC   C39 4612   5.044   4.915   9.693  0.2705  1.0743  0.7368
   34POPC   H9X 4613   5.152   4.891   9.704  0.1987  1.1126  1.6186
   34POPC   H9Y 4614   5.009   5.005   9.638 -0.0316  0.4099 -0.1812
   34POPC  C310 4615   4.980   4.789   9.618  0.2774 -0.0975  0.1745
   34POPC  H10X 4616   4.883   4.814   9.570  0.1290  1.9124  1.4212
   34POPC  H10Y 4617   4.971   4.706   9.691 -1.8747  0.2410  0.3668
   34POPC  C311 4618   5.069   4.743   9.496  0.4812  0.8561  0.0048
   34POPC  H11X 4619   5.028   4.655   9.441  4.1851 -1.1832  0.1155
   34POPC  H11Y 4620   5.163   4.696   9.532  0.1771 -2.3933 -2.9230
   34POPC  C312 4621   5.102   4.849   9.398 -0.3737 -0.0893  0.6020
   34POPC  H12X 4622   5.161   4.928   9.448 -1.0113 -0.7346  2.4661
   34POPC  H12Y 4623   5.017   4.903   9.351  0.8521  0.6834 -0.8303
   34POPC  C313 4624   5.175   4.797   9.278 -0.3670 -0.0580 -0.1131
   34POPC  H13X 4625   5.120   4.743   9.197 -2.0304  1.3719  0.0082
   34POPC  H13Y 4626   5.249   4.726   9.322 -0.1471  1.2001  1.6493
   34POPC  C314 4627   5.247   4.911   9.196  0.5044 -0.3404 -0.0707
   34POPC  H14X 4628   5.339   4.942   9.250  2.5775 -2.0642 -2.3465
   34POPC  H14Y 4629   5.166   4.985   9.177 -0.6837 -1.7557 -0.7350
   34POPC  C315 4630   5.288   4.871   9.053 -0.4661 -0.0332 -0.1692
   34POPC  H15X 4631   5.205   4.821   8.999 -0.7556 -0.2945  0.4961
   34POPC  H15Y 4632   5.369   4.794   9.059  0.1911  0.7237  1.0774
   34POPC  C316 4633   5.338   4.991   8.985 -0.1897 -1.0151  0.2852
   34POPC  H16X 4634   5.251   5.058   8.972 -0.9687 -2.0637 -0.0607
   34POPC  H16Y 4635   5.385   4.961   8.888 -1.1479 -2.1865  0.1565
   34POPC  H16Z 4636   5.427   5.023   9.043  0.8394 -0.4620 -1.4893
   35POPC     N 4637   4.910   1.970  11.591 -0.1620  0.0807 -1.0216
   35POPC   C12 4638   4.917   2.077  11.485  0.1939  0.4103 -0.3190
   35POPC  H12A 4639   4.817   2.113  11.467 -0.3012 -2.1282 -3.5847
   35POPC  H12B 4640   4.964   2.030  11.400 -0.1987  1.3394 -1.0680
   35POPC   C13 4641   5.039   1.928  11.644  0.7828 -0.1536 -1.2425
   35POPC  H13A 4642   5.096   1.888  11.561 -0.1516  0.2897 -2.1232
   35POPC  H13B 4643   5.098   2.002  11.695 -0.4700 -1.0329  1.7374
   35POPC  H13C 4644   5.024   1.858  11.725 -0.5804  1.9729  0.4653
   35POPC   C14 4645   4.836   2.027  11.712  0.3032 -0.5873 -0.4085
   35POPC  H14A 4646   4.868   2.128  11.734  0.4281 -1.1315  2.2338
   35POPC  H14B 4647   4.731   2.044  11.696 -0.1038 -0.5361  2.0242
   35POPC  H14C 4648   4.856   1.967  11.799  0.9964 -0.6793 -0.6247
   35POPC   C15 4649   4.840   1.850  11.544  0.2769 -0.1117 -0.0129
   35POPC  H15A 4650   4.737   1.873  11.521  0.5863  0.2338 -1.1234
   35POPC  H15B 4651   4.843   1.773  11.620  1.8259 -1.5979 -1.4970
   35POPC  H15C 4652   4.891   1.805  11.460 -1.8432  1.5774 -2.3796
   35POPC   C11 4653   5.002   2.201  11.525 -0.5679  0.6656 -0.1972
   35POPC  H11A 4654   4.981   2.236  11.628 -2.6424 -3.4626  1.0242
   35POPC  H11B 4655   4.976   2.279  11.451 -0.0290 -0.8422 -2.0682
   35POPC     P 4656   5.245   2.228  11.416 -0.2475 -0.4876 -0.2156
   35POPC   O13 4657   5.357   2.129  11.397  0.0849  0.1982 -0.0821
   35POPC   O14 4658   5.290   2.368  11.453  0.2166  0.1251 -0.2464
   35POPC   O12 4659   5.145   2.172  11.519 -0.3441  0.0730  0.0544
   35POPC   O11 4660   5.153   2.233  11.286  0.2761  0.5069  0.3185
   35POPC    C1 4661   5.147   2.111  11.212 -0.5421 -0.0667  0.7530
   35POPC    HA 4662   5.041   2.080  11.209  0.1426 -2.5768 -1.8305
   35POPC    HB 4663   5.207   2.023  11.244 -0.1113  0.1890  0.6500
   35POPC    C2 4664   5.182   2.133  11.057  0.3767  0.5411  0.0138
   35POPC    HS 4665   5.248   2.221  11.045  2.3452 -0.6915  1.2984
   35POPC   O21 4666   5.054   2.153  10.995  0.0842  0.0410 -0.4214
   35POPC   C21 4667   5.044   2.231  10.890 -0.2616 -0.4900 -0.5902
   35POPC   O22 4668   5.143   2.278  10.835 -0.3457 -0.2387 -0.2236
   35POPC   C22 4669   4.895   2.260  10.855  0.1256  1.3033 -0.0178
   35POPC   H2R 4670   4.848   2.328  10.929 -1.9716 -0.3669  0.3017
   35POPC   H2S 4671   4.835   2.167  10.858 -0.6103  1.7889  0.6487
   35POPC    C3 4672   5.254   2.013  10.998 -0.2040  0.0431 -0.6241
   35POPC    HX 4673   5.215   1.914  11.030 -1.0644  0.6313  0.1776
   35POPC    HY 4674   5.357   2.004  11.040 -0.6117 -1.2307  0.1492
   35POPC   O31 4675   5.258   2.013  10.851  0.1776  0.1715 -0.1321
   35POPC   C31 4676   5.342   2.090  10.785 -0.1100 -0.1890 -0.0074
   35POPC   O32 4677   5.423   2.163  10.839  0.0668  0.1359  0.2277
   35POPC   C32 4678   5.302   2.095  10.640  0.3165  0.0244  0.4631
   35POPC   H2X 4679   5.240   2.182  10.611 -1.2098 -1.3072 -0.4597
   35POPC   H2Y 4680   5.238   2.007  10.615  2.9686 -2.2588  1.1522
   35POPC   C23 4681   4.872   2.324  10.717 -0.0525 -0.4310 -0.2075
   35POPC   H3R 4682   4.935   2.415  10.708  1.0003 -0.9241  1.6051
   35POPC   H3S 4683   4.767   2.358  10.704 -0.1332 -0.6557 -0.1463
   35POPC   C24 4684   4.904   2.231  10.596 -0.0530  0.1771  0.4410
   35POPC   H4R 4685   4.846   2.143  10.629 -0.2910  0.1872  0.0630
   35POPC   H4S 4686   5.014   2.215  10.589 -0.1950 -1.3144  1.2920
   35POPC   C25 4687   4.851   2.283  10.460 -0.2629 -0.3749  0.0282
   35POPC   H5R 4688   4.884   2.389  10.455  0.5374 -0.6247 -0.0955
   35POPC   H5S 4689   4.740   2.284  10.465 -0.2585 -1.4414  4.3244
   35POPC   C26 4690   4.903   2.205  10.340 -0.0641 -0.4179 -0.5066
   35POPC   H6R 4691   4.875   2.099  10.361  2.4524 -1.0869 -0.1496
   35POPC   H6S 4692   5.014   2.206  10.334 -0.0308 -2.2891 -0.7103
   35POPC   C27 4693   4.842   2.246  10.205 -0.1055  0.0896  0.3182
   35POPC   H7R 4694   4.909   2.326  10.166 -0.9214  0.9925  0.7306
   35POPC   H7S 4695   4.746   2.300  10.218 -0.9403 -1.3183  0.1767
   35POPC   C28 4696   4.834   2.132  10.096 -0.1232 -0.0103  0.1252
   35POPC   H8R 4697   4.780   2.173  10.009 -1.7248 -1.0134  0.6036
   35POPC   H8S 4698   4.766   2.053  10.135 -2.6442  1.6252 -0.7248
   35POPC   C29 4699   4.968   2.075  10.052  0.2564 -0.5878 -0.3220
   35POPC   H91 4700   5.031   2.045  10.137 -1.6408 -0.9830  1.0021
   35POPC  C210 4701   5.003   2.052   9.927 -0.1670  0.0346 -0.0975
   35POPC  H101 4702   5.096   2.000   9.898  0.9850  2.1670 -0.3876
   35POPC  C211 4703   4.924   2.083   9.797 -0.7197 -0.9138  0.0052
   35POPC  H11R 4704   4.975   2.155   9.730  2.9544 -3.0330  0.2600
   35POPC  H11S 4705   4.817   2.108   9.811 -0.1854  0.1157  2.9895
   35POPC  C212 4706   4.917   1.958   9.706 -0.1109  0.2335 -0.7591
   35POPC  H12R 4707   4.835   1.889   9.734 -0.7478  1.7344  1.3137
   35POPC  H12S 4708   5.008   1.896   9.721 -0.0106  0.3298 -0.9607
   35POPC  C213 4709   4.900   1.997   9.555  0.0030 -0.6190  0.4566
   35POPC  H13R 4710   4.937   2.098   9.529  1.8136 -1.5092 -0.5763
   35POPC  H13S 4711   4.789   1.998   9.540  0.1607  0.8388 -0.8984
   35POPC  C214 4712   4.965   1.890   9.466  0.8133  0.0190  0.5084
   35POPC  H14R 4713   4.932   1.793   9.508 -1.1824  0.1749 -0.5731
   35POPC  H14S 4714   5.076   1.890   9.479  0.8949 -2.0201  0.1069
   35POPC  C215 4715   4.927   1.893   9.318  0.7115  0.4751  0.2374
   35POPC  H15R 4716   4.935   1.999   9.286  1.3375  0.4709  0.3804
   35POPC  H15S 4717   4.820   1.866   9.306  0.8296  0.2893 -0.4322
   35POPC  C216 4718   5.023   1.809   9.237 -0.0549  0.1987  0.7826
   35POPC  H16R 4719   5.004   1.701   9.255  2.2537 -0.4467 -0.2413
   35POPC  H16S 4720   5.126   1.833   9.270  1.5033 -1.0144 -2.7733
   35POPC  C217 4721   5.032   1.838   9.087  0.2691  0.5307  0.2673
   35POPC  H17R 4722   5.048   1.947   9.074  1.4773  0.4398  0.9393
   35POPC  H17S 4723   4.939   1.813   9.030  1.4625 -0.2432 -1.4281
   35POPC  C218 4724   5.142   1.776   9.004  0.3757 -0.0273 -0.2417
   35POPC  H18R 4725   5.127   1.666   8.997  0.1685  0.0437 -0.8960
   35POPC  H18S 4726   5.242   1.790   9.051  0.1629 -1.1196  0.5974
   35POPC  H18T 4727   5.137   1.813   8.900  0.6922 -0.2914 -0.3525
   35POPC   C33 4728   5.425   2.059  10.545  0.8918  0.4880  0.3607
   35POPC   H3X 4729   5.466   1.957  10.565 -1.6570 -0.7220 -0.2082
   35POPC   H3Y 4730   5.503   2.138  10.555  1.4896 -0.1278  0.6824
   35POPC   C34 4731   5.388   2.048  10.405 -0.1122 -0.1524 -0.0824
   35POPC   H4X 4732   5.315   2.129  10.385 -0.2448 -0.9647 -3.3799
   35POPC   H4Y 4733   5.340   1.949  10.386 -0.6080 -0.2219  1.3695
   35POPC   C35 4734   5.511   2.042  10.311  0.1007 -0.4750  0.6396
   35POPC   H5X 4735   5.560   1.943  10.322 -2.3034 -1.6291  1.6996
   35POPC   H5Y 4736   5.579   2.122  10.348 -0.0733  0.6580 -1.3477
   35POPC   C36 4737   5.455   2.070  10.165 -0.0784 -0.7506  0.5059
   35POPC   H6X 4738   5.411   2.172  10.160 -1.2584 -1.2341  0.6379
   35POPC   H6Y 4739   5.371   2.002  10.142  0.6517 -2.3008  2.2079
   35POPC   C37 4740   5.566   2.077  10.062  0.0608 -0.3525  0.0120
   35POPC   H7X 4741   5.597   1.971  10.050 -0.8451 -0.6628  0.3392
   35POPC   H7Y 4742   5.652   2.136  10.100  1.4427 -1.3319 -1.4525
   35POPC   C38 4743   5.514   2.138   9.934  0.0927 -0.7981  0.4934
   35POPC   H8X 4744   5.598   2.186   9.880  0.4861 -1.8131  0.1813
   35POPC   H8Y 4745   5.444   2.222   9.953  0.8164  0.5307 -2.2140
   35POPC   C39 4746   5.443   2.045   9.844  0.6416 -0.0308  0.7004
   35POPC   H9X 4747   5.350   2.005   9.890 -0.3044 -0.3906 -1.4153
   35POPC   H9Y 4748   5.506   1.957   9.820  0.5406  0.0689  0.0575
   35POPC  C310 4749   5.402   2.112   9.710 -0.2460  0.0919  0.1151
   35POPC  H10X 4750   5.484   2.142   9.642 -0.0732 -0.7651 -0.0651
   35POPC  H10Y 4751   5.363   2.211   9.746 -1.5986 -0.4247  0.1461
   35POPC  C311 4752   5.306   2.028   9.621  0.6378  0.1943 -0.8282
   35POPC  H11X 4753   5.255   2.097   9.550  1.0480  0.5482 -0.7778
   35POPC  H11Y 4754   5.234   1.998   9.701  2.1755  0.8824  0.8859
   35POPC  C312 4755   5.364   1.909   9.549 -0.5596 -0.0941  0.3148
   35POPC  H12X 4756   5.290   1.841   9.503  0.3277 -0.4630 -0.5965
   35POPC  H12Y 4757   5.420   1.847   9.623 -1.3802 -1.4601 -0.1757
   35POPC  C313 4758   5.472   1.943   9.446  0.1549  0.5847  0.0428
   35POPC  H13X 4759   5.492   1.846   9.395  2.2994  2.2554 -2.5430
   35POPC  H13Y 4760   5.565   1.974   9.499 -0.3990 -1.1533  2.1866
   35POPC  C314 4761   5.440   2.045   9.339  0.3661 -0.4589  0.0166
   35POPC  H14X 4762   5.427   2.148   9.377 -0.2381 -0.9845  1.2882
   35POPC  H14Y 4763   5.339   2.022   9.299  0.6377 -1.5343 -0.0797
   35POPC  C315 4764   5.548   2.057   9.236 -0.5698  0.2372 -0.0201
   35POPC  H15X 4765   5.574   1.950   9.216 -0.6001  0.1671  0.3105
   35POPC  H15Y 4766   5.641   2.099   9.279  1.3049 -2.4527 -1.1543
   35POPC  C316 4767   5.502   2.133   9.111  0.0848 -0.2663 -0.0203
   35POPC  H16X 4768   5.407   2.085   9.081  0.1389  0.0698 -0.7424
   35POPC  H16Y 4769   5.576   2.110   9.032 -1.1001  2.0223 -1.9350
   35POPC  H16Z 4770   5.477   2.241   9.119  1.2500  0.0421 -0.3680
   36POPC     N 4771   2.879   1.695  11.356 -0.1721 -0.4042 -0.4086
   36POPC   C12 4772   2.863   1.746  11.211 -0.3218  0.5334 -1.1743
   36POPC  H12A 4773   2.787   1.822  11.210 -0.0979  0.8038  0.4721
   36POPC  H12B 4774   2.830   1.661  11.153 -2.0895 -1.5291  2.5310
   36POPC   C13 4775   2.777   1.585  11.388  0.4277  0.0081 -0.2865
   36POPC  H13A 4776   2.781   1.512  11.310  1.2923  2.1737 -2.3954
   36POPC  H13B 4777   2.795   1.540  11.485  1.6908 -1.2468 -1.0617
   36POPC  H13C 4778   2.678   1.627  11.383  0.2309 -0.4643 -0.3669
   36POPC   C14 4779   3.015   1.646  11.375  0.4911 -0.1072  0.1163
   36POPC  H14A 4780   3.083   1.725  11.347 -0.0311  0.0960 -0.6148
   36POPC  H14B 4781   3.037   1.611  11.475  2.8302  0.0426 -0.2779
   36POPC  H14C 4782   3.038   1.565  11.307 -0.8251 -0.3305 -0.0867
   36POPC   C15 4783   2.856   1.801  11.459  0.1941 -0.3709  0.3008
   36POPC  H15A 4784   2.885   1.780  11.561  1.8314  3.5875  0.8356
   36POPC  H15B 4785   2.753   1.830  11.452 -0.0521 -1.4932 -1.4030
   36POPC  H15C 4786   2.920   1.887  11.445  1.1516 -1.2270 -0.8690
   36POPC   C11 4787   2.987   1.811  11.143 -0.1927 -0.6420  0.4890
   36POPC  H11A 4788   2.948   1.830  11.041 -0.7599  1.1138  0.9906
   36POPC  H11B 4789   3.073   1.744  11.125  0.9923  0.5115  1.6128
   36POPC     P 4790   2.980   2.068  11.167 -0.3097  0.0229  0.1896
   36POPC   O13 4791   3.044   2.153  11.268 -0.2712 -0.2523 -0.3834
   36POPC   O14 4792   2.834   2.061  11.177  0.4433  0.2558 -0.5805
   36POPC   O12 4793   3.036   1.930  11.206 -0.1517  0.4988 -0.2092
   36POPC   O11 4794   3.035   2.096  11.023 -0.5238 -0.4270 -0.0791
   36POPC    C1 4795   3.146   2.027  10.978  0.2761 -0.4190 -0.3914
   36POPC    HA 4796   3.120   1.948  10.904  0.3880 -0.5516 -0.2914
   36POPC    HB 4797   3.202   1.979  11.061 -0.3494  3.3152  2.4329
   36POPC    C2 4798   3.239   2.132  10.914  0.0142 -0.3550  0.0006
   36POPC    HS 4799   3.249   2.216  10.986 -1.0294 -2.1842  2.4286
   36POPC   O21 4800   3.189   2.162  10.777 -0.1982 -0.5072  0.0165
   36POPC   C21 4801   3.224   2.276  10.725  1.0821  0.4710  0.0462
   36POPC   O22 4802   3.307   2.348  10.781 -0.6035  0.3889  0.0322
   36POPC   C22 4803   3.158   2.296  10.590 -0.7307  0.3345 -0.7859
   36POPC   H2R 4804   3.135   2.403  10.571  0.7194  0.5109 -1.6791
   36POPC   H2S 4805   3.061   2.242  10.593 -0.5247 -0.1714 -2.2898
   36POPC    C3 4806   3.382   2.066  10.897 -0.0603  0.8905 -0.1411
   36POPC    HX 4807   3.417   2.038  10.999 -4.1697 -4.6200  0.1816
   36POPC    HY 4808   3.459   2.133  10.851 -0.7986  0.4143 -2.1846
   36POPC   O31 4809   3.370   1.929  10.842  0.4915  0.1838 -0.6858
   36POPC   C31 4810   3.428   1.917  10.723  0.5112 -0.4369 -0.6266
   36POPC   O32 4811   3.472   2.011  10.662  0.7537 -0.1556  0.4033
   36POPC   C32 4812   3.415   1.777  10.672  0.6007  0.1006 -0.1633
   36POPC   H2X 4813   3.307   1.752  10.668 -0.2045  3.2102 -3.1702
   36POPC   H2Y 4814   3.470   1.704  10.734 -0.9216 -0.2550  0.8110
   36POPC   C23 4815   3.253   2.252  10.483  0.3529  0.3629 -0.0037
   36POPC   H3R 4816   3.204   2.223  10.388 -1.6495  2.2440  0.3776
   36POPC   H3S 4817   3.312   2.165  10.520 -1.6694  0.1176  2.9372
   36POPC   C24 4818   3.359   2.360  10.453 -0.0890 -0.4582 -0.6652
   36POPC   H4R 4819   3.385   2.400  10.553 -2.7041 -0.6306  0.1643
   36POPC   H4S 4820   3.313   2.441  10.393  0.9504  0.8495  0.2355
   36POPC   C25 4821   3.482   2.312  10.375 -0.2951  0.3461  0.7526
   36POPC   H5R 4822   3.521   2.215  10.412  3.0986  1.4177  0.2692
   36POPC   H5S 4823   3.564   2.387  10.370  0.5398 -0.5513 -3.3563
   36POPC   C26 4824   3.459   2.288  10.226  0.0773  0.2971  0.4697
   36POPC   H6R 4825   3.381   2.212  10.203 -0.3555  0.6387  0.7787
   36POPC   H6S 4826   3.550   2.243  10.182 -0.3853  1.3275 -1.6897
   36POPC   C27 4827   3.429   2.410  10.142 -0.1186  0.6595  0.6595
   36POPC   H7R 4828   3.521   2.472  10.141  0.4932 -0.0473 -2.9903
   36POPC   H7S 4829   3.341   2.468  10.177  0.1172  1.0179  0.6659
   36POPC   C28 4830   3.402   2.388   9.986 -0.0101  0.3763  0.6288
   36POPC   H8R 4831   3.303   2.338   9.981  0.0849  0.2284  0.1321
   36POPC   H8S 4832   3.491   2.334   9.945 -0.1346 -0.4952  1.4948
   36POPC   C29 4833   3.389   2.514   9.908 -0.2490 -0.2254 -0.1173
   36POPC   H91 4834   3.414   2.604   9.966  1.5044 -1.0719  0.5339
   36POPC  C210 4835   3.362   2.527   9.779 -0.0662 -0.4866  0.5052
   36POPC  H101 4836   3.362   2.632   9.744 -0.5252 -0.6986 -0.1649
   36POPC  C211 4837   3.331   2.418   9.673  0.9328 -0.3387 -0.5033
   36POPC  H11R 4838   3.224   2.418   9.643 -0.2704 -1.5025  3.1727
   36POPC  H11S 4839   3.342   2.320   9.724  0.3333 -0.1673 -0.0302
   36POPC  C212 4840   3.429   2.399   9.566 -0.1429  0.3419  0.3504
   36POPC  H12R 4841   3.389   2.307   9.518  0.0743 -1.0837  2.7129
   36POPC  H12S 4842   3.532   2.375   9.600  0.6438  0.6247 -1.7062
   36POPC  C213 4843   3.425   2.507   9.458  0.7153  0.0458  0.1547
   36POPC  H13R 4844   3.458   2.604   9.502  0.4764  1.5840 -2.7762
   36POPC  H13S 4845   3.322   2.513   9.417  0.5508 -2.1587  0.1429
   36POPC  C214 4846   3.525   2.481   9.341 -0.5041  0.0422 -0.2994
   36POPC  H14R 4847   3.520   2.374   9.312  3.2337 -0.8265  1.5853
   36POPC  H14S 4848   3.623   2.515   9.383 -1.2926  0.3478  1.3714
   36POPC  C215 4849   3.487   2.569   9.226 -0.6455 -0.1983  0.3426
   36POPC  H15R 4850   3.478   2.673   9.263 -0.6066 -0.9175  2.4898
   36POPC  H15S 4851   3.388   2.545   9.181 -0.2486 -0.6705 -0.2877
   36POPC  C216 4852   3.596   2.566   9.116  1.1962 -0.7858  0.2018
   36POPC  H16R 4853   3.629   2.468   9.077  1.0348 -0.1148 -1.7547
   36POPC  H16S 4854   3.691   2.599   9.162  1.9074 -0.9479 -1.1080
   36POPC  C217 4855   3.555   2.647   8.998 -0.0065  0.6287  0.2405
   36POPC  H17R 4856   3.562   2.755   9.020  0.7856  1.0290 -1.7008
   36POPC  H17S 4857   3.446   2.630   8.989 -0.0353  0.9262 -0.0008
   36POPC  C218 4858   3.621   2.607   8.869  0.1488 -0.5649  0.2149
   36POPC  H18R 4859   3.583   2.510   8.830  0.7259 -0.8623  0.3751
   36POPC  H18S 4860   3.732   2.595   8.870  0.0410 -2.0726 -1.3007
   36POPC  H18T 4861   3.597   2.692   8.802  1.6935 -0.8905 -0.8027
   36POPC   C33 4862   3.471   1.776  10.531  0.0798  0.3379 -0.2198
   36POPC   H3X 4863   3.479   1.666  10.516 -0.8329 -0.3110  3.1600
   36POPC   H3Y 4864   3.564   1.827  10.498 -1.5938  4.0308  0.2042
   36POPC   C34 4865   3.372   1.842  10.435 -0.3764  0.4230  0.5474
   36POPC   H4X 4866   3.334   1.940  10.473  2.1253  1.0831  1.5730
   36POPC   H4Y 4867   3.283   1.775  10.430 -1.1215  1.4594 -0.5084
   36POPC   C35 4868   3.435   1.854  10.292 -0.1061 -0.2473 -0.4514
   36POPC   H5X 4869   3.495   1.764  10.268 -0.3269 -1.0385  1.6887
   36POPC   H5Y 4870   3.507   1.938  10.293 -1.1388  0.6727  0.7254
   36POPC   C36 4871   3.326   1.890  10.195 -0.3439  0.9179 -0.2177
   36POPC   H6X 4872   3.281   1.986  10.226 -0.8104  0.3171  1.0294
   36POPC   H6Y 4873   3.243   1.816  10.208  0.0620  0.5631  0.4142
   36POPC   C37 4874   3.362   1.892  10.046  0.3696 -0.5988  0.2095
   36POPC   H7X 4875   3.399   1.792  10.016 -0.1760 -0.7630  0.0676
   36POPC   H7Y 4876   3.435   1.975  10.049 -0.4897  0.2235  3.9611
   36POPC   C38 4877   3.236   1.934   9.970  0.0360  0.4429 -0.1826
   36POPC   H8X 4878   3.208   2.031  10.017 -0.7626 -0.2126  0.7181
   36POPC   H8Y 4879   3.152   1.866   9.997  0.1421  0.6312  0.6301
   36POPC   C39 4880   3.246   1.932   9.816 -0.3618 -1.0794  0.1094
   36POPC   H9X 4881   3.144   1.915   9.776 -0.4808 -0.5192  0.1694
   36POPC   H9Y 4882   3.311   1.847   9.787  1.4020  0.3033 -0.2049
   36POPC  C310 4883   3.311   2.051   9.748  0.3015  0.0803 -0.3712
   36POPC  H10X 4884   3.403   2.095   9.793 -0.3247  1.0316  0.0095
   36POPC  H10Y 4885   3.237   2.133   9.761 -0.8507 -0.8690 -0.7446
   36POPC  C311 4886   3.334   2.034   9.597  0.4849  0.5151 -0.4978
   36POPC  H11X 4887   3.374   1.932   9.581  1.2935  0.3789  2.0135
   36POPC  H11Y 4888   3.411   2.106   9.562 -0.0807  0.1771 -2.6169
   36POPC  C312 4889   3.208   2.068   9.501  0.1467  0.3190 -0.3136
   36POPC  H12X 4890   3.155   2.157   9.540  0.0270  0.9288 -1.7881
   36POPC  H12Y 4891   3.137   1.987   9.528 -0.4592  1.9886  3.9012
   36POPC  C313 4892   3.228   2.065   9.348  0.2712 -0.1412 -0.6461
   36POPC  H13X 4893   3.135   2.021   9.307  1.6085 -0.6722 -3.3019
   36POPC  H13Y 4894   3.311   1.998   9.316  1.8864  0.8702  1.2318
   36POPC  C314 4895   3.237   2.200   9.282 -0.1744  0.2718  0.0239
   36POPC  H14X 4896   3.268   2.280   9.354 -0.3169  0.5130 -0.1804
   36POPC  H14Y 4897   3.137   2.219   9.238 -0.2021 -2.0082 -1.0256
   36POPC  C315 4898   3.335   2.213   9.166 -0.2592  0.2517  0.2846
   36POPC  H15X 4899   3.437   2.198   9.208 -0.3341 -3.1724 -0.4624
   36POPC  H15Y 4900   3.329   2.320   9.137 -0.8892  0.1217 -0.0835
   36POPC  C316 4901   3.303   2.127   9.045 -0.3830 -0.2925  0.7533
   36POPC  H16X 4902   3.356   2.148   8.950 -0.7051 -0.4597  0.5354
   36POPC  H16Y 4903   3.195   2.139   9.022 -0.0010  0.9706 -0.4756
   36POPC  H16Z 4904   3.319   2.020   9.071  1.3076 -0.0586  0.8051
   37POPC     N 4905   4.609   4.280   6.753  0.0122  0.4132 -0.1567
   37POPC   C12 4906   4.646   4.262   6.905  0.3437  0.7078 -0.3950
   37POPC  H12A 4907   4.691   4.354   6.937  0.6221  0.8829 -1.2481
   37POPC  H12B 4908   4.728   4.191   6.914 -1.0408 -0.7328  2.0619
   37POPC   C13 4909   4.493   4.364   6.738 -0.1638 -0.1079 -0.1881
   37POPC  H13A 4910   4.408   4.319   6.788 -0.6043  0.4298 -0.4463
   37POPC  H13B 4911   4.510   4.467   6.766 -1.0529  0.1628 -0.5875
   37POPC  H13C 4912   4.459   4.372   6.636 -2.3227 -1.4635  0.3417
   37POPC   C14 4913   4.723   4.336   6.671 -0.0507 -0.7083  1.0368
   37POPC  H14A 4914   4.746   4.437   6.701 -1.1528  0.0784 -0.6327
   37POPC  H14B 4915   4.815   4.282   6.686  1.8056  2.3283  1.4468
   37POPC  H14C 4916   4.698   4.324   6.567  0.4775  0.7889  0.7187
   37POPC   C15 4917   4.560   4.156   6.697 -0.0674  1.0089  0.3771
   37POPC  H15A 4918   4.486   4.109   6.761 -0.4671 -2.9586 -2.6197
   37POPC  H15B 4919   4.648   4.093   6.701  1.1754  2.7407  2.8191
   37POPC  H15C 4920   4.508   4.160   6.603 -0.6232 -0.6584  0.5741
   37POPC   C11 4921   4.529   4.229   7.001 -0.5186  0.2624  0.2172
   37POPC  H11A 4922   4.450   4.307   6.992  0.0913  1.2999  2.9738
   37POPC  H11B 4923   4.571   4.234   7.103  0.1930  0.8677 -0.0970
   37POPC     P 4924   4.552   3.963   7.006 -0.1008  0.2749 -0.0534
   37POPC   O13 4925   4.577   3.896   6.871 -1.1279  0.0561  0.1744
   37POPC   O14 4926   4.463   3.881   7.092 -0.0847  0.4391  0.0461
   37POPC   O12 4927   4.479   4.097   6.970  0.3519 -0.6322  0.8662
   37POPC   O11 4928   4.684   4.015   7.079  0.4746  0.5946  0.3835
   37POPC    C1 4929   4.818   3.971   7.051  0.3926  0.7525  0.6341
   37POPC    HA 4930   4.885   4.022   7.122  0.0630  0.0768  1.4413
   37POPC    HB 4931   4.850   4.008   6.951  1.8264 -1.0170  0.3652
   37POPC    C2 4932   4.847   3.820   7.077  0.5881 -0.3117 -0.3547
   37POPC    HS 4933   4.793   3.764   6.999  0.6254 -0.0709 -0.5549
   37POPC   O21 4934   4.797   3.782   7.205  0.0526 -0.5287  0.0633
   37POPC   C21 4935   4.779   3.654   7.225  0.4781 -0.4438 -0.6715
   37POPC   O22 4936   4.785   3.565   7.141 -0.7705 -0.2700 -0.7813
   37POPC   C22 4937   4.770   3.641   7.379 -0.1048  0.5905 -0.1316
   37POPC   H2R 4938   4.665   3.654   7.413  0.3304  0.6628  1.2741
   37POPC   H2S 4939   4.834   3.718   7.428 -1.1931  2.6266 -1.7557
   37POPC    C3 4940   4.998   3.778   7.067 -0.0559  0.3764 -0.2788
   37POPC    HX 4941   5.015   3.805   6.961  0.6224 -1.1000 -0.5657
   37POPC    HY 4942   5.007   3.668   7.074  1.0708  0.2834 -2.4920
   37POPC   O31 4943   5.093   3.848   7.151 -0.7007 -0.9270  0.1375
   37POPC   C31 4944   5.135   3.791   7.261 -0.2433  0.5409 -0.5602
   37POPC   O32 4945   5.119   3.672   7.287  0.4870 -0.5843 -0.3843
   37POPC   C32 4946   5.204   3.895   7.350 -0.1076 -0.0807  0.4840
   37POPC   H2X 4947   5.143   3.987   7.339  1.3330  0.9071  0.4944
   37POPC   H2Y 4948   5.299   3.912   7.296 -1.2342 -1.6152 -2.1587
   37POPC   C23 4949   4.811   3.499   7.416 -0.0246 -0.2159  0.5752
   37POPC   H3R 4950   4.915   3.486   7.380 -0.1329  1.8887 -0.6724
   37POPC   H3S 4951   4.741   3.428   7.366 -1.4113  0.1615  1.9106
   37POPC   C24 4952   4.813   3.455   7.562  0.3105  0.2275 -0.2963
   37POPC   H4R 4953   4.801   3.344   7.558 -0.5555  0.2900  0.2357
   37POPC   H4S 4954   4.712   3.481   7.602 -0.3680  0.9852 -2.4010
   37POPC   C25 4955   4.923   3.520   7.644 -0.8693  0.3239  0.3811
   37POPC   H5R 4956   4.892   3.624   7.669 -1.6398  0.1504  0.1899
   37POPC   H5S 4957   5.017   3.514   7.586 -0.1619 -0.9957  1.6035
   37POPC   C26 4958   4.942   3.464   7.784  0.4259  0.0790  0.1067
   37POPC   H6R 4959   5.021   3.528   7.828 -1.0765  2.0129  0.1204
   37POPC   H6S 4960   4.974   3.358   7.777  1.6487  0.4666 -0.3951
   37POPC   C27 4961   4.809   3.470   7.876  0.4932  0.2761 -0.3474
   37POPC   H7R 4962   4.734   3.398   7.837  2.2860 -1.2643 -1.1291
   37POPC   H7S 4963   4.768   3.572   7.886  0.7478  0.2592  1.2235
   37POPC   C28 4964   4.827   3.415   8.016  0.9039 -0.2664 -0.1807
   37POPC   H8R 4965   4.884   3.321   8.005 -0.9167 -1.3149 -1.0648
   37POPC   H8S 4966   4.730   3.384   8.061 -0.3159  2.4530 -0.7028
   37POPC   C29 4967   4.893   3.525   8.103  0.3265 -0.0328  0.2422
   37POPC   H91 4968   4.987   3.560   8.058  0.2838 -0.2773 -0.0434
   37POPC  C210 4969   4.854   3.564   8.226 -0.5449  0.7159  0.3155
   37POPC  H101 4970   4.900   3.650   8.277 -1.5581 -0.0071  2.5782
   37POPC  C211 4971   4.734   3.511   8.298  0.0946  0.3631  0.2218
   37POPC  H11R 4972   4.716   3.403   8.279  0.6039  0.2602  0.2994
   37POPC  H11S 4973   4.652   3.558   8.241 -0.3014 -1.7597 -1.0919
   37POPC  C212 4974   4.718   3.547   8.443 -0.0225  0.2601 -0.3086
   37POPC  H12R 4975   4.607   3.538   8.450 -0.0005 -0.4442 -0.7764
   37POPC  H12S 4976   4.742   3.652   8.468  2.2415 -0.4571  0.8460
   37POPC  C213 4977   4.778   3.452   8.551  0.7981  0.2508  0.1027
   37POPC  H13R 4978   4.885   3.482   8.551  0.4941  1.4036  0.9245
   37POPC  H13S 4979   4.761   3.346   8.522  0.0440 -0.1595  1.9138
   37POPC  C214 4980   4.733   3.469   8.693  0.3811 -0.3773 -0.1606
   37POPC  H14R 4981   4.623   3.452   8.687  0.5591 -1.5439 -0.4897
   37POPC  H14S 4982   4.752   3.575   8.717 -0.3338  0.0061 -1.1790
   37POPC  C215 4983   4.783   3.368   8.803 -0.2810  0.6028  0.2066
   37POPC  H15R 4984   4.894   3.366   8.792 -0.3470 -1.0059 -0.5212
   37POPC  H15S 4985   4.739   3.269   8.782  0.5802  0.1567  0.4291
   37POPC  C216 4986   4.737   3.389   8.945  0.1055  0.2792  0.5698
   37POPC  H16R 4987   4.788   3.482   8.979  0.5440  0.2372  0.0520
   37POPC  H16S 4988   4.774   3.307   9.010  1.1629  1.5774  1.6744
   37POPC  C217 4989   4.584   3.412   8.963 -0.9540  0.5816 -0.5103
   37POPC  H17R 4990   4.555   3.512   8.925  0.1695  0.5609 -1.5176
   37POPC  H17S 4991   4.570   3.428   9.072 -2.3583 -1.0921 -0.4047
   37POPC  C218 4992   4.482   3.310   8.901 -0.1529 -0.0351 -1.3816
   37POPC  H18R 4993   4.507   3.292   8.794  2.4512 -0.5953 -0.7471
   37POPC  H18S 4994   4.376   3.345   8.908 -0.9970 -2.6816  0.8098
   37POPC  H18T 4995   4.481   3.214   8.956 -0.5809  1.2066  0.9331
   37POPC   C33 4996   5.212   3.846   7.499  0.6588 -0.2833  0.0602
   37POPC   H3X 4997   5.276   3.756   7.506 -1.0430 -1.4018  2.8183
   37POPC   H3Y 4998   5.111   3.816   7.534 -0.0618  1.3241 -0.5137
   37POPC   C34 4999   5.258   3.966   7.588  0.4484 -0.2140 -0.9105
   37POPC   H4X 5000   5.170   4.034   7.599 -0.5242 -1.3605 -1.4256
   37POPC   H4Y 5001   5.336   4.025   7.536  1.1386 -0.3071 -0.0016
   37POPC   C35 5002   5.323   3.914   7.714 -0.9750  0.3512 -0.2572
   37POPC   H5X 5003   5.394   3.987   7.758  0.0477 -0.4123 -0.6105
   37POPC   H5Y 5004   5.387   3.827   7.690 -3.5164 -1.6489 -0.1682
   37POPC   C36 5005   5.230   3.863   7.828 -0.1377 -0.1388 -0.5873
   37POPC   H6X 5006   5.211   3.754   7.827 -1.1574  0.0112  0.3679
   37POPC   H6Y 5007   5.133   3.918   7.819  0.8004  1.4861 -1.2450
   37POPC   C37 5008   5.291   3.891   7.967  0.2958  0.0347  0.6007
   37POPC   H7X 5009   5.318   3.996   7.991  0.5539 -0.0865  0.8514
   37POPC   H7Y 5010   5.388   3.837   7.967 -1.1974 -2.8839  0.0210
   37POPC   C38 5011   5.184   3.855   8.068 -0.0835 -0.7152 -0.7259
   37POPC   H8X 5012   5.124   3.763   8.048 -1.0009 -0.3652  0.3370
   37POPC   H8Y 5013   5.118   3.944   8.067  2.2348  1.1762  1.5837
   37POPC   C39 5014   5.245   3.834   8.214  0.6373  0.4084  0.4892
   37POPC   H9X 5015   5.277   3.926   8.267  1.2172 -1.6121  3.9871
   37POPC   H9Y 5016   5.336   3.771   8.217 -0.6768 -1.6861 -0.7561
   37POPC  C310 5017   5.146   3.765   8.308 -0.3789 -0.2870 -0.6738
   37POPC  H10X 5018   5.108   3.668   8.269 -0.7316 -0.4438  0.0577
   37POPC  H10Y 5019   5.057   3.828   8.329 -0.7601 -1.0245 -0.0382
   37POPC  C311 5020   5.218   3.727   8.441 -1.0933  0.7469  0.4872
   37POPC  H11X 5021   5.290   3.807   8.469 -0.4486  0.1748  0.4804
   37POPC  H11Y 5022   5.277   3.634   8.426  0.6677  1.7867  0.6692
   37POPC  C312 5023   5.114   3.693   8.548  0.1106  0.3908  0.3171
   37POPC  H12X 5024   5.079   3.589   8.535  2.7185 -0.5969  0.4843
   37POPC  H12Y 5025   5.022   3.755   8.540 -0.6919 -0.9988 -2.3231
   37POPC  C313 5026   5.170   3.707   8.688 -0.8042 -0.1837  0.5293
   37POPC  H13X 5027   5.197   3.815   8.697 -0.5196 -0.1983 -0.1009
   37POPC  H13Y 5028   5.254   3.635   8.688  0.3859  1.1087  2.7987
   37POPC  C314 5029   5.059   3.686   8.802 -0.0567  0.3423 -0.0488
   37POPC  H14X 5030   5.008   3.589   8.786 -2.5519  1.3832  1.1129
   37POPC  H14Y 5031   4.986   3.767   8.782  0.6204  1.3779  1.4275
   37POPC  C315 5032   5.110   3.695   8.945 -0.2655 -0.1613 -0.2815
   37POPC  H15X 5033   5.021   3.712   9.008  0.4095  3.0249 -0.0250
   37POPC  H15Y 5034   5.169   3.788   8.963 -2.8435  1.1384  2.1552
   37POPC  C316 5035   5.187   3.571   8.985  0.0364  0.0861  0.0266
   37POPC  H16X 5036   5.263   3.570   8.904  1.4672  2.9687  1.1700
   37POPC  H16Y 5037   5.119   3.484   8.984  0.1581 -0.0617  1.5215
   37POPC  H16Z 5038   5.233   3.581   9.086 -0.9926 -0.8617  0.6102
   38POPC     N 5039   4.412   3.289   6.310  0.3293  0.5590  0.5420
   38POPC   C12 5040   4.555   3.316   6.259  0.7895  1.0203  0.6147
   38POPC  H12A 5041   4.564   3.263   6.165 -2.1709 -1.6341  1.6449
   38POPC  H12B 5042   4.625   3.270   6.327  0.9957  0.8110  0.2616
   38POPC   C13 5043   4.370   3.147   6.320  0.9250  0.3824  0.5811
   38POPC  H13A 5044   4.342   3.117   6.220  2.0256  0.3277  0.2719
   38POPC  H13B 5045   4.452   3.086   6.355  0.6417  0.6070  1.6551
   38POPC  H13C 5046   4.290   3.125   6.389  1.1256 -2.7104 -0.0389
   38POPC   C14 5047   4.409   3.331   6.455 -0.8323  0.1851 -0.0048
   38POPC  H14A 5048   4.434   3.436   6.460  2.2534 -0.3846 -1.4445
   38POPC  H14B 5049   4.313   3.311   6.501  0.3705 -0.6013  2.3000
   38POPC  H14C 5050   4.489   3.275   6.501  0.5060  0.1399 -2.2394
   38POPC   C15 5051   4.305   3.359   6.229 -0.4432  0.4713  0.3001
   38POPC  H15A 5052   4.281   3.309   6.136  0.3118  1.1033 -0.2415
   38POPC  H15B 5053   4.338   3.457   6.198 -0.2529 -0.1891 -1.7214
   38POPC  H15C 5054   4.224   3.361   6.301  0.7398 -1.6018  1.8071
   38POPC   C11 5055   4.596   3.459   6.222  0.0979 -0.4094 -0.0163
   38POPC  H11A 5056   4.531   3.499   6.141 -0.3897  1.1073  1.0772
   38POPC  H11B 5057   4.698   3.466   6.180  1.1853 -2.0944  2.1435
   38POPC     P 5058   4.715   3.552   6.449 -0.1285  0.3171  0.0075
   38POPC   O13 5059   4.674   3.633   6.567  0.2351  0.3351 -0.4801
   38POPC   O14 5060   4.841   3.577   6.379 -0.0790 -0.2440  0.3143
   38POPC   O12 5061   4.597   3.547   6.337 -0.0593  0.1325  0.1343
   38POPC   O11 5062   4.715   3.392   6.491 -0.2085 -0.3225  0.4135
   38POPC    C1 5063   4.806   3.348   6.591  0.0648 -0.0074  0.1165
   38POPC    HA 5064   4.864   3.432   6.635  0.1577  2.2290 -3.8041
   38POPC    HB 5065   4.876   3.268   6.560 -0.5012 -1.0677  1.4806
   38POPC    C2 5066   4.736   3.274   6.705  0.1926 -0.5178  0.3114
   38POPC    HS 5067   4.668   3.205   6.651  0.4386  0.1448 -0.8901
   38POPC   O21 5068   4.656   3.364   6.781  0.0475  0.5852 -0.2468
   38POPC   C21 5069   4.564   3.308   6.857 -0.6349  0.3302 -0.5351
   38POPC   O22 5070   4.529   3.189   6.847  0.4894  0.0274  0.2143
   38POPC   C22 5071   4.505   3.416   6.944  0.4770  0.5244 -0.2994
   38POPC   H2R 5072   4.444   3.486   6.883 -0.0076  1.9295  1.6915
   38POPC   H2S 5073   4.577   3.482   6.997  0.9429 -0.6638  0.5746
   38POPC    C3 5074   4.830   3.186   6.786 -0.3023 -0.3368  0.1887
   38POPC    HX 5075   4.875   3.116   6.712 -0.3887  0.7659 -0.9404
   38POPC    HY 5076   4.777   3.128   6.864  0.5168  1.1540  1.9297
   38POPC   O31 5077   4.929   3.278   6.832  0.1393  0.5349  0.7067
   38POPC   C31 5078   5.043   3.219   6.881  0.6075 -0.0755 -0.7248
   38POPC   O32 5079   5.060   3.098   6.889 -0.2524 -0.2303 -0.2168
   38POPC   C32 5080   5.121   3.326   6.967  0.4104 -0.4060 -0.0825
   38POPC   H2X 5081   5.041   3.399   6.992 -0.9910 -1.5338 -1.0534
   38POPC   H2Y 5082   5.193   3.378   6.900 -0.5185 -1.1543 -1.7384
   38POPC   C23 5083   4.420   3.338   7.051 -0.0277 -0.6178  0.7460
   38POPC   H3R 5084   4.485   3.254   7.085  0.8575  0.9470  3.1658
   38POPC   H3S 5085   4.331   3.288   7.009  0.7542  0.2148 -2.1493
   38POPC   C24 5086   4.387   3.424   7.175  0.7157  0.2182  0.0074
   38POPC   H4R 5087   4.309   3.500   7.150  0.6803 -0.0365 -0.6913
   38POPC   H4S 5088   4.476   3.484   7.204 -1.0793  3.0040  0.1930
   38POPC   C25 5089   4.351   3.349   7.302 -0.0560  0.7431  0.2970
   38POPC   H5R 5090   4.391   3.245   7.301 -1.3268  0.2356 -0.5223
   38POPC   H5S 5091   4.241   3.332   7.298 -0.1341  1.4832 -1.3094
   38POPC   C26 5092   4.381   3.431   7.425 -0.8118 -0.0004  0.0777
   38POPC   H6R 5093   4.329   3.529   7.415 -2.4425 -0.7179  1.1395
   38POPC   H6S 5094   4.490   3.445   7.441 -0.6519 -1.8672  0.8819
   38POPC   C27 5095   4.336   3.356   7.551  0.3490  0.5264  0.3910
   38POPC   H7R 5096   4.353   3.250   7.524  0.2420  0.2847  1.2457
   38POPC   H7S 5097   4.226   3.362   7.569 -0.1734 -2.6553 -1.0285
   38POPC   C28 5098   4.412   3.390   7.676 -0.8192  0.1642  0.5958
   38POPC   H8R 5099   4.514   3.350   7.659 -0.1907  1.1729  1.8228
   38POPC   H8S 5100   4.372   3.333   7.763  0.3614  0.0454  1.0770
   38POPC   C29 5101   4.401   3.540   7.710 -0.1722  0.1776 -0.0097
   38POPC   H91 5102   4.375   3.613   7.631  1.3246 -0.8915 -1.5854
   38POPC  C210 5103   4.420   3.583   7.835  0.1150 -0.1887 -0.9981
   38POPC  H101 5104   4.421   3.692   7.850 -0.6212 -0.0597 -1.8136
   38POPC  C211 5105   4.448   3.506   7.965  0.0499  0.5229 -0.6554
   38POPC  H11R 5106   4.507   3.573   8.031 -1.6514  1.5252 -0.0832
   38POPC  H11S 5107   4.511   3.419   7.939 -1.0332 -0.3547 -0.4491
   38POPC  C212 5108   4.325   3.451   8.041 -0.2001  0.4528  0.2360
   38POPC  H12R 5109   4.267   3.385   7.973  0.6512  1.9836 -2.0731
   38POPC  H12S 5110   4.265   3.538   8.076  2.2335  2.2166  0.2834
   38POPC  C213 5111   4.374   3.386   8.174  0.4720  0.4738  0.4213
   38POPC  H13R 5112   4.421   3.472   8.227 -0.2732  2.5755 -2.0878
   38POPC  H13S 5113   4.451   3.307   8.161 -1.6207 -1.5067 -0.4219
   38POPC  C214 5114   4.255   3.343   8.261  0.7561  0.2657 -0.3059
   38POPC  H14R 5115   4.218   3.243   8.227  0.0520  0.4563 -0.1109
   38POPC  H14S 5116   4.167   3.409   8.245 -0.7491 -0.8654  2.5301
   38POPC  C215 5117   4.289   3.330   8.415  0.7296 -0.2349  0.2089
   38POPC  H15R 5118   4.323   3.427   8.455 -0.6825 -0.0307  0.9890
   38POPC  H15S 5119   4.351   3.241   8.439 -0.8851 -1.3026  0.6561
   38POPC  C216 5120   4.161   3.301   8.504 -0.5579 -0.5707 -0.3922
   38POPC  H16R 5121   4.128   3.196   8.486  1.4517 -1.6457  1.7495
   38POPC  H16S 5122   4.075   3.370   8.488 -0.0293  0.5509  1.2540
   38POPC  C217 5123   4.184   3.339   8.653 -0.2971  0.3031  0.3721
   38POPC  H17R 5124   4.276   3.293   8.694  0.3981  3.2794  2.4628
   38POPC  H17S 5125   4.100   3.305   8.717 -1.0834  1.7396  0.1563
   38POPC  C218 5126   4.194   3.489   8.685  0.2069 -0.3179 -0.6256
   38POPC  H18R 5127   4.194   3.520   8.791 -0.7384  1.5101 -1.1162
   38POPC  H18S 5128   4.110   3.555   8.652  0.8044  1.5072  1.2722
   38POPC  H18T 5129   4.286   3.527   8.636 -0.6048 -0.1377 -2.0826
   38POPC   C33 5130   5.203   3.267   7.082 -0.4853  0.3149 -1.9886
   38POPC   H3X 5131   5.278   3.343   7.113  1.8518 -1.4737 -2.9463
   38POPC   H3Y 5132   5.263   3.181   7.044 -1.3564 -0.7229 -1.0963
   38POPC   C34 5133   5.114   3.220   7.205  0.7955 -0.8429  0.2673
   38POPC   H4X 5134   5.030   3.163   7.162 -2.1940  1.3193  2.7970
   38POPC   H4Y 5135   5.081   3.315   7.252  2.1243 -0.3964  0.3557
   38POPC   C35 5136   5.200   3.141   7.302 -0.0328  0.0181 -0.2136
   38POPC   H5X 5137   5.292   3.197   7.329  0.6441 -1.2132  0.1056
   38POPC   H5Y 5138   5.223   3.044   7.254  0.6843 -0.1246  0.3973
   38POPC   C36 5139   5.126   3.105   7.437 -0.3867 -0.3325  0.0928
   38POPC   H6X 5140   5.024   3.070   7.412  0.3414 -1.7373 -1.0069
   38POPC   H6Y 5141   5.118   3.198   7.498 -0.0520 -0.4276  0.2850
   38POPC   C37 5142   5.201   2.996   7.521 -0.2303  0.1386 -0.2852
   38POPC   H7X 5143   5.303   3.037   7.538  0.5247 -1.2798 -1.1755
   38POPC   H7Y 5144   5.212   2.904   7.460 -2.4326 -1.3462  1.3691
   38POPC   C38 5145   5.131   2.962   7.653 -0.1748 -0.5509  0.6268
   38POPC   H8X 5146   5.145   2.857   7.686 -1.9269 -0.3884  2.0317
   38POPC   H8Y 5147   5.021   2.957   7.639 -0.2092 -0.3068  0.7923
   38POPC   C39 5148   5.167   3.050   7.773  0.1013 -0.1428  0.7835
   38POPC   H9X 5149   5.154   3.156   7.744 -0.3633 -0.3774  0.1152
   38POPC   H9Y 5150   5.277   3.039   7.784  0.1347 -2.0211 -0.8949
   38POPC  C310 5151   5.092   3.002   7.902 -0.0062 -0.4213  0.0666
   38POPC  H10X 5152   5.130   2.899   7.921  0.6789 -0.3676 -0.9435
   38POPC  H10Y 5153   4.984   3.008   7.878  0.0052  3.3413  0.3231
   38POPC  C311 5154   5.136   3.078   8.024 -0.2169  0.0935 -0.0347
   38POPC  H11X 5155   5.091   3.180   8.021  1.2606  0.7862  0.5275
   38POPC  H11Y 5156   5.246   3.086   8.037 -0.1421 -0.5314 -0.2480
   38POPC  C312 5157   5.088   3.026   8.159 -0.5798 -0.5416 -0.5783
   38POPC  H12X 5158   5.150   2.935   8.172  2.5534  1.5634  0.1781
   38POPC  H12Y 5159   4.980   3.000   8.166 -0.8040  0.2517 -0.9957
   38POPC  C313 5160   5.123   3.130   8.264  0.4100 -0.4838 -1.0839
   38POPC  H13X 5161   5.047   3.210   8.254  2.5549  1.6071 -1.3518
   38POPC  H13Y 5162   5.225   3.166   8.241  0.2216 -0.8219 -2.5801
   38POPC  C314 5163   5.129   3.063   8.404 -0.5478  0.0928  0.7003
   38POPC  H14X 5164   5.189   2.970   8.398 -2.6793 -1.2950 -0.0425
   38POPC  H14Y 5165   5.030   3.020   8.429  0.1450 -1.2706  1.1802
   38POPC  C315 5166   5.176   3.164   8.507  0.1605  0.2266  0.0463
   38POPC  H15X 5167   5.278   3.199   8.483  1.2249 -1.4078  1.8887
   38POPC  H15Y 5168   5.188   3.124   8.610 -0.7213 -2.2307 -0.7341
   38POPC  C316 5169   5.079   3.279   8.525  0.2424 -0.8347  0.2069
   38POPC  H16X 5170   5.124   3.353   8.595 -0.7990  1.8142 -1.7466
   38POPC  H16Y 5171   4.985   3.244   8.574  0.6590 -1.7061  0.4123
   38POPC  H16Z 5172   5.065   3.323   8.424 -1.8613 -2.4951 -0.2921
   39POPC     N 5173   5.623   5.573   6.183  0.0150 -1.0777  0.2054
   39POPC   C12 5174   5.585   5.437   6.235 -0.1930 -0.2358  0.2939
   39POPC  H12A 5175   5.630   5.356   6.179  1.0995 -0.6375  1.8406
   39POPC  H12B 5176   5.477   5.429   6.231 -0.2893 -0.7761  2.6092
   39POPC   C13 5177   5.575   5.588   6.039 -1.0420  0.1297 -0.1905
   39POPC  H13A 5178   5.567   5.693   6.018 -1.5039 -0.4304 -3.2541
   39POPC  H13B 5179   5.650   5.542   5.977 -1.3362 -0.7683  0.1024
   39POPC  H13C 5180   5.493   5.521   6.018  0.8966 -1.9164 -1.7088
   39POPC   C14 5181   5.550   5.680   6.263  0.2905 -0.5820  0.1946
   39POPC  H14A 5182   5.572   5.770   6.208  2.4458 -1.5573 -0.6828
   39POPC  H14B 5183   5.444   5.662   6.259  0.1333  0.3567 -0.0375
   39POPC  H14C 5184   5.569   5.682   6.369 -0.9968 -0.4632  0.4365
   39POPC   C15 5185   5.769   5.603   6.199  0.7489  0.5332  0.1838
   39POPC  H15A 5186   5.816   5.550   6.119  0.6646 -0.6694  0.9014
   39POPC  H15B 5187   5.804   5.584   6.300  0.0155  3.2462  1.0495
   39POPC  H15C 5188   5.799   5.705   6.178 -0.3684  0.8047 -0.1974
   39POPC   C11 5189   5.621   5.407   6.388 -0.7416  0.1633 -0.0207
   39POPC  H11A 5190   5.731   5.393   6.390 -0.5781  1.3295 -0.1544
   39POPC  H11B 5191   5.587   5.304   6.412 -0.0182  0.3247  1.8568
   39POPC     P 5192   5.433   5.489   6.541 -0.0635  0.1058 -0.1133
   39POPC   O13 5193   5.345   5.437   6.434  0.1202 -0.3844 -0.2715
   39POPC   O14 5194   5.399   5.620   6.607 -0.1024 -0.0019  0.3072
   39POPC   O12 5195   5.580   5.498   6.486 -0.0608 -0.3779  0.2515
   39POPC   O11 5196   5.427   5.377   6.652  0.1409 -0.1413  0.2526
   39POPC    C1 5197   5.541   5.342   6.733  0.3683 -0.6885 -0.0755
   39POPC    HA 5198   5.636   5.384   6.694  1.2487 -1.1552  1.4739
   39POPC    HB 5199   5.552   5.232   6.720  0.6536 -0.3979 -2.7700
   39POPC    C2 5200   5.523   5.393   6.880 -0.3878  0.0804 -0.1257
   39POPC    HS 5201   5.423   5.352   6.905  0.2857 -1.2354  0.4855
   39POPC   O21 5202   5.536   5.534   6.890 -0.1144  0.0283 -0.0911
   39POPC   C21 5203   5.428   5.598   6.921  0.6133  0.2504 -0.3244
   39POPC   O22 5204   5.319   5.549   6.951  0.6335  0.4445  0.3833
   39POPC   C22 5205   5.467   5.750   6.920 -0.1549  0.0095  0.6356
   39POPC   H2R 5206   5.457   5.794   6.819  0.7728  2.5379  1.5603
   39POPC   H2S 5207   5.573   5.757   6.955  1.2360  0.7524 -3.2131
   39POPC    C3 5208   5.623   5.329   6.974 -0.0713 -0.0129 -0.6379
   39POPC    HX 5209   5.722   5.379   6.971  0.1227 -0.0944  1.9973
   39POPC    HY 5210   5.624   5.220   6.954 -5.0770 -0.1007 -1.6734
   39POPC   O31 5211   5.582   5.357   7.112 -0.0378 -0.4985  0.0125
   39POPC   C31 5212   5.513   5.259   7.178  0.2552 -0.2048  0.8128
   39POPC   O32 5213   5.485   5.152   7.124 -0.4195  0.0951  0.1973
   39POPC   C32 5214   5.481   5.293   7.322 -0.1785 -0.3868 -0.4231
   39POPC   H2X 5215   5.571   5.338   7.369  0.1429 -0.8264 -0.6139
   39POPC   H2Y 5216   5.389   5.354   7.312  0.2883  0.1595 -1.5182
   39POPC   C23 5217   5.362   5.827   7.000  0.4102 -0.3804 -0.9429
   39POPC   H3R 5218   5.268   5.836   6.942 -0.7272 -0.4630  0.7914
   39POPC   H3S 5219   5.404   5.930   7.002  1.9816 -0.9686  1.5681
   39POPC   C24 5220   5.341   5.791   7.149 -0.3416  0.3257  0.2520
   39POPC   H4R 5221   5.291   5.692   7.145  1.0311 -0.3539 -2.3942
   39POPC   H4S 5222   5.269   5.853   7.206 -0.7411 -1.3974  1.7053
   39POPC   C25 5223   5.476   5.783   7.216  0.1654  0.2453 -0.5817
   39POPC   H5R 5224   5.523   5.879   7.186 -0.6084  1.8753  2.8754
   39POPC   H5S 5225   5.547   5.703   7.186 -1.4033 -1.0890 -0.8611
   39POPC   C26 5226   5.456   5.779   7.370  0.3924 -0.0988 -0.2948
   39POPC   H6R 5227   5.390   5.860   7.410 -0.2058 -0.6960 -0.0593
   39POPC   H6S 5228   5.550   5.789   7.428  0.9246 -1.9969 -0.7598
   39POPC   C27 5229   5.405   5.639   7.424  0.0370  0.2182  0.9517
   39POPC   H7R 5230   5.455   5.552   7.377 -1.0492  0.0755  0.0173
   39POPC   H7S 5231   5.302   5.627   7.384  0.7077 -0.2584 -0.6942
   39POPC   C28 5232   5.413   5.635   7.582 -1.0572  0.0619  0.1783
   39POPC   H8R 5233   5.349   5.549   7.611 -1.4715  0.4060  0.2847
   39POPC   H8S 5234   5.360   5.723   7.624 -1.7171 -0.1232 -0.2554
   39POPC   C29 5235   5.556   5.622   7.631  0.4863  0.7158 -0.0894
   39POPC   H91 5236   5.629   5.597   7.554  0.1189 -2.8506  0.5412
   39POPC  C210 5237   5.599   5.644   7.759 -0.1451 -0.0316  0.2232
   39POPC  H101 5238   5.705   5.629   7.786  0.0382  2.1887  0.9503
   39POPC  C211 5239   5.502   5.672   7.874  0.4163  0.0688 -0.0744
   39POPC  H11R 5240   5.429   5.589   7.882 -0.3354  0.3787 -2.6600
   39POPC  H11S 5241   5.436   5.761   7.864 -0.4578 -0.5315  0.1649
   39POPC  C212 5242   5.569   5.678   8.014 -0.5795  0.0715  0.2978
   39POPC  H12R 5243   5.635   5.768   8.010 -1.5070  0.7323 -2.0671
   39POPC  H12S 5244   5.633   5.589   8.031  0.7856  0.4402 -2.3089
   39POPC  C213 5245   5.473   5.686   8.130  0.2160 -0.6626  0.1543
   39POPC  H13R 5246   5.384   5.622   8.108 -0.8849  0.9340 -0.2363
   39POPC  H13S 5247   5.437   5.791   8.129 -3.2043 -1.6899  1.1159
   39POPC  C214 5248   5.542   5.643   8.251 -0.1615 -0.5828 -0.0921
   39POPC  H14R 5249   5.647   5.678   8.235 -0.0076 -1.4728 -1.2199
   39POPC  H14S 5250   5.546   5.532   8.263 -0.6981 -0.6775 -0.7395
   39POPC  C215 5251   5.493   5.720   8.372  0.7557 -0.0539 -0.5669
   39POPC  H15R 5252   5.485   5.826   8.338 -4.3365  1.2925  3.5501
   39POPC  H15S 5253   5.567   5.716   8.454  1.6647 -0.9443 -1.4024
   39POPC  C216 5254   5.355   5.670   8.419 -0.5021  0.2224 -0.6271
   39POPC  H16R 5255   5.357   5.561   8.441 -2.7439  0.6067  2.1092
   39POPC  H16S 5256   5.292   5.694   8.331  0.4672  1.2423 -1.0699
   39POPC  C217 5257   5.298   5.743   8.543  0.3141  0.2863  0.2289
   39POPC  H17R 5258   5.187   5.735   8.538  0.3280  0.0846  0.2109
   39POPC  H17S 5259   5.321   5.850   8.528 -0.5321  0.5108  0.4711
   39POPC  C218 5260   5.341   5.716   8.687 -0.3227  0.5138  0.3609
   39POPC  H18R 5261   5.293   5.791   8.754 -2.7146 -0.2237 -0.4164
   39POPC  H18S 5262   5.450   5.715   8.704  0.0338 -0.4720 -1.7261
   39POPC  H18T 5263   5.304   5.619   8.726  1.2456 -1.0386 -1.7867
   39POPC   C33 5264   5.432   5.167   7.407  1.0013 -0.7345  0.6387
   39POPC   H3X 5265   5.498   5.083   7.374  2.9656  0.0459  2.3377
   39POPC   H3Y 5266   5.326   5.135   7.399  1.3478 -2.7313  2.7653
   39POPC   C34 5267   5.456   5.184   7.556  0.1344 -0.3106 -0.2641
   39POPC   H4X 5268   5.545   5.242   7.588  0.6082 -1.0857 -0.1605
   39POPC   H4Y 5269   5.472   5.083   7.600  2.9766 -0.6916 -1.9350
   39POPC   C35 5270   5.337   5.255   7.618 -0.2903 -0.2966 -0.2335
   39POPC   H5X 5271   5.253   5.181   7.614  0.7308 -1.4500 -1.2789
   39POPC   H5Y 5272   5.307   5.345   7.561  0.6729  0.2240  0.0810
   39POPC   C36 5273   5.358   5.287   7.765  0.0464 -0.9322  0.5491
   39POPC   H6X 5274   5.269   5.349   7.790 -0.2568 -0.5527 -1.3334
   39POPC   H6Y 5275   5.449   5.350   7.755  0.4382 -1.7638 -1.6880
   39POPC   C37 5276   5.370   5.165   7.853 -0.7695 -0.4204 -0.4223
   39POPC   H7X 5277   5.455   5.113   7.805 -0.3810  0.4152 -0.6506
   39POPC   H7Y 5278   5.276   5.107   7.841  0.1719 -1.7108 -2.0011
   39POPC   C38 5279   5.398   5.201   7.996  0.5982 -0.1109 -0.6620
   39POPC   H8X 5280   5.456   5.296   7.999  0.4313 -0.0336  1.9126
   39POPC   H8Y 5281   5.450   5.121   8.053  1.7515  1.3726  0.4297
   39POPC   C39 5282   5.266   5.242   8.071  0.0505 -0.0319 -0.6042
   39POPC   H9X 5283   5.186   5.168   8.048 -1.2622  1.5345 -1.3512
   39POPC   H9Y 5284   5.227   5.336   8.026 -1.2571 -0.9121 -1.4164
   39POPC  C310 5285   5.295   5.266   8.220  0.6910  0.2012  0.2478
   39POPC  H10X 5286   5.355   5.360   8.216  1.7150 -0.4702 -0.6565
   39POPC  H10Y 5287   5.357   5.177   8.244  0.6651 -1.1340 -3.8326
   39POPC  C311 5288   5.168   5.286   8.307  0.5135 -0.4258 -0.0619
   39POPC  H11X 5289   5.087   5.214   8.281  0.2700  0.1020 -0.7938
   39POPC  H11Y 5290   5.130   5.388   8.286  1.1806 -0.2759 -0.5845
   39POPC  C312 5291   5.207   5.280   8.462  0.1623 -0.2657  0.1856
   39POPC  H12X 5292   5.263   5.374   8.477 -0.9390  0.4426 -0.0795
   39POPC  H12Y 5293   5.272   5.190   8.474 -0.2410 -0.7483 -1.0987
   39POPC  C313 5294   5.075   5.268   8.542 -0.3505  0.1743  0.5292
   39POPC  H13X 5295   5.013   5.187   8.497 -0.9143  1.6005 -1.4317
   39POPC  H13Y 5296   5.029   5.367   8.522 -0.0375  0.2240  0.0489
   39POPC  C314 5297   5.087   5.222   8.691  0.1921  0.1273  0.1454
   39POPC  H14X 5298   5.171   5.151   8.682 -1.5603 -1.7889 -2.3520
   39POPC  H14Y 5299   4.994   5.176   8.733  0.1238  1.5972  1.7275
   39POPC  C315 5300   5.135   5.323   8.798  0.0014  0.0666  0.7001
   39POPC  H15X 5301   5.246   5.318   8.800  0.0776 -0.6087 -1.7026
   39POPC  H15Y 5302   5.099   5.280   8.894  1.8335 -1.1017  0.9159
   39POPC  C316 5303   5.076   5.466   8.770  0.1230 -0.2569  0.0717
   39POPC  H16X 5304   4.965   5.460   8.764 -0.0237 -0.2057  1.9571
   39POPC  H16Y 5305   5.117   5.500   8.673  0.3856  0.9586  0.6010
   39POPC  H16Z 5306   5.089   5.535   8.856  2.1531 -1.1683  0.5577
   40POPC     N 5307   0.542   3.479   6.428 -0.2076  0.4483  0.1950
   40POPC   C12 5308   0.482   3.597   6.511 -0.2390  0.2910 -0.0584
   40POPC  H12A 5309   0.379   3.608   6.482 -0.7124 -1.9125  0.6249
   40POPC  H12B 5310   0.527   3.689   6.475 -0.5150  1.0314  1.4202
   40POPC   C13 5311   0.477   3.352   6.468 -0.8208  0.3472  0.1993
   40POPC  H13A 5312   0.377   3.353   6.428 -0.5041 -1.9171 -0.7946
   40POPC  H13B 5313   0.533   3.266   6.434  1.0515  1.4079  0.4707
   40POPC  H13C 5314   0.461   3.345   6.574 -1.9753 -0.2569 -0.0019
   40POPC   C14 5315   0.499   3.502   6.283 -0.1538  0.0212  0.7918
   40POPC  H14A 5316   0.513   3.411   6.226 -0.0359  0.2854  0.3979
   40POPC  H14B 5317   0.396   3.534   6.277  0.2696  1.1832 -1.6136
   40POPC  H14C 5318   0.563   3.581   6.247  0.7748 -0.1788  1.9381
   40POPC   C15 5319   0.686   3.464   6.426 -0.5397 -0.6732 -0.5688
   40POPC  H15A 5320   0.733   3.372   6.396  0.1093 -0.8327  0.8267
   40POPC  H15B 5321   0.725   3.462   6.527 -0.5239 -0.8822 -0.5793
   40POPC  H15C 5322   0.730   3.547   6.373  1.9986 -1.4317  0.2048
   40POPC   C11 5323   0.491   3.589   6.659 -0.0021  0.4913  0.3174
   40POPC  H11A 5324   0.449   3.490   6.685  1.7694 -0.7061 -1.1428
   40POPC  H11B 5325   0.421   3.651   6.719  0.4631  0.7872  0.5644
   40POPC     P 5326   0.683   3.746   6.722  0.1397  0.0962 -0.4799
   40POPC   O13 5327   0.672   3.812   6.589 -0.7841 -0.0964  0.4184
   40POPC   O14 5328   0.810   3.743   6.790 -0.5465  0.3743 -0.1144
   40POPC   O12 5329   0.624   3.598   6.701 -0.1095  1.4210  0.6702
   40POPC   O11 5330   0.585   3.816   6.817 -0.5577 -0.5033 -0.0056
   40POPC    C1 5331   0.581   3.785   6.956  0.2474 -0.7014  0.3439
   40POPC    HA 5332   0.595   3.679   6.985  0.2745 -1.0061 -0.7328
   40POPC    HB 5333   0.477   3.810   6.987 -0.3180 -1.5869 -0.7749
   40POPC    C2 5334   0.682   3.877   7.028 -0.0104  0.6510  0.0529
   40POPC    HS 5335   0.783   3.858   6.986  0.3139 -0.8381  1.3826
   40POPC   O21 5336   0.676   3.846   7.171  0.5061  0.5835 -0.3397
   40POPC   C21 5337   0.780   3.897   7.240 -0.0420  0.0862  0.9069
   40POPC   O22 5338   0.870   3.963   7.192  0.2312 -0.4147  0.3956
   40POPC   C22 5339   0.761   3.870   7.385  1.0931  0.1682  0.9047
   40POPC   H2R 5340   0.715   3.772   7.408  0.3760  0.1163 -0.6430
   40POPC   H2S 5341   0.705   3.952   7.435 -0.7443 -1.3729  1.4887
   40POPC    C3 5342   0.643   4.027   7.009  0.4818  0.3475 -0.4049
   40POPC    HX 5343   0.650   4.042   6.899 -1.0662  1.9873 -0.3316
   40POPC    HY 5344   0.725   4.090   7.050  0.0164  0.5942  0.1650
   40POPC   O31 5345   0.508   4.060   7.043  0.1214 -0.3393 -0.1825
   40POPC   C31 5346   0.492   4.119   7.164  0.8064 -0.6176  0.8879
   40POPC   O32 5347   0.581   4.138   7.244  0.1579 -0.4428 -0.0168
   40POPC   C32 5348   0.350   4.162   7.184  0.1982  0.0245 -0.6693
   40POPC   H2X 5349   0.287   4.070   7.192  0.9074 -0.3189  2.2546
   40POPC   H2Y 5350   0.320   4.226   7.099 -1.3676  2.1423  1.3430
   40POPC   C23 5351   0.905   3.849   7.444  0.8515 -0.6074 -0.5618
   40POPC   H3R 5352   0.961   3.945   7.452  0.5377 -0.5140  0.8655
   40POPC   H3S 5353   0.967   3.768   7.398  2.2151  0.7981 -1.3081
   40POPC   C24 5354   0.891   3.820   7.597 -0.3143 -0.1714  0.3469
   40POPC   H4R 5355   0.834   3.724   7.595  1.5236 -1.3165  0.0823
   40POPC   H4S 5356   0.831   3.898   7.649  0.0330  0.7202 -0.5726
   40POPC   C25 5357   1.022   3.807   7.669 -0.2113 -0.3230  0.1398
   40POPC   H5R 5358   1.071   3.901   7.636 -1.6685 -0.5322 -2.8868
   40POPC   H5S 5359   1.093   3.734   7.625  0.4510  1.5938 -2.1576
   40POPC   C26 5360   1.014   3.787   7.821 -0.7880 -0.9458 -0.3255
   40POPC   H6R 5361   1.120   3.773   7.851 -0.2716  0.6667 -1.2416
   40POPC   H6S 5362   0.970   3.688   7.844  0.0810 -1.3600 -0.4095
   40POPC   C27 5363   0.947   3.896   7.909  0.5434  0.6951 -0.1468
   40POPC   H7R 5364   0.849   3.925   7.864  0.8359  0.9050 -0.6672
   40POPC   H7S 5365   1.010   3.986   7.890  0.2350  0.7267 -1.0990
   40POPC   C28 5366   0.946   3.854   8.059 -0.9118 -0.2112 -0.3289
   40POPC   H8R 5367   0.940   3.948   8.118 -0.1675  0.0376 -0.6348
   40POPC   H8S 5368   1.051   3.821   8.074 -0.6621  0.0892 -1.2933
   40POPC   C29 5369   0.839   3.757   8.089 -0.0030 -0.3201 -0.1428
   40POPC   H91 5370   0.764   3.734   8.011  0.7648 -0.4305 -0.8687
   40POPC  C210 5371   0.824   3.716   8.215  0.1689 -0.7981 -0.4588
   40POPC  H101 5372   0.742   3.651   8.249  0.0465  0.6478  2.3315
   40POPC  C211 5373   0.914   3.754   8.332  0.2869 -0.2664  0.3462
   40POPC  H11R 5374   0.859   3.804   8.415  1.5372  1.7448  0.0313
   40POPC  H11S 5375   1.001   3.820   8.311  0.0855 -0.3560 -0.8416
   40POPC  C212 5376   0.983   3.627   8.390 -0.3887  0.0318 -0.1952
   40POPC  H12R 5377   1.044   3.589   8.305  0.8150  0.9049  0.2598
   40POPC  H12S 5378   0.906   3.551   8.418 -1.3459  0.8938 -0.4209
   40POPC  C213 5379   1.091   3.653   8.505  0.4013  0.5161  0.3750
   40POPC  H13R 5380   1.167   3.715   8.453 -1.1011  1.5064 -0.7158
   40POPC  H13S 5381   1.132   3.553   8.531 -3.5870 -2.0933 -2.2711
   40POPC  C214 5382   1.026   3.724   8.623 -0.5143 -0.0719 -0.0173
   40POPC  H14R 5383   0.948   3.653   8.657  0.7356 -0.8905  1.2252
   40POPC  H14S 5384   0.983   3.822   8.590  2.1880  0.3676 -2.6864
   40POPC  C215 5385   1.119   3.752   8.739  0.4280 -0.7460  0.7204
   40POPC  H15R 5386   1.203   3.813   8.699 -0.9478 -0.2088 -1.5104
   40POPC  H15S 5387   1.159   3.654   8.771  1.9882  0.1801  1.7191
   40POPC  C216 5388   1.043   3.821   8.853  0.5746 -0.2636  0.7374
   40POPC  H16R 5389   0.959   3.755   8.884 -0.0173  0.2805  0.3174
   40POPC  H16S 5390   0.976   3.903   8.819 -0.7047 -0.6382  2.2618
   40POPC  C217 5391   1.126   3.849   8.983 -0.4500  0.3075 -0.0069
   40POPC  H17R 5392   1.184   3.944   8.976  2.0141 -1.0886  0.4300
   40POPC  H17S 5393   1.192   3.762   9.003  1.6658  2.1665  1.7044
   40POPC  C218 5394   1.034   3.866   9.108  0.8778  0.0230  0.4533
   40POPC  H18R 5395   0.998   3.769   9.148  0.7471 -0.9404 -1.8058
   40POPC  H18S 5396   0.948   3.933   9.088 -0.7108 -0.6211  4.2775
   40POPC  H18T 5397   1.095   3.909   9.190  0.9648  0.1734  0.3110
   40POPC   C33 5398   0.324   4.250   7.307 -0.6034 -0.2616  0.3041
   40POPC   H3X 5399   0.220   4.288   7.298 -0.3863  0.2876  0.0561
   40POPC   H3Y 5400   0.396   4.334   7.293  0.2930 -1.2776 -1.5513
   40POPC   C34 5401   0.333   4.185   7.441 -0.2485 -0.1566  0.2719
   40POPC   H4X 5402   0.431   4.143   7.471  0.3721 -0.6978 -2.3049
   40POPC   H4Y 5403   0.254   4.107   7.443 -0.9661  0.5156 -0.8640
   40POPC   C35 5404   0.303   4.276   7.564  0.2993 -0.5159 -0.4509
   40POPC   H5X 5405   0.205   4.326   7.555  0.5453  0.6006  2.1871
   40POPC   H5Y 5406   0.376   4.360   7.565 -1.3099  0.9541  1.3611
   40POPC   C36 5407   0.317   4.193   7.692 -0.1226  0.2360 -0.3499
   40POPC   H6X 5408   0.425   4.172   7.708  0.1240  0.8767 -1.1264
   40POPC   H6Y 5409   0.254   4.104   7.675 -0.9941  0.8549 -0.4199
   40POPC   C37 5410   0.267   4.259   7.826 -0.9027  0.0867 -0.3380
   40POPC   H7X 5411   0.156   4.271   7.821 -0.8768  0.9688  0.7513
   40POPC   H7Y 5412   0.323   4.351   7.855 -1.0847 -0.8663  3.6629
   40POPC   C38 5413   0.301   4.170   7.952 -0.3925  0.1627  0.5515
   40POPC   H8X 5414   0.410   4.153   7.963 -0.6963 -1.5898  1.1508
   40POPC   H8Y 5415   0.270   4.069   7.918  0.5773  0.4373 -1.2602
   40POPC   C39 5416   0.235   4.219   8.085 -0.2829 -0.2444  1.4397
   40POPC   H9X 5417   0.128   4.244   8.069  0.1678  0.4830 -0.8933
   40POPC   H9Y 5418   0.286   4.314   8.109  0.0787 -0.5582  1.9125
   40POPC  C310 5419   0.262   4.120   8.199 -0.8319  0.2910 -0.5578
   40POPC  H10X 5420   0.370   4.093   8.200 -0.8187  0.3264  0.6289
   40POPC  H10Y 5421   0.200   4.029   8.186  1.7306 -1.6846  0.3140
   40POPC  C311 5422   0.241   4.174   8.340  0.1723  0.0245 -0.0669
   40POPC  H11X 5423   0.133   4.194   8.360 -0.6888 -0.1147 -3.7731
   40POPC  H11Y 5424   0.294   4.272   8.338 -2.0480  1.2879 -0.9460
   40POPC  C312 5425   0.288   4.085   8.459 -0.4789 -0.1782 -0.3520
   40POPC  H12X 5426   0.385   4.040   8.429 -1.0933 -1.0618 -1.0623
   40POPC  H12Y 5427   0.221   3.997   8.446 -0.4860  0.1421 -3.0268
   40POPC  C313 5428   0.281   4.165   8.585 -0.1618 -0.2592  0.4079
   40POPC  H13X 5429   0.182   4.206   8.612 -0.0478  0.3994 -0.1589
   40POPC  H13Y 5430   0.348   4.253   8.581 -0.5484  0.0445  0.5752
   40POPC  C314 5431   0.310   4.084   8.717 -0.5995  0.0149  1.1628
   40POPC  H14X 5432   0.409   4.038   8.697 -0.3699  1.2237 -0.6802
   40POPC  H14Y 5433   0.239   4.000   8.719 -2.4612  1.3938 -1.2948
   40POPC  C315 5434   0.307   4.147   8.853  0.0226  0.1058  0.3480
   40POPC  H15X 5435   0.204   4.188   8.865  0.1414  1.0960 -1.5811
   40POPC  H15Y 5436   0.370   4.239   8.848  0.5553 -0.2820 -0.1978
   40POPC  C316 5437   0.332   4.047   8.966 -0.0645  0.5489  0.1918
   40POPC  H16X 5438   0.418   3.978   8.949 -1.4361 -1.1328 -0.1080
   40POPC  H16Y 5439   0.245   3.979   8.971 -0.8691  1.4962 -0.5066
   40POPC  H16Z 5440   0.346   4.086   9.069 -0.7255 -1.2057  0.9899
   41CHL1    C3 5441   5.581   5.533  10.390  0.1209  0.3525 -0.3312
   41CHL1    H3 5442   5.690   5.519  10.376  0.3162  0.6977  0.7840
   41CHL1    O3 5443   5.546   5.530  10.530  0.5322 -0.2106  0.0140
   41CHL1   H3' 5444   5.451   5.545  10.523  0.4125 -0.6558  0.6401
   41CHL1    C4 5445   5.575   5.677  10.352  0.0837 -0.4713 -0.3422
   41CHL1   H4A 5446   5.477   5.721  10.377  0.1854 -0.1368 -0.5299
   41CHL1   H4B 5447   5.651   5.732  10.413 -0.8643 -1.0615  1.4435
   41CHL1    C5 5448   5.611   5.697  10.202 -0.2700  0.3485  0.1010
   41CHL1    C6 5449   5.704   5.785  10.152 -0.0979 -0.2130  1.0191
   41CHL1    H6 5450   5.771   5.841  10.219 -0.0927  2.4523 -1.0537
   41CHL1    C7 5451   5.734   5.813  10.013 -0.1085  0.1892  0.8302
   41CHL1   H7A 5452   5.729   5.924  10.004  1.7799  0.3312  1.1706
   41CHL1   H7B 5453   5.836   5.777   9.990 -0.2074  0.3728  0.1011
   41CHL1    C8 5454   5.630   5.755   9.911 -0.0665 -0.1053  0.0872
   41CHL1    H8 5455   5.535   5.812   9.914  0.9447  1.6885 -0.6589
   41CHL1   C14 5456   5.698   5.744   9.776 -0.1788 -0.2700  0.3363
   41CHL1   H14 5457   5.785   5.675   9.781 -1.1962 -1.5852  0.4196
   41CHL1   C15 5458   5.745   5.877   9.720 -0.5074 -0.7798  0.3275
   41CHL1  H15A 5459   5.681   5.965   9.741  2.6423  1.4382  1.3200
   41CHL1  H15B 5460   5.843   5.911   9.759 -0.3500 -0.0497 -0.6711
   41CHL1   C16 5461   5.761   5.858   9.568  0.3798  0.2374  0.8122
   41CHL1  H16A 5462   5.698   5.928   9.510  0.8274  0.8503  1.0537
   41CHL1  H16B 5463   5.867   5.870   9.535 -0.6204  0.2814 -2.7916
   41CHL1   C17 5464   5.705   5.714   9.542 -0.0464 -0.3053  0.2347
   41CHL1   H17 5465   5.799   5.655   9.550  1.3910  2.0458  1.9303
   41CHL1   C13 5466   5.615   5.685   9.668 -0.4981 -0.2662 -0.0103
   41CHL1   C18 5467   5.476   5.753   9.649 -0.3987 -0.0368 -0.4550
   41CHL1  H18A 5468   5.499   5.860   9.625  1.0408  0.4190  2.4863
   41CHL1  H18B 5469   5.411   5.708   9.571  0.7132 -1.1853 -0.7472
   41CHL1  H18C 5470   5.417   5.770   9.742  1.3195  0.4866  0.5963
   41CHL1   C12 5471   5.588   5.532   9.706 -0.7792  1.0515 -0.4518
   41CHL1  H12A 5472   5.519   5.493   9.628  0.5994  2.1038 -2.2771
   41CHL1  H12B 5473   5.680   5.471   9.717 -1.2060  0.7350  1.7802
   41CHL1   C11 5474   5.530   5.526   9.851 -0.4543  0.3449 -0.0482
   41CHL1  H11A 5475   5.424   5.559   9.847 -0.7417 -0.5869 -0.5219
   41CHL1  H11B 5476   5.520   5.416   9.870  0.6811  0.2233 -0.1238
   41CHL1    C9 5477   5.599   5.609   9.961 -0.3248 -0.5750  0.1727
   41CHL1    H9 5478   5.696   5.557   9.967  1.0589  1.8091 -0.3114
   41CHL1   C10 5479   5.535   5.604  10.103  0.5987  0.2096 -0.0752
   41CHL1   C19 5480   5.390   5.658  10.094  0.2996 -0.1733  0.0743
   41CHL1  H19A 5481   5.395   5.766  10.073  2.5076 -0.8273 -3.6971
   41CHL1  H19B 5482   5.328   5.602  10.020 -0.1955  0.5937 -0.0939
   41CHL1  H19C 5483   5.337   5.647  10.191  3.8586  1.2218  2.3541
   41CHL1    C1 5484   5.537   5.455  10.157  0.2575  0.2117 -0.0378
   41CHL1   H1A 5485   5.475   5.390  10.091 -1.3949  0.0491  1.5977
   41CHL1   H1B 5486   5.640   5.413  10.151 -0.3383 -1.8158  2.2038
   41CHL1    C2 5487   5.495   5.439  10.302 -0.0808  0.0765  0.0801
   41CHL1   H2A 5488   5.511   5.333  10.331  0.3465  0.0230 -0.3354
   41CHL1   H2B 5489   5.387   5.458  10.318 -0.2391 -2.2030  2.2801
   41CHL1   C20 5490   5.656   5.701   9.392 -0.6593 -0.4428  0.0646
   41CHL1   H20 5491   5.566   5.764   9.375 -2.1588 -2.6308 -0.5986
   41CHL1   C21 5492   5.620   5.553   9.372  0.0836 -0.3311 -0.2806
   41CHL1  H21A 5493   5.526   5.538   9.429  0.6413  1.1804  1.1057
   41CHL1  H21B 5494   5.693   5.486   9.423 -2.7754 -1.9337  2.0187
   41CHL1  H21C 5495   5.609   5.522   9.266  1.8689 -0.4742 -0.4590
   41CHL1   C22 5496   5.765   5.740   9.300 -0.0154  0.4055 -0.6866
   41CHL1  H22A 5497   5.797   5.845   9.319 -0.8672  0.7065 -0.8665
   41CHL1  H22B 5498   5.856   5.682   9.322 -0.5233  0.0186  0.4645
   41CHL1   C23 5499   5.740   5.725   9.145 -0.2268 -0.1541 -0.3107
   41CHL1  H23A 5500   5.705   5.623   9.118  2.3954 -1.2904  0.2610
   41CHL1  H23B 5501   5.663   5.802   9.124  0.2868 -0.0257 -1.8602
   41CHL1   C24 5502   5.858   5.780   9.066  0.4333 -0.0969 -0.5785
   41CHL1  H24A 5503   5.896   5.874   9.110  1.4797 -0.6915 -0.1721
   41CHL1  H24B 5504   5.938   5.706   9.086 -1.4786 -2.0739  0.2640
   41CHL1   C25 5505   5.837   5.783   8.920  0.4609 -0.1406  1.0013
   41CHL1   H25 5506   5.814   5.681   8.883  1.0803 -0.3211  1.1105
   41CHL1   C26 5507   5.729   5.883   8.873  0.1328 -0.1642 -0.9213
   41CHL1  H26A 5508   5.691   5.875   8.769 -0.3669  0.2317 -0.7724
   41CHL1  H26B 5509   5.638   5.870   8.934 -1.1201  1.6654 -2.2919
   41CHL1  H26C 5510   5.749   5.989   8.900 -0.0552 -0.6474  1.2871
   41CHL1   C27 5511   5.972   5.824   8.866 -0.1130  0.2801  0.8518
   41CHL1  H27A 5512   5.974   5.812   8.756  0.6434 -0.0435  0.8975
   41CHL1  H27B 5513   5.987   5.932   8.885 -0.3415  0.4526  0.0919
   41CHL1  H27C 5514   6.048   5.757   8.912 -0.0990 -0.2747  0.0494
   42CHL1    C3 5515   1.130   6.020  10.151  1.0355 -0.0598 -0.0731
   42CHL1    H3 5516   1.077   5.930  10.113  0.9733 -0.0945  0.0955
   42CHL1    O3 5517   1.168   6.008  10.289 -0.1942 -0.1460 -0.2710
   42CHL1   H3' 5518   1.241   6.069  10.300 -1.0896  0.9139 -0.0371
   42CHL1    C4 5519   1.250   6.035  10.065 -0.6078 -0.6850  0.5614
   42CHL1   H4A 5520   1.321   6.114  10.095 -0.0539 -1.0666  0.2673
   42CHL1   H4B 5521   1.306   5.940  10.082 -2.1379 -1.6349  0.5405
   42CHL1    C5 5522   1.226   6.042   9.918 -0.1346  0.0729 -0.3309
   42CHL1    C6 5523   1.274   5.948   9.838  0.1152 -0.0039 -0.2395
   42CHL1    H6 5524   1.338   5.868   9.878 -1.5667 -1.6620 -0.7224
   42CHL1    C7 5525   1.252   5.957   9.691  0.3528 -0.2187 -0.6842
   42CHL1   H7A 5526   1.348   5.939   9.638  1.8021  3.2440  0.5067
   42CHL1   H7B 5527   1.171   5.882   9.678 -1.6027  1.8248 -1.0163
   42CHL1    C8 5528   1.201   6.094   9.639  0.3857  0.2863 -0.3140
   42CHL1    H8 5529   1.289   6.160   9.655  0.3560  0.2140  0.1568
   42CHL1   C14 5530   1.158   6.084   9.500  0.6927 -0.6360 -1.1480
   42CHL1   H14 5531   1.068   6.020   9.499 -1.0260  1.6791 -1.5410
   42CHL1   C15 5532   1.252   6.021   9.393 -0.5347 -0.1542 -1.0825
   42CHL1  H15A 5533   1.358   6.052   9.409 -0.1798 -1.5055 -0.6845
   42CHL1  H15B 5534   1.251   5.911   9.409  2.6334  0.0145  1.3593
   42CHL1   C16 5535   1.210   6.073   9.258  0.4575  0.3156  0.3799
   42CHL1  H16A 5536   1.297   6.122   9.211  0.8631 -1.1062 -0.4207
   42CHL1  H16B 5537   1.196   5.985   9.192 -0.1342  0.3284  0.4793
   42CHL1   C17 5538   1.089   6.169   9.286  0.4422  0.1243  0.6168
   42CHL1   H17 5539   0.991   6.116   9.289  1.0588 -1.0729  0.6211
   42CHL1   C13 5540   1.115   6.210   9.435 -0.0973 -0.3101 -0.9043
   42CHL1   C18 5541   1.228   6.319   9.444  0.2488  0.0712  0.0683
   42CHL1  H18A 5542   1.317   6.286   9.387 -1.1016 -0.7146 -1.6672
   42CHL1  H18B 5543   1.194   6.413   9.396 -0.5257 -1.2170 -2.0472
   42CHL1  H18C 5544   1.260   6.338   9.549 -1.3738  2.9128  0.1591
   42CHL1   C12 5545   0.990   6.260   9.519  0.5807 -0.2684  0.1071
   42CHL1  H12A 5546   0.960   6.362   9.485  0.9948 -0.1878 -0.0213
   42CHL1  H12B 5547   0.899   6.198   9.506  1.3894 -1.4635  0.0732
   42CHL1   C11 5548   1.018   6.268   9.670  0.7277  0.4753  0.1557
   42CHL1  H11A 5549   1.087   6.356   9.674  0.1473  0.8873  2.1017
   42CHL1  H11B 5550   0.930   6.305   9.727  1.2666 -0.5906  1.7377
   42CHL1    C9 5551   1.082   6.143   9.726  1.0615 -0.0690 -0.8254
   42CHL1    H9 5552   1.004   6.064   9.715  1.0134  0.0214 -1.1408
   42CHL1   C10 5553   1.125   6.158   9.882  0.6483  0.6162 -0.0129
   42CHL1   C19 5554   1.212   6.290   9.905  0.2249  0.4395 -0.2411
   42CHL1  H19A 5555   1.301   6.289   9.839 -0.0082  1.3668 -0.5867
   42CHL1  H19B 5556   1.146   6.376   9.879  1.2932  1.1376 -0.6796
   42CHL1  H19C 5557   1.250   6.297  10.010 -1.4164  2.6731  0.2906
   42CHL1    C1 5558   1.003   6.153   9.977  0.1036  0.4430 -0.2998
   42CHL1   H1A 5559   0.923   6.230   9.969 -1.0223 -0.5048  1.2312
   42CHL1   H1B 5560   0.961   6.053   9.951  1.4968  0.0838 -1.3191
   42CHL1    C2 5561   1.031   6.133  10.128  0.2635 -0.0981 -0.2851
   42CHL1   H2A 5562   0.939   6.110  10.187 -0.3184  1.7442 -0.4218
   42CHL1   H2B 5563   1.087   6.217  10.173 -0.3698  0.5307 -0.6601
   42CHL1   C20 5564   1.074   6.280   9.182 -0.9984  0.5441 -0.2761
   42CHL1   H20 5565   1.166   6.342   9.193 -1.7608  1.6975 -0.2431
   42CHL1   C21 5566   0.948   6.368   9.213 -0.2228  0.2230  0.3817
   42CHL1  H21A 5567   0.856   6.313   9.241  0.8019 -0.3073  3.0355
   42CHL1  H21B 5568   0.928   6.437   9.129 -0.9272 -0.5614 -0.1019
   42CHL1  H21C 5569   0.966   6.430   9.304 -1.1279 -0.5000  1.0712
   42CHL1   C22 5570   1.073   6.217   9.038  0.9434  0.2021  0.2394
   42CHL1  H22A 5571   1.172   6.169   9.023  1.2006  0.4427  1.0862
   42CHL1  H22B 5572   0.987   6.147   9.029 -0.5877  2.0050  0.0722
   42CHL1   C23 5573   1.053   6.322   8.918  0.0333  0.0314  0.5380
   42CHL1  H23A 5574   0.943   6.317   8.907  0.2002 -1.2272 -0.8780
   42CHL1  H23B 5575   1.088   6.420   8.957  1.2395  0.1115 -0.6731
   42CHL1   C24 5576   1.105   6.277   8.784  0.0670 -0.0539 -0.0442
   42CHL1  H24A 5577   1.212   6.308   8.786 -0.8087  3.2729  0.2412
   42CHL1  H24B 5578   1.099   6.166   8.792 -0.8192  0.0235  0.4199
   42CHL1   C25 5579   1.040   6.342   8.664  0.1862  0.3748  0.1182
   42CHL1   H25 5580   1.000   6.443   8.687  0.0338  0.2746  0.2939
   42CHL1   C26 5581   1.136   6.367   8.548  0.8130  0.2737  0.2132
   42CHL1  H26A 5582   1.168   6.270   8.504 -0.5699 -0.8107  1.5052
   42CHL1  H26B 5583   1.088   6.437   8.477  0.9265  2.5386  2.2168
   42CHL1  H26C 5584   1.226   6.423   8.582  2.6503 -2.5752  0.4009
   42CHL1   C27 5585   0.917   6.256   8.614 -0.8060  0.1448  0.5467
   42CHL1  H27A 5586   0.836   6.261   8.690  0.6836 -2.2941  2.4023
   42CHL1  H27B 5587   0.883   6.289   8.513  2.1650 -1.8020 -1.2340
   42CHL1  H27C 5588   0.954   6.152   8.619  0.4586  0.5114 -0.6624
   43CHL1    C3 5589   1.011   0.684  10.254 -0.5537  0.3105  0.1381
   43CHL1    H3 5590   1.115   0.647  10.247 -0.6718  0.3011 -2.5866
   43CHL1    O3 5591   0.971   0.659  10.386  0.6096  0.3540  0.1719
   43CHL1   H3' 5592   0.881   0.690  10.395  0.6615  0.2046  1.3950
   43CHL1    C4 5593   0.999   0.834  10.225  0.1116 -0.1978  0.3986
   43CHL1   H4A 5594   0.899   0.878  10.243  0.2412  0.7132 -0.9040
   43CHL1   H4B 5595   1.056   0.892  10.301  0.8369  1.2597 -1.1903
   43CHL1    C5 5596   1.032   0.881  10.084  0.1152  0.2693 -0.2745
   43CHL1    C6 5597   1.124   0.974  10.043 -0.4363 -1.1942 -0.5865
   43CHL1    H6 5598   1.166   1.023  10.132 -0.2110 -1.2351 -0.6701
   43CHL1    C7 5599   1.136   1.028   9.901  0.2331 -0.0253 -0.2579
   43CHL1   H7A 5600   1.151   1.138   9.898  1.0882 -0.0414  2.1144
   43CHL1   H7B 5601   1.232   0.988   9.862  0.1275 -0.9453  0.4192
   43CHL1    C8 5602   1.030   0.970   9.799  0.5530 -0.0616  0.0554
   43CHL1    H8 5603   0.940   1.035   9.801 -0.2788 -1.1279 -1.3579
   43CHL1   C14 5604   1.092   0.966   9.661 -0.1420 -0.4509 -0.3554
   43CHL1   H14 5605   1.172   0.889   9.665  1.7249  1.3368 -1.4439
   43CHL1   C15 5606   1.165   1.091   9.604 -0.0818  0.7788 -0.9163
   43CHL1  H15A 5607   1.105   1.172   9.652 -0.4378  0.0182 -0.0570
   43CHL1  H15B 5608   1.267   1.100   9.646 -1.1111  0.4207  1.9642
   43CHL1   C16 5609   1.149   1.087   9.457 -0.1075  0.0020  0.4293
   43CHL1  H16A 5610   1.101   1.180   9.422 -4.3837 -2.4755 -1.0878
   43CHL1  H16B 5611   1.249   1.080   9.409 -0.0664 -0.4253  0.5704
   43CHL1   C17 5612   1.061   0.965   9.421  0.2083  0.3971 -0.8780
   43CHL1   H17 5613   1.128   0.880   9.398 -0.5328 -0.7606  0.9858
   43CHL1   C13 5614   0.993   0.924   9.560  0.4309 -0.0771  0.3240
   43CHL1   C18 5615   0.858   0.996   9.564  0.4165 -0.5184  0.6482
   43CHL1  H18A 5616   0.792   0.944   9.491  1.6854  0.8559 -1.5651
   43CHL1  H18B 5617   0.796   0.995   9.657  0.1874  0.1080  0.5101
   43CHL1  H18C 5618   0.873   1.103   9.541 -1.2394 -0.3054  0.4531
   43CHL1   C12 5619   0.970   0.779   9.585 -0.5360 -0.4925  0.4481
   43CHL1  H12A 5620   0.902   0.739   9.506  1.6657 -2.5810 -0.5029
   43CHL1  H12B 5621   1.065   0.723   9.573 -0.6152 -0.7606  1.0422
   43CHL1   C11 5622   0.913   0.747   9.727 -0.2089 -0.3245  1.1842
   43CHL1  H11A 5623   0.808   0.782   9.731 -0.3873 -0.3746 -1.2860
   43CHL1  H11B 5624   0.905   0.637   9.737 -2.6425 -0.5497 -1.7437
   43CHL1    C9 5625   0.993   0.821   9.835  0.1566  0.3027 -0.3261
   43CHL1    H9 5626   1.085   0.760   9.838 -0.4653 -0.7800 -1.9195
   43CHL1   C10 5627   0.941   0.808   9.984 -0.0676 -0.1020  0.2279
   43CHL1   C19 5628   0.796   0.855   9.988  0.1486 -0.0633 -0.2493
   43CHL1  H19A 5629   0.740   0.783   9.924 -1.8170  2.0595 -1.0493
   43CHL1  H19B 5630   0.753   0.860  10.090  0.0560  0.8441 -0.3253
   43CHL1  H19C 5631   0.789   0.952   9.933  1.8029 -0.5571 -1.4231
   43CHL1    C1 5632   0.944   0.656  10.013 -0.5728  0.2799 -0.0656
   43CHL1   H1A 5633   0.864   0.609   9.952 -0.5598  0.5387 -0.2831
   43CHL1   H1B 5634   1.035   0.597   9.989 -1.3036 -0.3538 -1.3208
   43CHL1    C2 5635   0.912   0.613  10.161  0.8832 -0.3191 -0.7812
   43CHL1   H2A 5636   0.915   0.503  10.178 -0.2751 -0.2255  0.0877
   43CHL1   H2B 5637   0.810   0.643  10.191  0.8003 -1.8839  0.6399
   43CHL1   C20 5638   0.986   0.993   9.283  0.5169  0.4966 -0.2335
   43CHL1   H20 5639   0.906   1.070   9.286  0.6950  0.7927 -2.1258
   43CHL1   C21 5640   0.910   0.860   9.239  0.9824 -1.1259  0.4016
   43CHL1  H21A 5641   0.837   0.833   9.318 -1.5013  1.4559 -0.8253
   43CHL1  H21B 5642   0.981   0.781   9.207 -1.4935 -2.7513 -1.5172
   43CHL1  H21C 5643   0.848   0.888   9.151  0.0304 -0.4284  1.2639
   43CHL1   C22 5644   1.088   1.036   9.166  0.0886  0.1079  0.2142
   43CHL1  H22A 5645   1.137   1.130   9.200  0.3974 -0.2020  0.6386
   43CHL1  H22B 5646   1.173   0.964   9.161  0.5713  0.7123 -0.5098
   43CHL1   C23 5647   1.021   1.066   9.030 -1.0267 -0.4242 -0.9218
   43CHL1  H23A 5648   0.994   0.969   8.982  0.0134 -1.9171  1.3339
   43CHL1  H23B 5649   0.930   1.125   9.050 -0.6180 -0.3076  0.7119
   43CHL1   C24 5650   1.106   1.156   8.943  1.2847  0.1921  0.1557
   43CHL1  H24A 5651   1.036   1.180   8.860 -1.0620 -1.5994  1.5041
   43CHL1  H24B 5652   1.127   1.249   9.000  0.6548  0.3807  0.0826
   43CHL1   C25 5653   1.229   1.092   8.878  0.0066 -0.0447  0.1391
   43CHL1   H25 5654   1.266   1.026   8.959 -1.6322 -0.9558  0.1941
   43CHL1   C26 5655   1.185   0.992   8.772  0.1417  0.2566  0.1965
   43CHL1  H26A 5656   1.118   0.919   8.822 -0.8033  0.3335 -0.9079
   43CHL1  H26B 5657   1.131   1.043   8.689 -0.1757 -2.4231 -1.3606
   43CHL1  H26C 5658   1.271   0.942   8.722  0.0247 -0.2675  0.5238
   43CHL1   C27 5659   1.336   1.193   8.830  0.3307 -0.0520  0.3999
   43CHL1  H27A 5660   1.383   1.245   8.916  0.6579 -3.2918  2.3494
   43CHL1  H27B 5661   1.415   1.143   8.770  1.8719  1.0464  1.4582
   43CHL1  H27C 5662   1.298   1.275   8.766  1.4384  0.1190 -0.0508
   44CHL1    C3 5663   1.316   2.369  10.635 -0.0670 -0.0507  0.7838
   44CHL1    H3 5664   1.422   2.398  10.621  0.5784 -2.6423 -0.3544
   44CHL1    O3 5665   1.282   2.398  10.765  0.0550  0.0990 -0.3003
   44CHL1   H3' 5666   1.206   2.344  10.788  0.1066  0.3578  0.4867
   44CHL1    C4 5667   1.220   2.438  10.547  0.0094  0.2536 -0.1590
   44CHL1   H4A 5668   1.115   2.430  10.582  0.8476 -0.3961  2.4053
   44CHL1   H4B 5669   1.227   2.548  10.559  1.7012  0.2609 -1.0334
   44CHL1    C5 5670   1.227   2.410  10.397  0.7767  0.3216  0.0296
   44CHL1    C6 5671   1.234   2.513  10.305 -0.4994  0.2668 -0.0990
   44CHL1    H6 5672   1.235   2.617  10.341 -2.7263 -0.2835  1.8803
   44CHL1    C7 5673   1.235   2.496  10.157 -0.0437 -0.2350 -0.4185
   44CHL1   H7A 5674   1.168   2.571  10.109  0.8336  1.0861  0.3560
   44CHL1   H7B 5675   1.343   2.516  10.139  0.2734  2.2407  3.1039
   44CHL1    C8 5676   1.193   2.357  10.115 -0.1431  0.4255 -0.3841
   44CHL1    H8 5677   1.083   2.348  10.126 -0.1010  2.1095  2.2966
   44CHL1   C14 5678   1.234   2.329   9.975  0.3854 -0.7289  0.3404
   44CHL1   H14 5679   1.345   2.320   9.976  0.4452 -0.3426 -0.8919
   44CHL1   C15 5680   1.211   2.449   9.876 -0.0005 -0.3081  0.0438
   44CHL1  H15A 5681   1.119   2.508   9.899 -0.1883  0.3789 -2.2062
   44CHL1  H15B 5682   1.287   2.529   9.869 -0.2155 -0.0421  0.6635
   44CHL1   C16 5683   1.189   2.380   9.739  0.5665  0.2924 -0.1231
   44CHL1  H16A 5684   1.083   2.383   9.707  0.5864  1.5793 -0.0932
   44CHL1  H16B 5685   1.242   2.424   9.652 -0.1323 -1.5103 -1.5427
   44CHL1   C17 5686   1.222   2.233   9.764  0.3801  0.2950  0.1056
   44CHL1   H17 5687   1.331   2.223   9.749 -0.0389 -3.4681 -1.5130
   44CHL1   C13 5688   1.185   2.197   9.916 -0.3287 -0.1422  0.4534
   44CHL1   C18 5689   1.035   2.167   9.927  0.2333  0.0410  0.0821
   44CHL1  H18A 5690   1.013   2.164  10.036  0.3206 -0.2536  0.0920
   44CHL1  H18B 5691   0.968   2.248   9.890  1.4676  0.8420 -0.4540
   44CHL1  H18C 5692   1.000   2.072   9.881 -2.1144  0.4286  0.9189
   44CHL1   C12 5693   1.266   2.085   9.985 -0.0884 -0.2019 -0.7235
   44CHL1  H12A 5694   1.230   1.989   9.945  1.2332 -0.1497 -2.1325
   44CHL1  H12B 5695   1.377   2.087   9.976  0.1435 -0.5622  1.4580
   44CHL1   C11 5696   1.256   2.097  10.141  0.9227  0.0545 -0.0872
   44CHL1  H11A 5697   1.154   2.065  10.171  1.5170 -0.3974  1.5349
   44CHL1  H11B 5698   1.323   2.032  10.201 -0.3412 -0.9403  0.2695
   44CHL1    C9 5699   1.263   2.246  10.201 -0.5178 -0.8658  0.0113
   44CHL1    H9 5700   1.372   2.269  10.196 -0.4220 -0.7780  1.8286
   44CHL1   C10 5701   1.229   2.259  10.360 -0.9252  0.0351 -0.1613
   44CHL1   C19 5702   1.093   2.192  10.396 -0.7228 -0.5711  0.3342
   44CHL1  H19A 5703   1.058   2.224  10.497  0.4028  0.6944  0.3619
   44CHL1  H19B 5704   1.013   2.216  10.323 -0.0843  0.6184 -0.0047
   44CHL1  H19C 5705   1.104   2.081  10.392 -1.3404 -0.6772  1.2148
   44CHL1    C1 5706   1.350   2.198  10.443 -0.4592 -0.4380 -0.2500
   44CHL1   H1A 5707   1.361   2.089  10.424 -1.5254 -0.8049  1.0552
   44CHL1   H1B 5708   1.446   2.248  10.420 -0.1934 -0.0744  1.5215
   44CHL1    C2 5709   1.322   2.220  10.597  0.1838 -0.5798 -0.2314
   44CHL1   H2A 5710   1.398   2.167  10.658 -0.4270 -1.2943 -0.0732
   44CHL1   H2B 5711   1.221   2.184  10.626 -0.0430 -0.0777 -0.3844
   44CHL1   C20 5712   1.171   2.140   9.648 -0.2802 -0.1319  0.3383
   44CHL1   H20 5713   1.062   2.125   9.664  0.2698 -3.0203  1.9321
   44CHL1   C21 5714   1.232   2.002   9.663  0.6993 -0.1051  0.4745
   44CHL1  H21A 5715   1.172   1.938   9.595  2.6451 -0.8784 -0.6181
   44CHL1  H21B 5716   1.200   1.957   9.760 -1.5953  3.3673  1.5171
   44CHL1  H21C 5717   1.337   1.979   9.634  0.1090 -0.0997 -1.8005
   44CHL1   C22 5718   1.204   2.201   9.510 -0.6066  0.6209  0.7257
   44CHL1  H22A 5719   1.135   2.287   9.497 -2.6903 -1.0663 -0.0433
   44CHL1  H22B 5720   1.312   2.226   9.518 -0.5460  0.9282 -0.7644
   44CHL1   C23 5721   1.186   2.102   9.392 -0.1680  0.1008  0.3739
   44CHL1  H23A 5722   1.280   2.059   9.351 -0.0298  1.1881 -0.4963
   44CHL1  H23B 5723   1.117   2.021   9.424 -1.9650  2.1471  2.0500
   44CHL1   C24 5724   1.116   2.168   9.262  0.6310 -0.1765  0.2388
   44CHL1  H24A 5725   1.024   2.220   9.298  1.8592  1.1237  1.6041
   44CHL1  H24B 5726   1.169   2.247   9.204 -0.5073 -0.0210 -0.6315
   44CHL1   C25 5727   1.069   2.055   9.164  0.5057  0.0964 -0.2281
   44CHL1   H25 5728   0.989   2.001   9.218 -0.9007 -0.7708 -2.9948
   44CHL1   C26 5729   1.014   2.127   9.038  0.2523  0.4475  0.1795
   44CHL1  H26A 5730   0.960   2.049   8.980 -0.0236  0.5845  0.2525
   44CHL1  H26B 5731   0.938   2.204   9.063 -1.5032 -1.2106  0.1721
   44CHL1  H26C 5732   1.098   2.168   8.979  0.0923 -1.0140 -1.1435
   44CHL1   C27 5733   1.183   1.953   9.128  0.1101  0.2344  0.6912
   44CHL1  H27A 5734   1.235   1.911   9.218  1.8199 -1.4415 -0.9855
   44CHL1  H27B 5735   1.144   1.865   9.072  2.2481 -0.7762  0.6692
   44CHL1  H27C 5736   1.254   2.006   9.062  0.1913  1.0846  1.4446
   45CHL1    C3 5737   5.007   4.381  10.597  0.0561 -0.1923 -0.2206
   45CHL1    H3 5738   5.049   4.484  10.594  3.2234 -1.1191  3.6287
   45CHL1    O3 5739   4.973   4.365  10.729  0.6969 -0.0984 -0.4479
   45CHL1   H3' 5740   4.907   4.297  10.712 -2.6356  2.2282  1.8219
   45CHL1    C4 5741   4.867   4.366  10.529 -0.0147 -0.1903  0.4524
   45CHL1   H4A 5742   4.810   4.279  10.567 -1.5159  0.2114 -0.7822
   45CHL1   H4B 5743   4.808   4.453  10.566  1.9123  0.4374  2.3194
   45CHL1    C5 5744   4.882   4.357  10.382  0.9446  1.0965  0.4976
   45CHL1    C6 5745   4.831   4.453  10.304  0.1321 -0.0005 -0.7609
   45CHL1    H6 5746   4.777   4.533  10.357  1.0762  0.0559  0.1592
   45CHL1    C7 5747   4.866   4.473  10.161  0.7073  0.1120  0.1012
   45CHL1   H7A 5748   4.783   4.423  10.107 -0.0557  2.0257 -0.6088
   45CHL1   H7B 5749   4.854   4.580  10.132 -0.9670  0.1172  0.6667
   45CHL1    C8 5750   4.991   4.398  10.121  0.4660 -0.3557 -1.4481
   45CHL1    H8 5751   5.065   4.460  10.177 -0.3392  0.0626 -0.8179
   45CHL1   C14 5752   5.016   4.415   9.972 -0.2988 -0.4053  0.4438
   45CHL1   H14 5753   4.971   4.513   9.946  0.0098  0.2900  2.3562
   45CHL1   C15 5754   5.158   4.440   9.921  0.1941 -0.2189 -0.1818
   45CHL1  H15A 5755   5.182   4.545   9.948 -0.4407 -0.4944  1.6097
   45CHL1  H15B 5756   5.221   4.365   9.971 -0.7614 -0.2646  0.9828
   45CHL1   C16 5757   5.153   4.414   9.771  0.0715 -0.8791  0.5624
   45CHL1  H16A 5758   5.101   4.503   9.729 -1.5426 -1.6681  0.8512
   45CHL1  H16B 5759   5.244   4.407   9.708 -0.9808 -2.6265 -0.8584
   45CHL1   C17 5760   5.053   4.298   9.760  0.3818 -0.0619  0.1574
   45CHL1   H17 5761   5.121   4.213   9.781  0.0834 -0.4160 -0.2813
   45CHL1   C13 5762   4.954   4.309   9.877  0.9258  0.0253 -0.3662
   45CHL1   C18 5763   4.825   4.372   9.835  0.6244 -0.2054 -0.0979
   45CHL1  H18A 5764   4.841   4.464   9.774 -0.7360  1.2800  1.6522
   45CHL1  H18B 5765   4.763   4.304   9.773 -0.8943  0.4129  0.6759
   45CHL1  H18C 5766   4.752   4.404   9.912  2.2901  1.2304  0.9704
   45CHL1   C12 5767   4.935   4.164   9.940  0.3787 -0.1747 -0.1746
   45CHL1  H12A 5768   4.873   4.097   9.877 -1.4698  0.5541  0.7937
   45CHL1  H12B 5769   5.040   4.126   9.936  0.6316  0.2994  1.3753
   45CHL1   C11 5770   4.894   4.163  10.092 -0.1613 -0.0631  0.1594
   45CHL1  H11A 5771   4.790   4.201  10.105 -0.9157 -0.8473 -2.8407
   45CHL1  H11B 5772   4.897   4.053  10.107 -0.1632 -0.2793 -1.3251
   45CHL1    C9 5773   4.991   4.252  10.172  0.6405  0.0447  0.2549
   45CHL1    H9 5774   5.093   4.215  10.148  0.1080 -2.1167  1.1064
   45CHL1   C10 5775   4.974   4.248  10.330 -0.6738 -0.4983 -0.0697
   45CHL1   C19 5776   4.911   4.115  10.370  0.3948 -0.4044 -0.4495
   45CHL1  H19A 5777   4.910   4.082  10.476 -3.2056 -3.5326 -1.2492
   45CHL1  H19B 5778   4.802   4.120  10.352 -0.3150  1.7169  3.3922
   45CHL1  H19C 5779   4.961   4.034  10.312 -0.7254 -1.7521  0.3954
   45CHL1    C1 5780   5.113   4.265  10.395 -0.0450 -0.5811  0.1332
   45CHL1   H1A 5781   5.173   4.180  10.358 -0.6144 -0.7027 -0.5349
   45CHL1   H1B 5782   5.147   4.367  10.366 -0.9678 -0.0166  0.9743
   45CHL1    C2 5783   5.102   4.275  10.550  0.4905  0.4367  0.4431
   45CHL1   H2A 5784   5.203   4.277  10.596  0.6317  0.6509  0.1248
   45CHL1   H2B 5785   5.066   4.179  10.593 -1.7366  1.8948  2.0709
   45CHL1   C20 5786   5.009   4.279   9.617 -0.0433 -0.5379  0.2362
   45CHL1   H20 5787   4.915   4.334   9.593  0.6564 -0.8726 -3.9384
   45CHL1   C21 5788   4.961   4.132   9.596  0.1696 -0.8035 -0.0992
   45CHL1  H21A 5789   5.051   4.066   9.604 -0.2219 -1.6232 -1.9660
   45CHL1  H21B 5790   4.906   4.128   9.499  1.2387  1.3989 -0.8605
   45CHL1  H21C 5791   4.891   4.107   9.678 -0.1849  1.9734  0.5107
   45CHL1   C22 5792   5.106   4.327   9.509 -0.3244  0.5383  0.4170
   45CHL1  H22A 5793   5.102   4.438   9.508 -0.7091  0.5297  0.6602
   45CHL1  H22B 5794   5.205   4.278   9.514 -0.5495 -0.0675 -0.7541
   45CHL1   C23 5795   5.067   4.292   9.361 -0.1451  0.6808 -0.0490
   45CHL1  H23A 5796   5.074   4.185   9.333 -2.2516  0.2950  0.7473
   45CHL1  H23B 5797   4.960   4.318   9.347 -0.5512 -0.9840 -0.3239
   45CHL1   C24 5798   5.145   4.376   9.258  0.5352  0.2102 -0.1392
   45CHL1  H24A 5799   5.073   4.402   9.178  0.6338 -0.7968 -0.5730
   45CHL1  H24B 5800   5.179   4.471   9.305  0.0301 -0.0678  0.8191
   45CHL1   C25 5801   5.265   4.310   9.194  0.1907 -0.2834  0.6574
   45CHL1   H25 5802   5.233   4.245   9.109  1.7903  1.6468 -1.5222
   45CHL1   C26 5803   5.356   4.425   9.129 -0.4649 -0.3341  0.7196
   45CHL1  H26A 5804   5.428   4.385   9.054 -1.5103 -0.0156 -0.5010
   45CHL1  H26B 5805   5.296   4.492   9.064 -1.6629 -0.7752  1.3400
   45CHL1  H26C 5806   5.399   4.493   9.205 -0.9023  2.4646 -1.3436
   45CHL1   C27 5807   5.353   4.222   9.285 -0.2759  0.2941 -0.2126
   45CHL1  H27A 5808   5.378   4.271   9.381 -1.5957  2.0635 -0.7226
   45CHL1  H27B 5809   5.291   4.139   9.325 -0.2681  1.2790  1.9706
   45CHL1  H27C 5810   5.446   4.183   9.238  0.0119 -0.0102  0.5860
   46CHL1    C3 5811   0.152   2.362  10.513  0.3147  0.1511 -0.1528
   46CHL1    H3 5812   0.215   2.451  10.532 -1.0536  1.4265 -1.3070
   46CHL1    O3 5813   0.147   2.301  10.640 -0.0276  0.4180  0.0215
   46CHL1   H3' 5814   0.172   2.210  10.622 -0.2506  0.2927  0.3437
   46CHL1    C4 5815   0.016   2.399  10.454  0.2638 -0.3599  0.2731
   46CHL1   H4A 5816  -0.041   2.306  10.436  0.4423 -0.4716  0.2878
   46CHL1   H4B 5817  -0.045   2.460  10.524 -1.3781 -0.8168 -0.7116
   46CHL1    C5 5818   0.026   2.473  10.320  0.3188  1.2317 -0.0261
   46CHL1    C6 5819  -0.026   2.596  10.306  0.2534 -0.2327  0.2716
   46CHL1    H6 5820  -0.081   2.640  10.390 -1.0288 -0.6369 -0.3336
   46CHL1    C7 5821  -0.029   2.676  10.175 -0.5219 -0.3322 -0.3061
   46CHL1   H7A 5822  -0.127   2.717  10.145 -0.3557 -1.1517 -2.1400
   46CHL1   H7B 5823   0.041   2.761  10.184  0.4591 -1.2774  1.7507
   46CHL1    C8 5824   0.027   2.594  10.055  0.5737  0.6877  0.4540
   46CHL1    H8 5825  -0.055   2.531  10.013  1.6250  0.9972 -2.2504
   46CHL1   C14 5826   0.067   2.690   9.937  0.6237  0.2753  0.4550
   46CHL1   H14 5827   0.146   2.751   9.985 -1.5065  1.6881  2.3939
   46CHL1   C15 5828  -0.051   2.779   9.888 -0.1621 -0.3506 -0.5583
   46CHL1  H15A 5829  -0.150   2.729   9.893 -1.0592  1.5114  2.1098
   46CHL1  H15B 5830  -0.071   2.868   9.952  0.5364 -0.5760 -0.0184
   46CHL1   C16 5831  -0.008   2.824   9.746 -0.4950  0.1404 -0.1656
   46CHL1  H16A 5832  -0.066   2.782   9.661  0.9668 -2.1467 -0.1217
   46CHL1  H16B 5833   0.005   2.934   9.730  0.6069 -0.2439 -2.3097
   46CHL1   C17 5834   0.126   2.747   9.718  0.5788  0.0066  0.2648
   46CHL1   H17 5835   0.213   2.811   9.745  0.2322  0.9170 -0.7137
   46CHL1   C13 5836   0.115   2.620   9.813 -0.7853 -0.1354 -0.3161
   46CHL1   C18 5837   0.011   2.521   9.749  0.0195  0.0020  0.5081
   46CHL1  H18A 5838   0.006   2.426   9.807  1.2488 -0.4021 -0.0056
   46CHL1  H18B 5839  -0.090   2.564   9.737  0.3631  1.6000  2.7334
   46CHL1  H18C 5840   0.049   2.476   9.654 -0.3340 -0.5919  0.6409
   46CHL1   C12 5841   0.247   2.548   9.851 -0.7890  0.8184  0.1924
   46CHL1  H12A 5842   0.287   2.480   9.773  1.0679 -2.4743  3.6910
   46CHL1  H12B 5843   0.321   2.626   9.881 -1.1184  1.7773 -1.3761
   46CHL1   C11 5844   0.235   2.447   9.969  1.0523  0.4944  1.0382
   46CHL1  H11A 5845   0.195   2.355   9.920  2.3680  1.0627 -1.2646
   46CHL1  H11B 5846   0.332   2.417  10.012  0.2237 -0.9089  2.0092
   46CHL1    C9 5847   0.152   2.504  10.088  0.2530 -0.4894 -0.1273
   46CHL1    H9 5848   0.219   2.583  10.129  1.8505 -0.9506 -1.7403
   46CHL1   C10 5849   0.114   2.412  10.212 -0.3249  0.0535 -0.5361
   46CHL1   C19 5850   0.036   2.297  10.147 -0.5349 -0.1492 -1.0795
   46CHL1  H19A 5851   0.105   2.238  10.082  0.2862 -2.2958  1.5557
   46CHL1  H19B 5852  -0.012   2.231  10.222 -1.6905  2.4856  0.6592
   46CHL1  H19C 5853  -0.041   2.348  10.085 -0.0713  1.4528 -0.3842
   46CHL1    C1 5854   0.245   2.364  10.282  0.7206 -0.3753  0.4558
   46CHL1   H1A 5855   0.298   2.305  10.204 -2.1102 -0.4956 -1.5630
   46CHL1   H1B 5856   0.314   2.449  10.297  0.5259 -0.1013 -0.1714
   46CHL1    C2 5857   0.226   2.282  10.405  0.4958 -0.3751  0.3989
   46CHL1   H2A 5858   0.330   2.257  10.435  1.4745  0.4384 -2.0971
   46CHL1   H2B 5859   0.171   2.186  10.397  0.5483 -0.2598 -1.8565
   46CHL1   C20 5860   0.139   2.728   9.564 -0.8819  0.2994  0.3488
   46CHL1   H20 5861   0.057   2.662   9.530 -0.1685 -0.0213 -0.8037
   46CHL1   C21 5862   0.273   2.655   9.529  0.9316 -0.2154  0.3972
   46CHL1  H21A 5863   0.364   2.705   9.568 -0.0291  1.5371  0.4702
   46CHL1  H21B 5864   0.270   2.652   9.418  0.1222  1.0319  0.3693
   46CHL1  H21C 5865   0.268   2.544   9.538 -1.0902 -0.4016 -1.8457
   46CHL1   C22 5866   0.120   2.856   9.475  0.6963 -0.3403  0.8046
   46CHL1  H22A 5867   0.020   2.897   9.502  0.2335  1.4025 -2.9402
   46CHL1  H22B 5868   0.203   2.921   9.510  2.9266 -2.2641 -0.6232
   46CHL1   C23 5869   0.136   2.845   9.324  0.2322  0.1118  0.4759
   46CHL1  H23A 5870   0.245   2.849   9.308  0.4373 -3.0179  0.5332
   46CHL1  H23B 5871   0.117   2.741   9.291 -1.8644  0.4025  0.5740
   46CHL1   C24 5872   0.066   2.951   9.244  0.1509 -0.3928  0.2852
   46CHL1  H24A 5873  -0.043   2.943   9.261 -0.3547  1.9692 -1.4367
   46CHL1  H24B 5874   0.097   3.053   9.277  2.7018 -1.0200  0.0749
   46CHL1   C25 5875   0.096   2.945   9.087  0.5978 -0.1954 -0.7559
   46CHL1   H25 5876   0.207   2.948   9.075  0.5805  0.0271 -0.8859
   46CHL1   C26 5877   0.036   2.816   9.018 -0.0292 -0.3010  0.0869
   46CHL1  H26A 5878  -0.075   2.812   9.023  0.0487 -1.0997  1.8896
   46CHL1  H26B 5879   0.045   2.839   8.910 -0.1819 -0.1540  0.1039
   46CHL1  H26C 5880   0.081   2.716   9.034  2.2349  0.4627 -1.1084
   46CHL1   C27 5881   0.040   3.072   9.024 -0.2406  0.0083 -0.0663
   46CHL1  H27A 5882  -0.054   3.112   9.066  0.4955  1.5885  0.1634
   46CHL1  H27B 5883   0.106   3.158   9.049  2.0634 -0.8145 -2.7323
   46CHL1  H27C 5884   0.052   3.068   8.914  0.4641 -0.6659  0.0241
   47CHL1    C3 5885   0.470   0.346  10.135  0.3054  0.0833  0.3409
   47CHL1    H3 5886   0.477   0.236  10.130  2.1130  0.2043 -0.2481
   47CHL1    O3 5887   0.445   0.366  10.280 -0.9982  0.0147  0.0242
   47CHL1   H3' 5888   0.372   0.307  10.299 -0.6878 -0.5334 -0.4736
   47CHL1    C4 5889   0.599   0.413  10.090  0.0629 -0.1445  0.3178
   47CHL1   H4A 5890   0.582   0.518  10.121  1.6469  0.0690  0.5620
   47CHL1   H4B 5891   0.683   0.386  10.158 -0.3014 -0.4161  0.6663
   47CHL1    C5 5892   0.620   0.397   9.937 -0.2981  0.7537  0.2743
   47CHL1    C6 5893   0.727   0.341   9.882  1.0741 -0.8123 -0.6626
   47CHL1    H6 5894   0.809   0.304   9.945 -0.0605 -1.2122  0.6189
   47CHL1    C7 5895   0.752   0.332   9.739 -0.5582  0.0337 -0.1679
   47CHL1   H7A 5896   0.858   0.354   9.717 -0.3870 -1.8698 -1.4538
   47CHL1   H7B 5897   0.725   0.231   9.702  0.7625 -0.2079 -0.4963
   47CHL1    C8 5898   0.661   0.424   9.664 -0.0097  0.0506  1.0581
   47CHL1    H8 5899   0.690   0.529   9.687 -0.2094  0.8115 -1.8213
   47CHL1   C14 5900   0.666   0.400   9.514 -0.8367 -0.2988 -0.1670
   47CHL1   H14 5901   0.621   0.299   9.501 -0.4714 -0.5834  0.7136
   47CHL1   C15 5902   0.803   0.388   9.442 -0.4869  0.7923 -0.5214
   47CHL1  H15A 5903   0.875   0.459   9.488 -0.8757  1.5334 -1.0304
   47CHL1  H15B 5904   0.850   0.290   9.463 -2.0320 -0.4887 -2.6447
   47CHL1   C16 5905   0.781   0.423   9.296  0.2791  0.2326 -0.2773
   47CHL1  H16A 5906   0.824   0.524   9.277  0.9686 -0.3665 -2.0750
   47CHL1  H16B 5907   0.830   0.345   9.234  0.8457  0.5541 -0.2392
   47CHL1   C17 5908   0.628   0.429   9.286  0.4970 -0.0062 -0.1521
   47CHL1   H17 5909   0.590   0.325   9.284  0.2267  0.0325  1.5205
   47CHL1   C13 5910   0.578   0.481   9.422 -0.5233  0.1847  0.0359
   47CHL1   C18 5911   0.611   0.629   9.432  0.0414 -0.1252 -0.5524
   47CHL1  H18A 5912   0.590   0.673   9.531  2.3203  1.4729 -0.6951
   47CHL1  H18B 5913   0.712   0.666   9.403  0.0245  0.0946 -0.3294
   47CHL1  H18C 5914   0.551   0.688   9.360  0.4575 -0.4855 -1.2006
   47CHL1   C12 5915   0.439   0.447   9.458 -0.4803  0.5848  0.7732
   47CHL1  H12A 5916   0.367   0.508   9.399 -0.3645  1.1823  1.2456
   47CHL1  H12B 5917   0.412   0.341   9.437 -0.5994  0.7228  0.2042
   47CHL1   C11 5918   0.412   0.476   9.611 -0.3894  0.8728 -0.9226
   47CHL1  H11A 5919   0.410   0.586   9.628  3.3324  0.6394  2.5475
   47CHL1  H11B 5920   0.314   0.438   9.644 -0.2106  0.6971 -0.5895
   47CHL1    C9 5921   0.520   0.415   9.709  0.8371 -0.3286  0.9579
   47CHL1    H9 5922   0.506   0.305   9.696  0.6007 -0.4672  2.2361
   47CHL1   C10 5923   0.503   0.455   9.855  0.7713  0.0000  0.4336
   47CHL1   C19 5924   0.500   0.611   9.868  0.6871 -0.1946 -0.0814
   47CHL1  H19A 5925   0.587   0.662   9.821 -0.6384 -0.4226 -3.0461
   47CHL1  H19B 5926   0.401   0.651   9.835 -0.8388 -1.8947  2.1699
   47CHL1  H19C 5927   0.505   0.634   9.976 -0.4530  0.1955 -0.0977
   47CHL1    C1 5928   0.367   0.395   9.903  0.0613  0.3255 -0.5461
   47CHL1   H1A 5929   0.283   0.460   9.869 -0.4326  1.3735  2.4290
   47CHL1   H1B 5930   0.369   0.289   9.870  0.5759  0.4594 -0.9486
   47CHL1    C2 5931   0.351   0.397  10.060  0.2653  0.2531  0.5818
   47CHL1   H2A 5932   0.257   0.343  10.086  0.7476 -0.1509  1.5418
   47CHL1   H2B 5933   0.347   0.505  10.084  1.3733  0.4228  0.0651
   47CHL1   C20 5934   0.591   0.485   9.151 -0.8099 -0.2194  0.2824
   47CHL1   H20 5935   0.642   0.583   9.145 -2.1169  0.4504 -0.3653
   47CHL1   C21 5936   0.445   0.511   9.141  0.3131 -0.6165 -0.0753
   47CHL1  H21A 5937   0.422   0.586   9.220  0.6068 -0.5342 -0.0660
   47CHL1  H21B 5938   0.386   0.421   9.168  0.0817 -0.4663 -0.0801
   47CHL1  H21C 5939   0.416   0.556   9.044  2.8394  1.7105  0.1301
   47CHL1   C22 5940   0.640   0.404   9.031 -0.0024  0.1071  0.6905
   47CHL1  H22A 5941   0.733   0.345   9.048  0.6505  0.5798 -1.0510
   47CHL1  H22B 5942   0.563   0.330   9.000 -1.1946  2.2774 -1.9701
   47CHL1   C23 5943   0.670   0.491   8.906  0.2700 -0.4987 -0.1660
   47CHL1  H23A 5944   0.684   0.426   8.817  0.0663 -1.9196  0.8030
   47CHL1  H23B 5945   0.588   0.557   8.871  2.3311  1.3837 -1.7057
   47CHL1   C24 5946   0.790   0.587   8.920  0.2389 -0.5169 -0.2875
   47CHL1  H24A 5947   0.773   0.660   9.001 -1.2921 -1.5348  0.3595
   47CHL1  H24B 5948   0.885   0.532   8.936  0.1200 -0.2180  1.6965
   47CHL1   C25 5949   0.815   0.653   8.783 -0.4003  0.2443 -0.1235
   47CHL1   H25 5950   0.717   0.651   8.729 -0.2073 -0.0604 -0.4617
   47CHL1   C26 5951   0.856   0.803   8.792 -0.8099 -0.1782 -0.8036
   47CHL1  H26A 5952   0.917   0.820   8.883 -0.9820  1.5932 -0.9807
   47CHL1  H26B 5953   0.769   0.868   8.814 -0.2327 -0.1005  1.4930
   47CHL1  H26C 5954   0.918   0.832   8.705 -1.0392  1.0114 -0.5911
   47CHL1   C27 5955   0.908   0.565   8.687 -0.1190 -0.0633  0.1098
   47CHL1  H27A 5956   0.956   0.635   8.615 -0.0806  1.0843  1.2242
   47CHL1  H27B 5957   0.989   0.522   8.750  0.0303  0.8763  0.5730
   47CHL1  H27C 5958   0.851   0.479   8.646 -3.3641  0.5840  2.9020
   48CHL1    C3 5959   3.382   3.018  10.525 -0.5037 -0.1143 -0.9137
   48CHL1    H3 5960   3.466   2.947  10.512 -0.0472  0.6863 -2.6287
   48CHL1    O3 5961   3.372   3.048  10.663  0.0691  0.4203  0.1536
   48CHL1   H3' 5962   3.460   3.064  10.700 -0.4273 -2.6043  3.1158
   48CHL1    C4 5963   3.409   3.152  10.452 -0.1248  0.9424  0.8599
   48CHL1   H4A 5964   3.318   3.213  10.471 -1.5816  0.2684 -2.9884
   48CHL1   H4B 5965   3.495   3.205  10.497  0.0425  0.2395  1.3753
   48CHL1    C5 5966   3.425   3.129  10.303  0.4579  0.0428  0.1293
   48CHL1    C6 5967   3.529   3.181  10.227  0.1562 -0.9412  0.6985
   48CHL1    H6 5968   3.611   3.239  10.271  0.3157 -1.4419  1.0695
   48CHL1    C7 5969   3.540   3.174  10.076  0.1827 -0.1797  0.4385
   48CHL1   H7A 5970   3.556   3.270  10.022  0.2919 -0.7397 -0.5480
   48CHL1   H7B 5971   3.629   3.113  10.051 -1.5352 -1.8095 -2.1506
   48CHL1    C8 5972   3.416   3.113  10.011 -0.1802 -0.1950 -0.7415
   48CHL1    H8 5973   3.331   3.183  10.011 -0.6651 -0.7451 -1.8708
   48CHL1   C14 5974   3.432   3.077   9.860 -0.1689  0.1114 -0.9203
   48CHL1   H14 5975   3.509   2.998   9.869 -0.1497  0.2895  0.7083
   48CHL1   C15 5976   3.490   3.184   9.763  0.1935 -1.0039 -0.4351
   48CHL1  H15A 5977   3.445   3.284   9.785  2.9275  0.3128 -0.3375
   48CHL1  H15B 5978   3.600   3.194   9.770 -0.0847  2.1163  1.5667
   48CHL1   C16 5979   3.463   3.113   9.626  0.6314 -0.8863  0.4093
   48CHL1  H16A 5980   3.425   3.187   9.552  3.5055 -0.7846 -1.1062
   48CHL1  H16B 5981   3.555   3.068   9.584  1.9380  1.2496  0.8512
   48CHL1   C17 5982   3.359   2.994   9.646 -1.1143 -0.4057  0.6796
   48CHL1   H17 5983   3.421   2.902   9.651  1.2480  1.1819  2.2657
   48CHL1   C13 5984   3.311   3.014   9.787 -0.9400  0.2933  0.1908
   48CHL1   C18 5985   3.196   3.116   9.777 -0.6472  0.1071 -0.3268
   48CHL1  H18A 5986   3.109   3.049   9.757  0.5971 -1.6665 -0.0352
   48CHL1  H18B 5987   3.183   3.170   9.873  0.9353 -1.1516  0.6426
   48CHL1  H18C 5988   3.211   3.188   9.694 -0.8834  1.3617  0.6848
   48CHL1   C12 5989   3.275   2.898   9.870  0.0160 -0.0452 -0.6133
   48CHL1  H12A 5990   3.194   2.839   9.823 -0.7114  0.2897  0.1868
   48CHL1  H12B 5991   3.362   2.829   9.879  0.3846  0.4159 -0.5590
   48CHL1   C11 5992   3.239   2.926  10.018  0.4262 -0.6696  0.6826
   48CHL1  H11A 5993   3.147   2.988  10.022  0.6041 -0.3415 -0.1282
   48CHL1  H11B 5994   3.209   2.825  10.053 -2.8509 -0.4255 -1.0148
   48CHL1    C9 5995   3.359   3.000  10.100 -0.4848 -0.8640  0.0381
   48CHL1    H9 5996   3.439   2.923  10.112 -1.5677 -1.7779  1.7183
   48CHL1   C10 5997   3.318   3.037  10.238 -0.0346  0.1846 -0.5508
   48CHL1   C19 5998   3.190   3.135  10.234 -0.4243 -0.6545  0.3747
   48CHL1  H19A 5999   3.093   3.087  10.210 -0.3203 -0.1281 -1.1409
   48CHL1  H19B 6000   3.169   3.168  10.338 -0.7294 -2.4981  0.9194
   48CHL1  H19C 6001   3.205   3.231  10.180  3.9948  0.0174  2.2766
   48CHL1    C1 6002   3.279   2.912  10.319  0.9741 -0.1909 -0.7257
   48CHL1   H1A 6003   3.189   2.863  10.276  1.3791 -1.2406 -0.4133
   48CHL1   H1B 6004   3.358   2.834  10.310  1.2686  0.2171 -1.8562
   48CHL1    C2 6005   3.263   2.951  10.472  0.2265 -0.0191 -0.8891
   48CHL1   H2A 6006   3.244   2.857  10.527 -1.2088  0.0151 -1.2951
   48CHL1   H2B 6007   3.182   3.024  10.488  1.3767  0.5633  3.4790
   48CHL1   C20 6008   3.259   2.975   9.532 -0.5054 -0.4877 -0.2530
   48CHL1   H20 6009   3.198   3.067   9.521 -0.0717 -0.0809  0.6620
   48CHL1   C21 6010   3.159   2.856   9.558 -0.7971 -0.7742  0.0009
   48CHL1  H21A 6011   3.099   2.858   9.652 -0.3133  0.3304  0.3070
   48CHL1  H21B 6012   3.229   2.771   9.552  1.7475  1.1674  0.5719
   48CHL1  H21C 6013   3.080   2.856   9.479 -1.0513  0.8696  0.2152
   48CHL1   C22 6014   3.328   2.955   9.395 -0.6514 -0.1972  0.2859
   48CHL1  H22A 6015   3.411   3.028   9.390 -0.2401 -0.7234 -2.4438
   48CHL1  H22B 6016   3.373   2.853   9.387  0.8785  0.5830 -3.4923
   48CHL1   C23 6017   3.235   2.977   9.279 -0.3250 -0.7496 -0.1000
   48CHL1  H23A 6018   3.158   2.897   9.283  0.0502 -1.0492  1.5697
   48CHL1  H23B 6019   3.195   3.081   9.283  1.0059 -0.2333  0.4208
   48CHL1   C24 6020   3.312   2.970   9.143  0.1287 -0.5869  0.8301
   48CHL1  H24A 6021   3.395   3.044   9.151 -1.2036  1.1707 -0.6181
   48CHL1  H24B 6022   3.374   2.879   9.131  0.6093 -0.0144 -1.7392
   48CHL1   C25 6023   3.218   2.999   9.024 -0.4355  0.7043 -0.0635
   48CHL1   H25 6024   3.125   2.939   9.035  0.5581 -0.6762  1.4971
   48CHL1   C26 6025   3.198   3.152   9.012  0.7140  0.2544 -0.2517
   48CHL1  H26A 6026   3.157   3.186   9.109 -1.5938 -1.4537 -0.5287
   48CHL1  H26B 6027   3.295   3.203   8.995  0.4411  1.2689  1.1405
   48CHL1  H26C 6028   3.131   3.175   8.926  0.5443 -3.2383 -1.2077
   48CHL1   C27 6029   3.273   2.944   8.891  0.8295  0.3156  0.4192
   48CHL1  H27A 6030   3.210   2.988   8.811 -1.1732 -1.4108  0.9769
   48CHL1  H27B 6031   3.372   2.995   8.883  0.4793  1.0527  0.7246
   48CHL1  H27C 6032   3.279   2.833   8.892 -1.4283  0.1345 -0.8302
   49CHL1    C3 6033   5.226   3.098  10.427  0.9321  0.3358  0.3582
   49CHL1    H3 6034   5.320   3.145  10.464  0.4154  1.1854  0.5927
   49CHL1    O3 6035   5.138   3.082  10.534 -0.1222  0.0883  0.1981
   49CHL1   H3' 6036   5.185   3.104  10.614 -1.4019 -0.8430  1.2595
   49CHL1    C4 6037   5.156   3.186  10.313 -0.1168 -0.2328  0.4385
   49CHL1   H4A 6038   5.055   3.148  10.285  0.2592 -1.3108  0.5089
   49CHL1   H4B 6039   5.134   3.282  10.365  1.0619  1.4517 -1.9878
   49CHL1    C5 6040   5.236   3.193  10.185  0.2701  0.1391 -0.3924
   49CHL1    C6 6041   5.264   3.312  10.123 -0.3074  0.9294 -0.5734
   49CHL1    H6 6042   5.225   3.404  10.167 -1.3138  0.3001 -0.1165
   49CHL1    C7 6043   5.328   3.308   9.995 -0.6328 -0.2769  0.5318
   49CHL1   H7A 6044   5.287   3.389   9.930  1.3681 -0.4134 -1.0060
   49CHL1   H7B 6045   5.436   3.326  10.014 -0.5823  0.0613 -0.0579
   49CHL1    C8 6046   5.318   3.173   9.914  0.1450  0.4343  0.8339
   49CHL1    H8 6047   5.212   3.172   9.880  0.4952 -1.1019 -0.3372
   49CHL1   C14 6048   5.396   3.164   9.782  0.0757  0.9379  0.2064
   49CHL1   H14 6049   5.503   3.165   9.812  0.6905 -2.8413 -1.2320
   49CHL1   C15 6050   5.375   3.277   9.683 -0.1017 -0.1644 -0.5060
   49CHL1  H15A 6051   5.264   3.280   9.686 -0.1147 -1.2443  1.1521
   49CHL1  H15B 6052   5.428   3.362   9.731  1.0739 -1.7576  1.1860
   49CHL1   C16 6053   5.430   3.227   9.559 -0.2881  0.1626  0.1024
   49CHL1  H16A 6054   5.349   3.235   9.483 -1.9125  2.6970  1.9354
   49CHL1  H16B 6055   5.525   3.274   9.525  1.8962 -3.8527  0.0221
   49CHL1   C17 6056   5.471   3.079   9.580  0.0592  0.8806  0.5281
   49CHL1   H17 6057   5.578   3.079   9.609  0.7971  0.2734 -1.9401
   49CHL1   C13 6058   5.390   3.028   9.703  0.2179  0.7654  0.4810
   49CHL1   C18 6059   5.248   3.004   9.661  0.1499 -0.0646  0.0654
   49CHL1  H18A 6060   5.219   3.073   9.578  0.8471 -0.3847 -0.4551
   49CHL1  H18B 6061   5.240   2.908   9.607 -4.3447 -0.3695  0.8827
   49CHL1  H18C 6062   5.168   3.010   9.737 -0.0926 -0.0256 -0.1916
   49CHL1   C12 6063   5.454   2.930   9.796  0.4325  1.1324  0.2371
   49CHL1  H12A 6064   5.462   2.831   9.746  2.6222  0.8513  1.0292
   49CHL1  H12B 6065   5.553   2.956   9.839  0.6290  0.5237  0.1569
   49CHL1   C11 6066   5.378   2.917   9.933  0.1827 -0.3224  0.1060
   49CHL1  H11A 6067   5.284   2.868   9.900  0.1281 -0.5880  0.6542
   49CHL1  H11B 6068   5.426   2.840   9.997  1.8994 -0.6249 -1.4689
   49CHL1    C9 6069   5.360   3.062  10.006  0.4611  0.0496 -0.4292
   49CHL1    H9 6070   5.460   3.102  10.034 -0.7291  1.6562  1.7950
   49CHL1   C10 6071   5.276   3.058  10.133 -0.0938  0.1621  0.4022
   49CHL1   C19 6072   5.143   2.986  10.088 -0.3440 -0.0192 -0.2443
   49CHL1  H19A 6073   5.162   2.880  10.062  3.0357  0.7854 -1.5112
   49CHL1  H19B 6074   5.068   2.980  10.170 -0.0803  0.4577  0.0336
   49CHL1  H19C 6075   5.086   3.036  10.006  0.1020  0.2265 -0.4063
   49CHL1    C1 6076   5.338   2.969  10.242 -0.2618  0.1646 -0.1186
   49CHL1   H1A 6077   5.335   2.865  10.201  1.7539 -0.7781  1.8957
   49CHL1   H1B 6078   5.445   2.995  10.257  0.2253 -1.0918 -1.1517
   49CHL1    C2 6079   5.260   2.960  10.376  0.7123  0.3738 -0.3127
   49CHL1   H2A 6080   5.324   2.901  10.445 -1.9579 -0.7374  1.3865
   49CHL1   H2B 6081   5.168   2.898  10.370  0.9147 -0.2451  2.0715
   49CHL1   C20 6082   5.472   2.981   9.453  0.5074  0.1279 -0.1452
   49CHL1   H20 6083   5.368   2.942   9.449 -0.0493  0.9245  3.2331
   49CHL1   C21 6084   5.564   2.855   9.457 -0.4326 -0.2964  0.2545
   49CHL1  H21A 6085   5.559   2.801   9.554  1.2785 -0.0548  0.5220
   49CHL1  H21B 6086   5.672   2.881   9.455 -0.3006 -0.7949 -1.4631
   49CHL1  H21C 6087   5.542   2.776   9.382  2.2017 -0.2834 -0.6609
   49CHL1   C22 6088   5.499   3.062   9.317  0.2823  0.0700  0.5666
   49CHL1  H22A 6089   5.406   3.121   9.302 -0.7668 -1.4150  1.0251
   49CHL1  H22B 6090   5.578   3.139   9.332 -2.6257  3.8909 -1.8435
   49CHL1   C23 6091   5.525   2.981   9.191  0.2200  0.0426 -0.9082
   49CHL1  H23A 6092   5.595   2.897   9.208  0.3323  0.4010  0.4498
   49CHL1  H23B 6093   5.431   2.933   9.155 -0.3811 -1.3024  2.1836
   49CHL1   C24 6094   5.583   3.067   9.087  0.5768 -0.2018 -0.1262
   49CHL1  H24A 6095   5.533   3.165   9.103  2.0694  0.3291  1.6698
   49CHL1  H24B 6096   5.691   3.084   9.108 -0.2164  1.9086  2.8854
   49CHL1   C25 6097   5.558   3.011   8.948 -0.8404  0.6340 -0.2826
   49CHL1   H25 6098   5.589   2.905   8.955  2.2163  1.4218 -0.6251
   49CHL1   C26 6099   5.413   3.026   8.894  0.2091  1.0549  0.4835
   49CHL1  H26A 6100   5.410   3.004   8.785 -1.5321 -1.3749  0.9391
   49CHL1  H26B 6101   5.347   2.954   8.947  1.8352  0.2625  1.5396
   49CHL1  H26C 6102   5.382   3.131   8.909 -3.0355  0.7152 -2.6938
   49CHL1   C27 6103   5.658   3.078   8.851 -1.1378  0.2721 -0.2662
   49CHL1  H27A 6104   5.762   3.072   8.890 -0.6784  0.4709 -1.4113
   49CHL1  H27B 6105   5.653   3.039   8.747  0.5448  0.5458 -0.4751
   49CHL1  H27C 6106   5.625   3.183   8.835 -3.1132 -0.5604 -2.1970
   50CHL1    C3 6107   4.447   4.737  10.558  0.3019  0.2558 -0.3095
   50CHL1    H3 6108   4.485   4.633  10.548  2.6680  1.1173 -1.0133
   50CHL1    O3 6109   4.456   4.781  10.690  0.0506  0.0498  0.2515
   50CHL1   H3' 6110   4.469   4.700  10.740  0.2659  0.9989  1.8159
   50CHL1    C4 6111   4.536   4.826  10.470  0.1264 -0.0186  0.6971
   50CHL1   H4A 6112   4.526   4.935  10.488 -1.0666  0.2807 -1.3868
   50CHL1   H4B 6113   4.640   4.799  10.496  0.1678 -0.0145  0.5361
   50CHL1    C5 6114   4.523   4.803  10.324  0.1905  0.4102  0.2029
   50CHL1    C6 6115   4.628   4.779  10.247  0.0447 -0.6622  0.5697
   50CHL1    H6 6116   4.726   4.768  10.295  0.6081 -3.8876 -1.0252
   50CHL1    C7 6117   4.629   4.747  10.097  0.3715  0.0306 -0.2378
   50CHL1   H7A 6118   4.720   4.773  10.038  0.7872 -0.9905 -0.0637
   50CHL1   H7B 6119   4.627   4.637  10.084  0.8972  0.2862 -3.0963
   50CHL1    C8 6120   4.494   4.804  10.039 -0.4140 -0.2540 -0.6280
   50CHL1    H8 6121   4.496   4.913  10.057 -0.3305 -0.4715  0.7717
   50CHL1   C14 6122   4.481   4.764   9.892  0.5097 -0.2350 -0.5073
   50CHL1   H14 6123   4.484   4.653   9.893 -2.9416 -0.4263 -1.3863
   50CHL1   C15 6124   4.603   4.803   9.807  0.3972  0.0209 -0.3950
   50CHL1  H15A 6125   4.620   4.910   9.830 -0.8703  0.2857 -0.6330
   50CHL1  H15B 6126   4.687   4.731   9.815  2.5587  1.4305 -5.7109
   50CHL1   C16 6127   4.541   4.800   9.667 -0.5368 -0.2894  0.5358
   50CHL1  H16A 6128   4.553   4.896   9.614 -0.9770 -0.3786  0.2730
   50CHL1  H16B 6129   4.588   4.724   9.600 -0.6148  0.0420  0.1023
   50CHL1   C17 6130   4.390   4.771   9.682  0.1215 -0.0380 -0.0572
   50CHL1   H17 6131   4.377   4.661   9.684 -0.8695 -0.0316 -2.2931
   50CHL1   C13 6132   4.354   4.816   9.825 -0.5002 -0.7493  0.3453
   50CHL1   C18 6133   4.341   4.967   9.834  0.4053  0.6728  1.2135
   50CHL1  H18A 6134   4.419   5.039   9.804 -0.0957  0.6667 -0.1727
   50CHL1  H18B 6135   4.256   4.988   9.766  1.4546 -0.4956 -0.5202
   50CHL1  H18C 6136   4.311   5.001   9.936 -3.5063 -1.1009  0.8348
   50CHL1   C12 6137   4.232   4.756   9.901 -0.5190 -0.5289  0.8714
   50CHL1  H12A 6138   4.136   4.791   9.858  0.4524 -0.4744 -1.4150
   50CHL1  H12B 6139   4.242   4.646   9.890  3.2498 -0.3839  1.4295
   50CHL1   C11 6140   4.232   4.781  10.051 -0.5933  0.1832 -0.3385
   50CHL1  H11A 6141   4.208   4.889  10.056 -1.6292  0.0476 -1.5930
   50CHL1  H11B 6142   4.158   4.717  10.103  1.9401 -1.2052  1.7868
   50CHL1    C9 6143   4.372   4.759  10.126  0.0324 -0.6873 -0.6506
   50CHL1    H9 6144   4.371   4.648  10.133  0.4384 -0.6020  1.3369
   50CHL1   C10 6145   4.375   4.812  10.273 -0.4450  0.2136 -0.3443
   50CHL1   C19 6146   4.323   4.957  10.289 -0.4633  0.7337 -0.3229
   50CHL1  H19A 6147   4.217   4.958  10.257 -0.6841 -2.0203  0.0243
   50CHL1  H19B 6148   4.346   4.990  10.393  4.2247 -0.8998 -0.5968
   50CHL1  H19C 6149   4.383   5.009  10.211 -1.6710 -1.0644 -2.5680
   50CHL1    C1 6150   4.299   4.713  10.360 -0.7659 -0.5700 -0.5197
   50CHL1   H1A 6151   4.192   4.725  10.332 -0.7799  1.6482  0.2552
   50CHL1   H1B 6152   4.333   4.608  10.353  2.2448  0.2679  0.2303
   50CHL1    C2 6153   4.302   4.740  10.506  0.7514  0.6699 -0.7669
   50CHL1   H2A 6154   4.234   4.680  10.571  1.5321 -0.9362 -1.3660
   50CHL1   H2B 6155   4.266   4.842  10.532  1.0299  0.6017 -0.1090
   50CHL1   C20 6156   4.310   4.826   9.561  0.7203  0.5653 -0.2934
   50CHL1   H20 6157   4.339   4.933   9.554 -0.6021  1.0977  1.5900
   50CHL1   C21 6158   4.150   4.806   9.573 -0.3313  0.3821 -0.3893
   50CHL1  H21A 6159   4.124   4.700   9.597 -1.1435  0.7332  0.3596
   50CHL1  H21B 6160   4.107   4.816   9.471 -0.1206  2.4478 -0.3207
   50CHL1  H21C 6161   4.106   4.861   9.660 -3.1578 -1.7245 -0.3358
   50CHL1   C22 6162   4.358   4.759   9.428 -0.6420 -0.5098 -0.5024
   50CHL1  H22A 6163   4.469   4.751   9.429 -0.4678  1.4355  0.7282
   50CHL1  H22B 6164   4.314   4.659   9.410  0.5576 -1.0197 -0.7437
   50CHL1   C23 6165   4.324   4.855   9.308 -0.0491 -0.3529 -0.1137
   50CHL1  H23A 6166   4.215   4.840   9.303 -0.1360 -0.1734  0.9550
   50CHL1  H23B 6167   4.354   4.960   9.329  1.4788 -0.7139 -0.3754
   50CHL1   C24 6168   4.378   4.801   9.172  0.3114  0.2677 -0.6159
   50CHL1  H24A 6169   4.488   4.814   9.163  0.7352 -1.0488  1.8544
   50CHL1  H24B 6170   4.361   4.691   9.164  0.3761  0.1727  0.4636
   50CHL1   C25 6171   4.319   4.869   9.043  0.6575 -0.0668 -0.5232
   50CHL1   H25 6172   4.210   4.864   9.060  0.6600  1.0789 -0.0747
   50CHL1   C26 6173   4.350   5.019   9.026 -0.2315 -0.5022 -0.0107
   50CHL1  H26A 6174   4.460   5.036   9.035 -0.2268 -1.5197  2.7113
   50CHL1  H26B 6175   4.314   5.052   8.926  1.1779 -1.0969 -0.7443
   50CHL1  H26C 6176   4.308   5.081   9.108  0.1585 -1.0155  0.5845
   50CHL1   C27 6177   4.352   4.781   8.922 -0.2409 -0.3689  0.4063
   50CHL1  H27A 6178   4.327   4.678   8.953  1.7918 -0.3965  2.0930
   50CHL1  H27B 6179   4.302   4.807   8.826  3.0032 -0.5880 -1.4799
   50CHL1  H27C 6180   4.462   4.782   8.906  0.0874 -1.1691  2.3799
   51CHL1    C3 6181   2.439   0.233  10.605 -0.9827  0.2051  0.2994
   51CHL1    H3 6182   2.533   0.292  10.599  0.3736 -1.5350  2.9317
   51CHL1    O3 6183   2.406   0.210  10.742  0.5124  0.1679  0.1342
   51CHL1   H3' 6184   2.477   0.259  10.784 -0.5680  0.7329  1.3416
   51CHL1    C4 6185   2.327   0.296  10.528 -0.4129  0.0114  0.1407
   51CHL1   H4A 6186   2.234   0.241  10.552 -0.0341  0.1903  2.1772
   51CHL1   H4B 6187   2.299   0.394  10.572  0.2158 -0.2938  1.2437
   51CHL1    C5 6188   2.358   0.314  10.385  0.0305 -0.1400  0.2679
   51CHL1    C6 6189   2.362   0.433  10.323  0.6109 -0.4269 -0.4499
   51CHL1    H6 6190   2.353   0.527  10.378  1.7199 -0.7616  0.3208
   51CHL1    C7 6191   2.385   0.459  10.175  0.5626  0.5904 -0.3737
   51CHL1   H7A 6192   2.312   0.533  10.134 -0.9142 -1.1948 -1.1460
   51CHL1   H7B 6193   2.490   0.491  10.158  1.1672  0.1955  2.2417
   51CHL1    C8 6194   2.358   0.324  10.099  0.3040 -0.1451 -0.0546
   51CHL1    H8 6195   2.249   0.304  10.107  0.4156 -1.0611 -0.6616
   51CHL1   C14 6196   2.394   0.330   9.948  0.3483  0.5704 -0.1357
   51CHL1   H14 6197   2.504   0.342   9.956  0.2628  1.0579  0.4023
   51CHL1   C15 6198   2.340   0.442   9.862  0.5995 -0.5680  0.6070
   51CHL1  H15A 6199   2.229   0.441   9.870  0.2592  1.6994 -2.1527
   51CHL1  H15B 6200   2.391   0.535   9.895 -0.1732  0.6140 -1.3457
   51CHL1   C16 6201   2.379   0.403   9.715 -0.5603  0.3639 -0.0917
   51CHL1  H16A 6202   2.293   0.399   9.644 -0.9859 -2.8228  0.4611
   51CHL1  H16B 6203   2.458   0.478   9.691  0.2279  0.7944  3.3748
   51CHL1   C17 6204   2.428   0.255   9.723  0.1234  0.5315  0.1814
   51CHL1   H17 6205   2.538   0.262   9.713  0.0381 -0.3677 -1.7677
   51CHL1   C13 6206   2.387   0.202   9.861  0.1949 -0.8222 -0.1481
   51CHL1   C18 6207   2.242   0.159   9.852 -0.2828  0.0798  0.5570
   51CHL1  H18A 6208   2.189   0.175   9.949  1.6875  1.7737  1.4321
   51CHL1  H18B 6209   2.184   0.229   9.789  1.0533  0.3722 -0.3859
   51CHL1  H18C 6210   2.232   0.055   9.815  0.7742 -0.6991  2.3239
   51CHL1   C12 6211   2.467   0.096   9.935 -0.1639 -0.3388 -0.0023
   51CHL1  H12A 6212   2.459   0.001   9.877  0.2881  1.4271 -3.1656
   51CHL1  H12B 6213   2.573   0.129   9.946 -0.7760  2.3961 -1.3373
   51CHL1   C11 6214   2.422   0.080  10.076 -0.0838  0.5068 -0.3244
   51CHL1  H11A 6215   2.316   0.048  10.075  0.1096 -0.1417 -0.7478
   51CHL1  H11B 6216   2.475  -0.005  10.125 -0.1098  1.0177  0.6316
   51CHL1    C9 6217   2.435   0.209  10.167 -0.0338 -0.7646  0.1794
   51CHL1    H9 6218   2.544   0.230  10.173  0.8046 -4.3988  0.2431
   51CHL1   C10 6219   2.389   0.183  10.310  0.1744  0.9263  0.7536
   51CHL1   C19 6220   2.257   0.098  10.310 -0.1527 -0.0856  0.5819
   51CHL1  H19A 6221   2.238   0.084  10.418  2.1134  0.9862  1.1835
   51CHL1  H19B 6222   2.169   0.151  10.268  0.1037 -0.0945  0.0240
   51CHL1  H19C 6223   2.271  -0.007  10.274  0.7637 -0.7073  2.6123
   51CHL1    C1 6224   2.506   0.108  10.390  0.0595 -0.3518 -0.3381
   51CHL1   H1A 6225   2.516   0.003  10.355  0.0492 -0.2926 -0.5217
   51CHL1   H1B 6226   2.600   0.162  10.368  0.6984 -0.8966  0.9979
   51CHL1    C2 6227   2.481   0.097  10.538  0.5625 -0.2320  0.4031
   51CHL1   H2A 6228   2.555   0.053  10.609  1.8201  1.2653  0.0710
   51CHL1   H2B 6229   2.389   0.035  10.550  0.8886 -0.9272 -0.5802
   51CHL1   C20 6230   2.395   0.171   9.590  0.1032 -0.1932 -0.7718
   51CHL1   H20 6231   2.285   0.167   9.574 -0.4660  1.7467  2.0340
   51CHL1   C21 6232   2.445   0.024   9.597  0.1668 -0.0843 -0.6204
   51CHL1  H21A 6233   2.556   0.021   9.597  0.1794  0.0574  0.7062
   51CHL1  H21B 6234   2.412  -0.039   9.511  0.7668 -1.2501 -0.0071
   51CHL1  H21C 6235   2.419  -0.018   9.696  2.5470  0.4494  0.2954
   51CHL1   C22 6236   2.451   0.243   9.454  0.3424 -0.0545  0.1859
   51CHL1  H22A 6237   2.411   0.346   9.449  2.0809  0.6796  0.4872
   51CHL1  H22B 6238   2.562   0.251   9.457  0.2176  1.5828  1.9746
   51CHL1   C23 6239   2.410   0.195   9.315 -0.0790 -0.2212  0.2805
   51CHL1  H23A 6240   2.438   0.088   9.305  1.8282  0.2842 -0.3794
   51CHL1  H23B 6241   2.300   0.203   9.304  0.0101  0.2113 -0.3918
   51CHL1   C24 6242   2.475   0.280   9.203 -0.1766 -0.8193 -0.3133
   51CHL1  H24A 6243   2.450   0.387   9.219  0.0870 -0.6802 -0.8041
   51CHL1  H24B 6244   2.584   0.268   9.220 -0.3056 -0.2559  1.0342
   51CHL1   C25 6245   2.432   0.248   9.061  0.7677 -0.3449  0.2268
   51CHL1   H25 6246   2.321   0.246   9.061  0.6928  1.0633  2.1059
   51CHL1   C26 6247   2.493   0.363   8.960 -0.1225  0.9416 -0.1885
   51CHL1  H26A 6248   2.603   0.359   8.972 -0.3120 -0.4143  1.3803
   51CHL1  H26B 6249   2.459   0.342   8.856  0.7148  2.1307 -0.7279
   51CHL1  H26C 6250   2.445   0.458   8.992 -0.1359  0.5652  0.9483
   51CHL1   C27 6251   2.491   0.109   9.024  0.0032  0.1822  0.2268
   51CHL1  H27A 6252   2.502   0.090   8.915  0.4758  0.0969  0.2858
   51CHL1  H27B 6253   2.595   0.103   9.063 -0.1288  2.3920  1.0591
   51CHL1  H27C 6254   2.444   0.019   9.068  1.9145 -1.8108 -1.5157
   52CHL1    C3 6255   6.388   6.564  10.252  0.3843 -0.0744  0.7382
   52CHL1    H3 6256   6.380   6.673  10.273 -0.0047 -0.0967  0.7103
   52CHL1    O3 6257   6.423   6.508  10.375 -0.1715 -0.3337 -0.2426
   52CHL1   H3' 6258   6.429   6.416  10.350  0.5439 -0.1416 -0.8394
   52CHL1    C4 6259   6.258   6.508  10.191  0.6527  0.4852  0.0706
   52CHL1   H4A 6260   6.265   6.397  10.197 -2.1213  0.2600  0.2597
   52CHL1   H4B 6261   6.173   6.526  10.259  0.1720 -2.3469  0.3719
   52CHL1    C5 6262   6.220   6.552  10.050  0.1190  0.1981 -0.2863
   52CHL1    C6 6263   6.103   6.602  10.020  0.0341 -0.1733  0.2081
   52CHL1    H6 6264   6.027   6.604  10.101 -1.8650  0.8592 -1.5089
   52CHL1    C7 6265   6.063   6.658   9.879  0.9433  0.0259 -0.2823
   52CHL1   H7A 6266   5.961   6.620   9.856  0.3628 -0.2851  2.4048
   52CHL1   H7B 6267   6.066   6.769   9.874 -1.5284  0.1694 -0.0043
   52CHL1    C8 6268   6.164   6.606   9.773 -0.5131  0.7704  0.0516
   52CHL1    H8 6269   6.135   6.501   9.750 -0.9493  0.0387  3.4546
   52CHL1   C14 6270   6.144   6.674   9.639  0.4287  0.4315  0.1381
   52CHL1   H14 6271   6.168   6.781   9.656 -0.7038  0.7885 -0.3581
   52CHL1   C15 6272   6.001   6.668   9.578 -0.2140  0.8896  0.3141
   52CHL1  H15A 6273   5.955   6.568   9.591  0.1044  0.5592 -0.9581
   52CHL1  H15B 6274   5.931   6.737   9.630 -0.9282  0.1419  0.3588
   52CHL1   C16 6275   6.014   6.709   9.433  0.4330  0.0525 -0.4854
   52CHL1  H16A 6276   5.957   6.630   9.380  2.5281 -1.0539 -1.1916
   52CHL1  H16B 6277   5.971   6.811   9.427 -0.3330 -0.1588  0.9033
   52CHL1   C17 6278   6.171   6.711   9.406  0.9422 -0.0606 -0.8761
   52CHL1   H17 6279   6.209   6.815   9.420 -0.1415  0.2912 -0.4603
   52CHL1   C13 6280   6.239   6.632   9.527  1.2912  0.9193 -0.2171
   52CHL1   C18 6281   6.225   6.482   9.489  0.3367  0.6784  0.0743
   52CHL1  H18A 6282   6.292   6.456   9.403 -1.3144 -0.9065 -0.8058
   52CHL1  H18B 6283   6.255   6.399   9.556 -2.4163 -0.9713 -0.5711
   52CHL1  H18C 6284   6.125   6.463   9.446  0.6086  1.3084 -0.8716
   52CHL1   C12 6285   6.377   6.667   9.576 -0.7142 -0.1520 -0.0623
   52CHL1  H12A 6286   6.461   6.656   9.503  1.3021  0.5921  2.0248
   52CHL1  H12B 6287   6.388   6.774   9.601 -0.4002 -0.2528  0.2319
   52CHL1   C11 6288   6.409   6.594   9.709  0.3109  0.1208  0.0888
   52CHL1  H11A 6289   6.421   6.487   9.682 -0.8325 -0.1740  0.7201
   52CHL1  H11B 6290   6.504   6.639   9.747  0.1211  0.3516  0.2945
   52CHL1    C9 6291   6.307   6.625   9.825 -0.0016 -0.1540 -0.4746
   52CHL1    H9 6292   6.328   6.730   9.852 -0.1711  0.1473 -1.4627
   52CHL1   C10 6293   6.336   6.541   9.951 -0.1248  0.1950  0.5517
   52CHL1   C19 6294   6.344   6.393   9.907 -0.0451  0.3508 -0.1913
   52CHL1  H19A 6295   6.436   6.371   9.848  0.3542  0.6335  0.3178
   52CHL1  H19B 6296   6.369   6.344  10.003  2.3571  2.5107  0.3866
   52CHL1  H19C 6297   6.250   6.362   9.856  0.2436  1.3798 -1.3825
   52CHL1    C1 6298   6.475   6.593  10.008  0.6835 -0.0643  0.0793
   52CHL1   H1A 6299   6.555   6.556   9.940  0.3981 -0.8157  0.1459
   52CHL1   H1B 6300   6.478   6.704  10.015  2.0753  0.0281 -1.3832
   52CHL1    C2 6301   6.500   6.538  10.152  0.0771 -0.1565 -0.6876
   52CHL1   H2A 6302   6.599   6.572  10.189  0.6767 -1.8123 -0.6758
   52CHL1   H2B 6303   6.504   6.427  10.142 -1.7518 -0.7785  3.3427
   52CHL1   C20 6304   6.204   6.678   9.262  0.6331 -0.2154  0.1094
   52CHL1   H20 6305   6.174   6.579   9.223 -0.4380  0.0348  0.2806
   52CHL1   C21 6306   6.360   6.688   9.250 -0.0132 -0.1668 -0.5042
   52CHL1  H21A 6307   6.391   6.674   9.144  2.1919  0.9391 -0.0528
   52CHL1  H21B 6308   6.409   6.608   9.309 -1.8586 -0.0107  1.3773
   52CHL1  H21C 6309   6.400   6.785   9.286  2.0128 -1.8971  2.2221
   52CHL1   C22 6310   6.134   6.782   9.167  0.5769 -0.7027 -0.1927
   52CHL1  H22A 6311   6.024   6.772   9.161  0.3747  1.0266  0.0020
   52CHL1  H22B 6312   6.159   6.881   9.211  2.1846 -1.5298  0.8603
   52CHL1   C23 6313   6.178   6.772   9.020 -0.5207  0.1884 -0.6760
   52CHL1  H23A 6314   6.275   6.826   9.014 -1.3079  1.8196  0.2683
   52CHL1  H23B 6315   6.196   6.664   9.002 -0.5413 -0.0996  0.8329
   52CHL1   C24 6316   6.078   6.831   8.923 -0.2882 -0.9437 -0.2744
   52CHL1  H24A 6317   6.088   6.793   8.819  1.6677 -0.4573 -0.2974
   52CHL1  H24B 6318   5.981   6.792   8.959  0.0429 -0.3099  1.3812
   52CHL1   C25 6319   6.064   6.989   8.923  0.1236 -0.1144 -0.6023
   52CHL1   H25 6320   6.076   7.020   9.029 -1.0230 -0.8496 -0.2398
   52CHL1   C26 6321   6.170   7.054   8.832  0.1934  0.4702 -0.0448
   52CHL1  H26A 6322   6.187   7.163   8.842  3.4895  0.3268 -2.5844
   52CHL1  H26B 6323   6.265   7.018   8.876 -0.4652 -0.5846  0.5748
   52CHL1  H26C 6324   6.165   7.020   8.727  1.4593  0.3825 -0.0895
   52CHL1   C27 6325   5.926   7.032   8.871 -0.9375 -0.6104  0.2438
   52CHL1  H27A 6326   5.924   6.993   8.767 -0.5827 -0.6553  0.2534
   52CHL1  H27B 6327   5.843   6.987   8.931 -1.5883 -0.5554 -0.5938
   52CHL1  H27C 6328   5.914   7.141   8.884  0.2713 -0.5567  1.0766
   53CHL1    C3 6329   0.926   5.402  10.286  0.0570 -0.1215 -0.6702
   53CHL1    H3 6330   0.823   5.411  10.246 -0.8525 -1.3893  1.2486
   53CHL1    O3 6331   0.915   5.386  10.428  0.2074  0.1349 -0.3680
   53CHL1   H3' 6332   0.865   5.466  10.445  0.7076  0.3318  0.2138
   53CHL1    C4 6333   0.992   5.276  10.235 -0.3047  0.0095 -0.1348
   53CHL1   H4A 6334   1.096   5.261  10.272  0.2056 -0.5235 -1.7228
   53CHL1   H4B 6335   0.941   5.187  10.278 -1.2236  0.8594  0.5744
   53CHL1    C5 6336   0.998   5.282  10.083  0.5935 -0.3611  0.0842
   53CHL1    C6 6337   0.957   5.181  10.009 -0.4954 -0.3327  0.2867
   53CHL1    H6 6338   0.902   5.104  10.064 -1.7818 -0.3487 -0.9762
   53CHL1    C7 6339   0.978   5.170   9.865  0.0908  0.6412  0.3723
   53CHL1   H7A 6340   1.019   5.070   9.841  0.3468  0.9445 -0.4732
   53CHL1   H7B 6341   0.880   5.186   9.814  0.5657  1.2598 -0.3605
   53CHL1    C8 6342   1.084   5.279   9.810 -0.2092  0.3008  0.0295
   53CHL1    H8 6343   1.186   5.248   9.841 -0.3113 -1.4168 -1.2274
   53CHL1   C14 6344   1.072   5.300   9.662  0.9602 -0.5153  0.6180
   53CHL1   H14 6345   0.966   5.327   9.643  0.4362 -2.9121 -0.2256
   53CHL1   C15 6346   1.089   5.175   9.566  0.2245 -0.1349  0.0129
   53CHL1  H15A 6347   1.170   5.117   9.616  2.8387  3.3204  0.2064
   53CHL1  H15B 6348   1.003   5.105   9.560 -0.6512  0.6218  2.3071
   53CHL1   C16 6349   1.146   5.223   9.434  0.3035 -0.3083  0.4040
   53CHL1  H16A 6350   1.251   5.190   9.428  0.3740 -0.3761  1.7666
   53CHL1  H16B 6351   1.091   5.187   9.344  1.6012 -0.0721 -0.5062
   53CHL1   C17 6352   1.152   5.383   9.440  0.5373 -0.5119 -0.5178
   53CHL1   H17 6353   1.052   5.419   9.408  0.0885 -1.6926 -0.5210
   53CHL1   C13 6354   1.159   5.411   9.596 -0.0471  0.3523 -0.4179
   53CHL1   C18 6355   1.308   5.389   9.635  0.1463 -0.1847  0.0313
   53CHL1  H18A 6356   1.320   5.386   9.746 -0.3602 -2.1823  0.0813
   53CHL1  H18B 6357   1.342   5.286   9.609  0.9695  0.5163 -1.8000
   53CHL1  H18C 6358   1.371   5.468   9.590 -0.8833  1.3038  1.1225
   53CHL1   C12 6359   1.114   5.547   9.652  0.6810  0.2481  1.1379
   53CHL1  H12A 6360   1.168   5.637   9.617  2.0708 -0.6000  1.0269
   53CHL1  H12B 6361   1.005   5.552   9.631  0.8523 -2.5039 -0.9666
   53CHL1   C11 6362   1.121   5.542   9.805 -0.3402 -0.2715 -0.0788
   53CHL1  H11A 6363   1.224   5.541   9.847 -0.8753  0.7505  1.3419
   53CHL1  H11B 6364   1.076   5.639   9.838  0.2545  0.6250 -1.7704
   53CHL1    C9 6365   1.052   5.416   9.870  0.1552 -0.2466  0.7881
   53CHL1    H9 6366   0.944   5.439   9.865 -0.0730 -1.2681  0.9190
   53CHL1   C10 6367   1.072   5.400  10.032 -0.8614  0.0425  0.0002
   53CHL1   C19 6368   1.225   5.388  10.075 -0.4245 -1.0298 -0.3506
   53CHL1  H19A 6369   1.275   5.293  10.044  1.5852 -0.4348  0.9000
   53CHL1  H19B 6370   1.291   5.469  10.038 -0.4201 -0.6808  0.3964
   53CHL1  H19C 6371   1.245   5.400  10.184  0.4630 -2.2234 -0.3609
   53CHL1    C1 6372   1.024   5.543  10.087  0.3124 -0.1388  0.7424
   53CHL1   H1A 6373   1.092   5.629  10.078 -1.8011  1.4745 -0.8607
   53CHL1   H1B 6374   0.932   5.574  10.032  0.2147  0.7105  1.3660
   53CHL1    C2 6375   0.995   5.538  10.237 -0.0402 -0.1557  0.0362
   53CHL1   H2A 6376   0.930   5.621  10.274 -1.0099 -1.2835  0.9879
   53CHL1   H2B 6377   1.092   5.550  10.290  1.2951  0.9400 -2.4924
   53CHL1   C20 6378   1.256   5.443   9.339  0.3143  0.4841  0.7742
   53CHL1   H20 6379   1.359   5.414   9.368  0.3940  0.8719  0.8941
   53CHL1   C21 6380   1.263   5.594   9.334  0.4328 -0.2071  0.3179
   53CHL1  H21A 6381   1.340   5.626   9.260 -1.9201 -0.9533 -2.6335
   53CHL1  H21B 6382   1.286   5.645   9.430  1.0482  1.3184 -0.5891
   53CHL1  H21C 6383   1.164   5.634   9.303  0.9842 -0.9041 -2.6772
   53CHL1   C22 6384   1.228   5.383   9.197  0.2262  0.7367 -0.3533
   53CHL1  H22A 6385   1.239   5.272   9.193 -0.5093  0.6605 -4.1925
   53CHL1  H22B 6386   1.123   5.408   9.171 -0.5293 -0.3738  1.4436
   53CHL1   C23 6387   1.323   5.440   9.088  0.0004  0.3273 -0.8671
   53CHL1  H23A 6388   1.282   5.537   9.054  0.0725 -0.5516 -3.6705
   53CHL1  H23B 6389   1.419   5.451   9.143 -1.5116  1.3050  1.7906
   53CHL1   C24 6390   1.321   5.356   8.959 -0.0488  0.3150  0.0920
   53CHL1  H24A 6391   1.376   5.408   8.878 -1.0213 -2.3572 -2.4850
   53CHL1  H24B 6392   1.371   5.257   8.967  1.4102  0.9127 -1.1996
   53CHL1   C25 6393   1.178   5.322   8.910  0.7940 -0.5878  0.2779
   53CHL1   H25 6394   1.122   5.264   8.987 -1.6842  0.4582 -0.6040
   53CHL1   C26 6395   1.094   5.454   8.894 -0.0506  0.3221 -0.5415
   53CHL1  H26A 6396   1.005   5.425   8.834  0.3620 -0.5849 -0.7234
   53CHL1  H26B 6397   1.055   5.500   8.988  2.0073  0.2964  0.3778
   53CHL1  H26C 6398   1.151   5.527   8.834 -0.5563  1.3517  0.1929
   53CHL1   C27 6399   1.175   5.255   8.777  0.8586 -0.7100 -0.5443
   53CHL1  H27A 6400   1.221   5.316   8.696  2.9045  0.8671  1.6592
   53CHL1  H27B 6401   1.216   5.152   8.780  1.0037 -0.6312  0.5494
   53CHL1  H27C 6402   1.067   5.242   8.751  0.6528  0.9200 -0.5971
   54CHL1    C3 6403   1.945   2.527  10.529 -0.3935  0.1549 -0.3401
   54CHL1    H3 6404   2.034   2.484  10.479 -0.3316  1.1661 -1.1271
   54CHL1    O3 6405   1.978   2.543  10.665  0.5493  0.1617  0.5884
   54CHL1   H3' 6406   1.907   2.599  10.699 -0.3660 -1.7693  1.9969
   54CHL1    C4 6407   1.891   2.646  10.453 -0.1948 -0.0024  0.1125
   54CHL1   H4A 6408   1.809   2.679  10.520  0.9324 -2.7482  3.0843
   54CHL1   H4B 6409   1.963   2.730  10.459  0.1344 -0.2083 -0.7141
   54CHL1    C5 6410   1.867   2.618  10.309  0.3619 -0.0496  0.0331
   54CHL1    C6 6411   1.934   2.674  10.211 -0.7979 -0.1723  0.2409
   54CHL1    H6 6412   2.008   2.752  10.231 -1.0244 -0.4111  2.2427
   54CHL1    C7 6413   1.932   2.631  10.068  0.7106  1.3905  0.6840
   54CHL1   H7A 6414   1.932   2.722  10.005 -0.7934  0.6802 -0.4130
   54CHL1   H7B 6415   2.027   2.580  10.040  0.0142  0.5449 -0.2240
   54CHL1    C8 6416   1.799   2.553  10.030 -0.0269  0.3443 -0.3627
   54CHL1    H8 6417   1.708   2.615  10.023 -0.4406 -0.0216  1.4201
   54CHL1   C14 6418   1.818   2.478   9.895 -0.0243 -0.4569 -0.4411
   54CHL1   H14 6419   1.908   2.414   9.903  0.7935  0.7628  0.5849
   54CHL1   C15 6420   1.853   2.564   9.765  0.0083 -0.2986  0.3278
   54CHL1  H15A 6421   1.780   2.644   9.742 -2.5936 -2.3172  1.1608
   54CHL1  H15B 6422   1.960   2.596   9.769  0.1047 -0.5953  0.1553
   54CHL1   C16 6423   1.834   2.457   9.658  0.3059 -0.4262 -0.2112
   54CHL1  H16A 6424   1.766   2.496   9.579 -0.5426  0.4424  0.9217
   54CHL1  H16B 6425   1.935   2.442   9.614  0.6826  2.6074 -0.5663
   54CHL1   C17 6426   1.764   2.334   9.721  0.5491  0.3381  0.2483
   54CHL1   H17 6427   1.845   2.259   9.736 -1.3292 -1.7899  0.1882
   54CHL1   C13 6428   1.709   2.377   9.862 -0.5365 -0.1426  0.5780
   54CHL1   C18 6429   1.577   2.460   9.838  0.1286 -0.2670 -0.0947
   54CHL1  H18A 6430   1.560   2.536   9.917  0.4042 -1.4383  1.1249
   54CHL1  H18B 6431   1.588   2.520   9.746 -1.3230 -1.0480 -0.8192
   54CHL1  H18C 6432   1.486   2.396   9.833 -2.5712  3.3647 -2.1714
   54CHL1   C12 6433   1.686   2.270   9.967 -0.7626  0.4152 -0.6698
   54CHL1  H12A 6434   1.587   2.223   9.950 -0.8472  0.3600 -0.0622
   54CHL1  H12B 6435   1.776   2.206   9.973  0.3124  1.9876  1.3192
   54CHL1   C11 6436   1.665   2.347  10.097  0.4144  0.1866  0.4481
   54CHL1  H11A 6437   1.570   2.404  10.090  0.0517 -0.3161  1.1316
   54CHL1  H11B 6438   1.651   2.277  10.183 -0.9664 -0.8386 -0.5696
   54CHL1    C9 6439   1.781   2.441  10.132  0.3697 -0.6208  0.2043
   54CHL1    H9 6440   1.874   2.381  10.119  0.0297 -0.6783 -2.5290
   54CHL1   C10 6441   1.776   2.498  10.281  0.3895  0.2899 -0.5171
   54CHL1   C19 6442   1.629   2.550  10.310  0.3777 -0.0762  1.0625
   54CHL1  H19A 6443   1.616   2.596  10.410 -1.2269  2.9817 -0.4184
   54CHL1  H19B 6444   1.598   2.619  10.228 -0.8476 -2.4820 -0.6469
   54CHL1  H19C 6445   1.574   2.453  10.306  1.7015 -0.8383 -2.1303
   54CHL1    C1 6446   1.818   2.382  10.373  0.4923  0.6080 -0.1475
   54CHL1   H1A 6447   1.752   2.293  10.362  1.8292 -0.2899 -1.2471
   54CHL1   H1B 6448   1.919   2.353  10.338 -0.2468  0.6089 -2.4343
   54CHL1    C2 6449   1.837   2.415  10.522  0.0313  0.1939 -0.1745
   54CHL1   H2A 6450   1.874   2.319  10.564  0.0946  0.5849  0.6842
   54CHL1   H2B 6451   1.740   2.441  10.568  1.2511  1.5669  1.7542
   54CHL1   C20 6452   1.666   2.256   9.626  0.1087 -0.8292 -0.5210
   54CHL1   H20 6453   1.577   2.321   9.609 -0.4890 -0.3529  3.5292
   54CHL1   C21 6454   1.608   2.130   9.694 -0.3184 -0.2910  0.0836
   54CHL1  H21A 6455   1.532   2.157   9.771 -0.6296  0.7561 -0.5697
   54CHL1  H21B 6456   1.694   2.073   9.737  0.0669  0.1658 -0.0666
   54CHL1  H21C 6457   1.550   2.070   9.621  0.2143 -1.7142  0.7866
   54CHL1   C22 6458   1.738   2.222   9.490 -0.1516 -0.2894 -0.9423
   54CHL1  H22A 6459   1.795   2.316   9.473 -1.3572  1.4311  3.2088
   54CHL1  H22B 6460   1.801   2.134   9.516 -0.7808 -0.4522  0.1045
   54CHL1   C23 6461   1.639   2.204   9.370 -0.2370  0.6536 -0.3572
   54CHL1  H23A 6462   1.577   2.117   9.402  0.9115  0.9551  3.1725
   54CHL1  H23B 6463   1.579   2.296   9.355  1.7478  2.3217  1.3318
   54CHL1   C24 6464   1.725   2.168   9.241  0.0962 -0.1065 -0.5558
   54CHL1  H24A 6465   1.784   2.258   9.212 -0.0587  0.1972  0.0596
   54CHL1  H24B 6466   1.792   2.088   9.277 -0.3108  0.0735  0.6277
   54CHL1   C25 6467   1.653   2.129   9.111 -0.1727 -0.5087  0.1666
   54CHL1   H25 6468   1.580   2.210   9.088 -0.6760 -1.4862 -1.9018
   54CHL1   C26 6469   1.739   2.115   8.993 -0.3725  0.2616  0.3201
   54CHL1  H26A 6470   1.677   2.096   8.903 -0.2930 -0.9435  0.4918
   54CHL1  H26B 6471   1.797   2.208   8.975 -0.2231  0.4483  1.6423
   54CHL1  H26C 6472   1.819   2.038   9.004  0.5957  1.4513  2.3437
   54CHL1   C27 6473   1.570   2.005   9.129  0.0128 -0.4290 -0.1455
   54CHL1  H27A 6474   1.479   2.023   9.067  0.2367  1.8283  0.0894
   54CHL1  H27B 6475   1.604   1.909   9.085 -2.7571 -1.1813 -0.9002
   54CHL1  H27C 6476   1.537   1.987   9.233  0.8189 -1.4149 -0.0501
   55CHL1    C3 6477   2.342   6.487  10.526 -0.1355  0.2704  0.1741
   55CHL1    H3 6478   2.336   6.596  10.503  1.0198  0.3443  0.2070
   55CHL1    O3 6479   2.385   6.469  10.664  0.7044  0.3886  0.0423
   55CHL1   H3' 6480   2.380   6.374  10.680  0.2123  0.7648  2.5172
   55CHL1    C4 6481   2.208   6.419  10.495  0.2056 -0.5387 -0.5259
   55CHL1   H4A 6482   2.196   6.311  10.521  0.3406 -0.4002  0.1129
   55CHL1   H4B 6483   2.123   6.459  10.554 -0.8397 -4.2359  0.7965
   55CHL1    C5 6484   2.185   6.440  10.346 -0.4380  1.4333  0.9645
   55CHL1    C6 6485   2.077   6.499  10.296  0.9689 -0.3767  0.6297
   55CHL1    H6 6486   2.000   6.546  10.359  0.1856  1.4050 -1.5453
   55CHL1    C7 6487   2.043   6.512  10.149 -0.2730 -0.1604  0.7349
   55CHL1   H7A 6488   1.937   6.482  10.132  0.8273 -2.5503 -2.9773
   55CHL1   H7B 6489   2.058   6.617  10.114 -0.7877 -0.1691  0.4765
   55CHL1    C8 6490   2.134   6.417  10.060  0.0228 -0.2022  0.4274
   55CHL1    H8 6491   2.088   6.316  10.069 -0.9373 -0.0385 -1.8924
   55CHL1   C14 6492   2.120   6.466   9.915 -0.0376 -0.4834 -0.5901
   55CHL1   H14 6493   2.177   6.561   9.925 -0.0752 -0.5312  0.1300
   55CHL1   C15 6494   1.974   6.486   9.870 -0.2706  0.5406 -0.0920
   55CHL1  H15A 6495   1.925   6.398   9.915  0.9538  0.2202  0.6778
   55CHL1  H15B 6496   1.929   6.579   9.911 -1.2005 -0.0829  0.3114
   55CHL1   C16 6497   1.990   6.481   9.719  0.4318 -0.1586 -0.4823
   55CHL1  H16A 6498   1.928   6.395   9.686  0.4642 -0.3711  0.0178
   55CHL1  H16B 6499   1.962   6.571   9.660 -1.0369 -1.7744 -2.4037
   55CHL1   C17 6500   2.141   6.460   9.685  0.3858  0.5723  0.2829
   55CHL1   H17 6501   2.192   6.559   9.687  0.5831  0.4624  0.6387
   55CHL1   C13 6502   2.195   6.391   9.808  0.3982 -0.8649 -0.1043
   55CHL1   C18 6503   2.150   6.237   9.799  0.1675 -0.6646  1.0345
   55CHL1  H18A 6504   2.214   6.179   9.730  1.0283  0.4478  0.8647
   55CHL1  H18B 6505   2.156   6.189   9.899 -0.0398  0.0474  1.3968
   55CHL1  H18C 6506   2.044   6.220   9.769  0.8205 -1.1138 -1.2017
   55CHL1   C12 6507   2.347   6.402   9.852  0.5030  0.0631  0.6263
   55CHL1  H12A 6508   2.406   6.350   9.773 -0.8953 -0.5967 -0.0318
   55CHL1  H12B 6509   2.370   6.510   9.860  2.1614 -0.3521  2.1133
   55CHL1   C11 6510   2.362   6.346   9.992  0.4790  0.0890 -0.0572
   55CHL1  H11A 6511   2.348   6.237   9.978  0.4720  0.4102 -3.1337
   55CHL1  H11B 6512   2.465   6.353  10.035 -0.5428 -1.5474  2.9527
   55CHL1    C9 6513   2.273   6.417  10.100  1.0016  0.0756 -0.6841
   55CHL1    H9 6514   2.307   6.523  10.095 -1.9065  1.1200 -0.0729
   55CHL1   C10 6515   2.291   6.381  10.250 -0.1022  0.0376 -0.0645
   55CHL1   C19 6516   2.292   6.222  10.254 -0.7491  0.2726 -0.9556
   55CHL1  H19A 6517   2.203   6.182  10.202  0.8355 -1.7904 -2.2410
   55CHL1  H19B 6518   2.379   6.179  10.200 -0.3813 -1.9242  1.1869
   55CHL1  H19C 6519   2.304   6.181  10.357 -0.5162 -0.3824 -1.2400
   55CHL1    C1 6520   2.426   6.436  10.300 -0.2213  0.5910 -0.0253
   55CHL1   H1A 6521   2.507   6.392  10.238 -0.3254 -2.1514  1.6122
   55CHL1   H1B 6522   2.439   6.545  10.287  0.3285  1.0413  3.4617
   55CHL1    C2 6523   2.454   6.427  10.450  0.0432  0.3629  0.3746
   55CHL1   H2A 6524   2.547   6.482  10.475  1.1066 -0.8837 -0.6507
   55CHL1   H2B 6525   2.468   6.319  10.472 -0.9504  0.1884  0.2132
   55CHL1   C20 6526   2.159   6.385   9.553 -0.8288  0.1043 -0.5336
   55CHL1   H20 6527   2.122   6.281   9.552  0.3039 -0.3108 -1.1422
   55CHL1   C21 6528   2.306   6.387   9.518 -0.0890 -0.5727 -0.4661
   55CHL1  H21A 6529   2.351   6.489   9.514 -1.9407  0.2320 -1.6863
   55CHL1  H21B 6530   2.323   6.350   9.415 -1.2432  1.8526 -1.5878
   55CHL1  H21C 6531   2.361   6.328   9.595  1.6760  2.8041  1.0852
   55CHL1   C22 6532   2.089   6.453   9.431  0.1409 -0.0432  0.5356
   55CHL1  H22A 6533   2.111   6.387   9.345 -0.6827  2.3544 -1.6393
   55CHL1  H22B 6534   1.980   6.446   9.452  0.0235  0.5060  0.1334
   55CHL1   C23 6535   2.132   6.593   9.397 -0.0533 -0.0297  0.6157
   55CHL1  H23A 6536   2.136   6.653   9.491  0.5982  1.9802 -0.6183
   55CHL1  H23B 6537   2.232   6.592   9.348 -0.1681 -1.9920  0.3721
   55CHL1   C24 6538   2.043   6.678   9.296 -0.7684 -0.5184 -0.4766
   55CHL1  H24A 6539   1.946   6.700   9.345 -1.0001 -0.1846 -1.0787
   55CHL1  H24B 6540   2.093   6.776   9.282 -0.9322 -0.2454  0.7351
   55CHL1   C25 6541   2.022   6.620   9.157 -0.4919 -0.2802 -0.0904
   55CHL1   H25 6542   1.971   6.523   9.174 -0.4246 -0.1673  0.7944
   55CHL1   C26 6543   1.917   6.700   9.074  0.3773 -0.1641 -0.2114
   55CHL1  H26A 6544   1.970   6.775   9.012  0.3953  0.3230  0.3853
   55CHL1  H26B 6545   1.852   6.653   8.997 -0.0546  0.4735 -0.2452
   55CHL1  H26C 6546   1.844   6.751   9.140 -4.8479 -3.0132 -3.1342
   55CHL1   C27 6547   2.148   6.597   9.069  0.0277  0.3394 -0.4976
   55CHL1  H27A 6548   2.222   6.525   9.110 -0.6322 -0.3056 -0.4108
   55CHL1  H27B 6549   2.114   6.555   8.973  1.0449  1.4176 -1.3565
   55CHL1  H27C 6550   2.203   6.692   9.050  1.1007  0.0051  0.7959
   56CHL1    C3 6551   0.100   0.720  10.449 -0.6483  0.1091  0.0040
   56CHL1    H3 6552   0.197   0.771  10.429 -0.2389 -1.7610 -3.8233
   56CHL1    O3 6553   0.094   0.697  10.588  0.2112 -0.0873  0.2949
   56CHL1   H3' 6554   0.008   0.658  10.606 -0.2220  1.0420  0.7643
   56CHL1    C4 6555  -0.015   0.811  10.401  0.4315 -0.5289 -0.0275
   56CHL1   H4A 6556  -0.111   0.766  10.436 -1.2036  0.8298 -2.4595
   56CHL1   H4B 6557  -0.002   0.903  10.461  0.7802 -0.1155 -0.7334
   56CHL1    C5 6558  -0.023   0.831  10.250 -0.4700  0.2814 -0.0441
   56CHL1    C6 6559  -0.013   0.950  10.197  0.3595 -0.3087 -0.4514
   56CHL1    H6 6560   0.010   1.041  10.255  3.1064 -1.7614  0.9470
   56CHL1    C7 6561  -0.003   0.967  10.048  0.5126  0.2707  0.4993
   56CHL1   H7A 6562  -0.060   1.056  10.012 -1.5086 -1.3655 -0.5266
   56CHL1   H7B 6563   0.101   0.982  10.013  0.1409  2.7945  0.2176
   56CHL1    C8 6564  -0.064   0.853   9.968 -1.5434 -0.2519 -0.1936
   56CHL1    H8 6565  -0.173   0.856   9.989 -1.4324  0.3504  0.3210
   56CHL1   C14 6566  -0.029   0.877   9.815 -0.8025 -0.5334 -0.0616
   56CHL1   H14 6567   0.081   0.886   9.810 -0.8066 -0.9393 -1.2509
   56CHL1   C15 6568  -0.072   1.008   9.744 -0.0234 -0.6817 -0.8204
   56CHL1  H15A 6569  -0.180   1.019   9.770  0.0611 -1.4426 -0.1065
   56CHL1  H15B 6570  -0.038   1.110   9.774 -1.7801  1.4110 -5.0703
   56CHL1   C16 6571  -0.041   0.978   9.592 -0.1030  0.3065 -0.2216
   56CHL1  H16A 6572  -0.130   1.002   9.530  0.0565 -0.1460 -0.6361
   56CHL1  H16B 6573   0.044   1.039   9.557  0.9881 -1.4973 -0.8185
   56CHL1   C17 6574  -0.013   0.827   9.589 -0.1561 -0.3541  0.7212
   56CHL1   H17 6575   0.097   0.823   9.581 -0.0976  1.8082 -0.0523
   56CHL1   C13 6576  -0.056   0.764   9.721 -0.0897  0.7000 -0.0958
   56CHL1   C18 6577  -0.214   0.753   9.710  0.5351 -0.0266 -0.1926
   56CHL1  H18A 6578  -0.261   0.726   9.807 -2.1608 -0.5525 -1.5422
   56CHL1  H18B 6579  -0.267   0.833   9.653  1.6729 -0.3911 -1.8550
   56CHL1  H18C 6580  -0.221   0.659   9.650  2.1738 -0.1276 -0.2786
   56CHL1   C12 6581   0.022   0.640   9.775 -0.1270 -0.2818  0.3407
   56CHL1  H12A 6582   0.003   0.552   9.711 -1.0720 -0.1411  0.4121
   56CHL1  H12B 6583   0.128   0.671   9.764  0.6710 -2.4216  1.3786
   56CHL1   C11 6584  -0.023   0.614   9.914  0.5380  0.5171 -0.7621
   56CHL1  H11A 6585  -0.132   0.592   9.915  0.6030  0.1323  0.9829
   56CHL1  H11B 6586   0.032   0.525   9.952  0.5386 -0.0443 -2.0218
   56CHL1    C9 6587   0.007   0.728  10.014  0.2859 -0.0093  0.0489
   56CHL1    H9 6588   0.115   0.753  10.012 -0.2274  2.4097 -1.2146
   56CHL1   C10 6589  -0.019   0.698  10.165  0.5312 -0.3019  0.7426
   56CHL1   C19 6590  -0.151   0.620  10.177 -0.1553  0.5665  0.7189
   56CHL1  H19A 6591  -0.167   0.574  10.277 -2.9533 -1.5131 -0.5573
   56CHL1  H19B 6592  -0.235   0.691  10.162  1.1853  1.8596 -1.1758
   56CHL1  H19C 6593  -0.167   0.544  10.098 -0.6766  1.5340 -0.1315
   56CHL1    C1 6594   0.101   0.612  10.214 -0.2945  0.0777  0.2153
   56CHL1   H1A 6595   0.103   0.515  10.160  0.5533  0.0394  0.3023
   56CHL1   H1B 6596   0.196   0.659  10.181  0.7445 -1.3355  1.1162
   56CHL1    C2 6597   0.115   0.590  10.368  0.7059  0.1051  0.2792
   56CHL1   H2A 6598   0.209   0.534  10.390 -0.8799 -2.5150  0.8781
   56CHL1   H2B 6599   0.031   0.529  10.408  0.5776  0.3083  0.3218
   56CHL1   C20 6600  -0.063   0.768   9.453  0.6584 -0.1024 -0.1915
   56CHL1   H20 6601  -0.173   0.784   9.452  0.8219  1.1450 -0.2515
   56CHL1   C21 6602  -0.027   0.621   9.440 -0.1771  0.0753 -0.0107
   56CHL1  H21A 6603  -0.067   0.565   9.527 -0.6490 -0.9742 -0.8831
   56CHL1  H21B 6604   0.082   0.603   9.444  0.0489  1.5888  1.9648
   56CHL1  H21C 6605  -0.071   0.582   9.346 -0.2934 -0.6166  0.3271
   56CHL1   C22 6606   0.010   0.851   9.342 -0.6483  0.2739  0.0477
   56CHL1  H22A 6607  -0.008   0.960   9.350 -3.1377 -0.1479  0.9092
   56CHL1  H22B 6608   0.115   0.812   9.340 -0.5987  0.4343 -2.3611
   56CHL1   C23 6609  -0.025   0.815   9.197  0.1023  0.2348  0.3529
   56CHL1  H23A 6610  -0.011   0.707   9.172 -1.1815  0.5156 -1.8583
   56CHL1  H23B 6611  -0.128   0.845   9.170  0.0601  0.1743  0.4466
   56CHL1   C24 6612   0.068   0.882   9.091  0.0061 -0.8682 -0.8156
   56CHL1  H24A 6613   0.090   0.990   9.105 -1.4290 -0.3291 -2.3551
   56CHL1  H24B 6614   0.165   0.833   9.114  0.1084 -0.6104 -0.6904
   56CHL1   C25 6615   0.018   0.860   8.950  0.4356  0.7318 -0.1893
   56CHL1   H25 6616  -0.053   0.775   8.960  0.2256  1.0400  1.1166
   56CHL1   C26 6617  -0.064   0.979   8.907  0.5299 -0.6327 -0.1163
   56CHL1  H26A 6618  -0.130   0.960   8.820 -0.4532  1.5876  0.0911
   56CHL1  H26B 6619  -0.124   1.016   8.993 -0.2259  0.4625 -1.0878
   56CHL1  H26C 6620   0.004   1.063   8.882 -0.1955  0.4126  1.3320
   56CHL1   C27 6621   0.127   0.830   8.848 -0.5381 -0.6097  0.0943
   56CHL1  H27A 6622   0.189   0.756   8.904  0.3523 -0.2327 -0.3733
   56CHL1  H27B 6623   0.084   0.778   8.760  0.7003 -2.2925  0.4326
   56CHL1  H27C 6624   0.184   0.921   8.819 -1.4000  0.6976  2.2745
   57CHL1    C3 6625   4.332   4.347  10.630 -0.1062 -0.0005 -0.5336
   57CHL1    H3 6626   4.363   4.448  10.594  0.4836 -0.1480 -0.4505
   57CHL1    O3 6627   4.323   4.342  10.769 -0.0215  0.2495  0.0510
   57CHL1   H3' 6628   4.280   4.258  10.790  0.8411 -0.1610  0.2191
   57CHL1    C4 6629   4.195   4.312  10.569  0.0909 -1.3007  0.0874
   57CHL1   H4A 6630   4.157   4.215  10.607 -1.0924 -0.0873  2.1627
   57CHL1   H4B 6631   4.119   4.381  10.612  0.7654 -0.1631 -0.5130
   57CHL1    C5 6632   4.200   4.312  10.418  0.6994 -0.6785 -0.4164
   57CHL1    C6 6633   4.117   4.393  10.346  0.7460 -0.1243  0.4379
   57CHL1    H6 6634   4.038   4.454  10.392  1.6252  0.8940  0.6689
   57CHL1    C7 6635   4.129   4.414  10.198  0.4261  0.0662  1.0355
   57CHL1   H7A 6636   4.029   4.417  10.148 -0.3234  1.2266  2.5309
   57CHL1   H7B 6637   4.179   4.511  10.177 -0.8774  0.8296  1.3574
   57CHL1    C8 6638   4.206   4.300  10.131 -0.5615  0.6269  0.3309
   57CHL1    H8 6639   4.144   4.208  10.123 -1.4231  1.2899 -0.8037
   57CHL1   C14 6640   4.239   4.333   9.982  0.6988 -0.2631  1.0221
   57CHL1   H14 6641   4.312   4.417   9.981  0.7916 -0.3534  0.1379
   57CHL1   C15 6642   4.119   4.387   9.898  0.2180 -0.9501 -0.5188
   57CHL1  H15A 6643   4.029   4.322   9.904 -1.0719  0.8986  1.7898
   57CHL1  H15B 6644   4.076   4.488   9.917  2.0560 -0.1047 -0.6215
   57CHL1   C16 6645   4.177   4.395   9.755 -0.0240  0.6867 -0.0350
   57CHL1  H16A 6646   4.115   4.328   9.692 -1.3487  1.0075  0.8959
   57CHL1  H16B 6647   4.191   4.489   9.698  0.5717 -0.6778 -2.2364
   57CHL1   C17 6648   4.326   4.325   9.770  0.2321 -0.0676  0.0483
   57CHL1   H17 6649   4.392   4.412   9.786 -0.1821 -0.3790  5.1242
   57CHL1   C13 6650   4.327   4.248   9.897  0.6352  0.9066  0.0226
   57CHL1   C18 6651   4.258   4.116   9.873 -0.2947 -0.8178 -0.6377
   57CHL1  H18A 6652   4.179   4.113   9.795  0.5472 -1.5180 -1.4937
   57CHL1  H18B 6653   4.333   4.041   9.839 -0.6036 -0.5766 -1.9068
   57CHL1  H18C 6654   4.204   4.072   9.960  0.2357 -0.6111 -0.1997
   57CHL1   C12 6655   4.459   4.228   9.973  0.1328 -0.5196  0.3313
   57CHL1  H12A 6656   4.529   4.160   9.920  0.1515  0.0369 -0.3656
   57CHL1  H12B 6657   4.501   4.331   9.974  1.8663 -1.1992  0.3891
   57CHL1   C11 6658   4.436   4.187  10.114  0.0320  0.4127 -0.4738
   57CHL1  H11A 6659   4.388   4.086  10.117  2.0000 -0.5624 -0.3240
   57CHL1  H11B 6660   4.530   4.178  10.173 -0.6084  3.6501  1.2625
   57CHL1    C9 6661   4.337   4.273  10.202 -0.1290 -0.3171  0.1896
   57CHL1    H9 6662   4.389   4.370  10.215  1.9794 -1.3706 -0.0464
   57CHL1   C10 6663   4.314   4.235  10.352 -0.1123 -0.3679 -0.6556
   57CHL1   C19 6664   4.256   4.088  10.363  0.2473  0.5748 -0.0308
   57CHL1  H19A 6665   4.248   4.065  10.472  0.8538 -3.7195 -0.7159
   57CHL1  H19B 6666   4.157   4.082  10.314  0.5581  1.0840 -0.7262
   57CHL1  H19C 6667   4.331   4.016  10.323  1.2982 -0.0563  2.7841
   57CHL1    C1 6668   4.457   4.260  10.426  0.5200  0.3771  1.4842
   57CHL1   H1A 6669   4.538   4.195  10.387 -0.0402  2.1022 -3.2390
   57CHL1   H1B 6670   4.491   4.365  10.415 -2.6126  1.4142  0.5807
   57CHL1    C2 6671   4.435   4.248  10.581  0.2601 -0.1253  0.1202
   57CHL1   H2A 6672   4.527   4.278  10.636 -0.7032  0.7063  1.3322
   57CHL1   H2B 6673   4.407   4.144  10.606  1.3622 -0.9368 -1.8042
   57CHL1   C20 6674   4.369   4.249   9.646 -0.6189  0.1054  0.0523
   57CHL1   H20 6675   4.303   4.163   9.621 -1.3750  0.9855 -1.0441
   57CHL1   C21 6676   4.520   4.203   9.662  0.6464 -0.5378  0.6557
   57CHL1  H21A 6677   4.527   4.113   9.726  1.1154 -0.8001  0.2385
   57CHL1  H21B 6678   4.573   4.285   9.716  0.5881  0.0341 -0.1342
   57CHL1  H21C 6679   4.557   4.170   9.563  1.6666 -2.5153  1.6490
   57CHL1   C22 6680   4.356   4.333   9.521  0.6036 -0.5603 -0.0487
   57CHL1  H22A 6681   4.260   4.386   9.507  0.9842  0.2515  0.3677
   57CHL1  H22B 6682   4.430   4.416   9.523  0.7832 -0.7224  0.2305
   57CHL1   C23 6683   4.372   4.269   9.388  0.0400 -0.1353  0.1980
   57CHL1  H23A 6684   4.458   4.198   9.390  2.2183  2.3758  0.8921
   57CHL1  H23B 6685   4.280   4.208   9.371 -0.3309  0.6007 -0.4785
   57CHL1   C24 6686   4.391   4.357   9.260  0.4826  0.9507 -0.0708
   57CHL1  H24A 6687   4.335   4.453   9.264 -0.2204  0.6925 -2.3074
   57CHL1  H24B 6688   4.499   4.380   9.253  0.9882 -1.0847  0.3586
   57CHL1   C25 6689   4.378   4.276   9.125  0.3584  0.4189  0.2295
   57CHL1   H25 6690   4.427   4.176   9.128 -2.3054 -1.0009  2.4719
   57CHL1   C26 6691   4.233   4.232   9.092 -0.0304 -0.2521 -0.3080
   57CHL1  H26A 6692   4.177   4.328   9.082 -0.0035 -0.0074  1.5969
   57CHL1  H26B 6693   4.228   4.172   8.999 -2.0767  1.8334 -1.6706
   57CHL1  H26C 6694   4.182   4.171   9.169  2.5131 -1.7939  0.2560
   57CHL1   C27 6695   4.442   4.344   9.002 -0.1999  0.7364 -0.8250
   57CHL1  H27A 6696   4.552   4.333   8.997 -0.2245 -0.2510  0.3448
   57CHL1  H27B 6697   4.400   4.310   8.905  0.2598  0.4934 -0.9422
   57CHL1  H27C 6698   4.419   4.452   8.998 -0.2661  0.6862 -2.4485
   58CHL1    C3 6699   4.869   1.233  10.559  0.1894 -0.2734  0.4708
   58CHL1    H3 6700   4.763   1.202  10.542 -0.9427  1.8195  2.9242
   58CHL1    O3 6701   4.888   1.275  10.694  0.0900  0.2518  0.3394
   58CHL1   H3' 6702   4.982   1.295  10.693  0.4484 -1.2204 -1.1172
   58CHL1    C4 6703   4.980   1.122  10.524  0.9281  0.0244  0.2161
   58CHL1   H4A 6704   5.075   1.156  10.570  0.8933 -1.4847  1.4987
   58CHL1   H4B 6705   4.945   1.033  10.580 -1.9409  0.1778 -1.1657
   58CHL1    C5 6706   5.000   1.084  10.378 -0.4089  0.4513 -0.5095
   58CHL1    C6 6707   5.001   0.956  10.336 -0.3038 -0.5525  0.1736
   58CHL1    H6 6708   4.988   0.872  10.405 -2.5198 -2.1942 -2.0381
   58CHL1    C7 6709   5.012   0.922  10.189  0.2487  0.7775  0.4902
   58CHL1   H7A 6710   5.072   0.830  10.173  1.8242  1.7071  0.7962
   58CHL1   H7B 6711   4.909   0.895  10.155  0.1616 -1.1108  2.0755
   58CHL1    C8 6712   5.064   1.031  10.093 -0.0144 -0.1618 -0.0129
   58CHL1    H8 6713   5.172   1.057  10.096  0.0502 -0.4904  1.0556
   58CHL1   C14 6714   5.027   0.995   9.949 -0.2710 -0.4715  0.5382
   58CHL1   H14 6715   4.916   0.988   9.950 -0.2600 -0.7071  0.2231
   58CHL1   C15 6716   5.072   0.859   9.893  0.3295 -0.1337  1.1177
   58CHL1  H15A 6717   5.164   0.815   9.937 -0.4875 -0.8903  2.1213
   58CHL1  H15B 6718   4.994   0.783   9.915 -0.6527  0.5382  0.0631
   58CHL1   C16 6719   5.073   0.879   9.745 -0.7318 -0.6994 -0.1007
   58CHL1  H16A 6720   5.169   0.877   9.688 -0.6061  2.1392 -0.1372
   58CHL1  H16B 6721   5.016   0.801   9.689  0.8873 -0.7112 -1.8650
   58CHL1   C17 6722   5.016   1.021   9.726  0.0622  0.5025 -0.4244
   58CHL1   H17 6723   4.907   1.000   9.735  0.1555  0.1163 -0.1598
   58CHL1   C13 6724   5.064   1.102   9.850 -0.4245  0.3369  0.1206
   58CHL1   C18 6725   5.218   1.128   9.833 -0.3346 -0.4186  0.2882
   58CHL1  H18A 6726   5.255   1.184   9.922  1.9058 -1.1963 -0.0928
   58CHL1  H18B 6727   5.282   1.037   9.833  0.5034  0.1006 -2.0715
   58CHL1  H18C 6728   5.230   1.192   9.743  0.1392 -1.1821 -0.2088
   58CHL1   C12 6729   4.986   1.229   9.885 -0.0830  0.1236 -0.0375
   58CHL1  H12A 6730   5.007   1.312   9.815 -0.1257  1.1027  1.0758
   58CHL1  H12B 6731   4.877   1.217   9.865  0.3842 -0.7820 -2.3196
   58CHL1   C11 6732   5.009   1.280  10.030  0.2459 -0.1158  0.1687
   58CHL1  H11A 6733   5.119   1.295  10.042  0.1046 -0.0196  1.4907
   58CHL1  H11B 6734   4.960   1.377  10.051  1.5744  0.1280  2.4598
   58CHL1    C9 6735   4.989   1.167  10.133 -0.0750  0.1922 -0.7690
   58CHL1    H9 6736   4.883   1.142  10.111 -0.0660 -0.3483 -0.2415
   58CHL1   C10 6737   5.009   1.203  10.282 -0.4053 -0.7652  0.1541
   58CHL1   C19 6738   5.141   1.275  10.296  0.4098 -0.3370 -0.7444
   58CHL1  H19A 6739   5.225   1.211  10.261  1.1938 -0.6172  1.4480
   58CHL1  H19B 6740   5.129   1.369  10.239 -1.0078  1.4316  2.2468
   58CHL1  H19C 6741   5.157   1.292  10.405  0.6502  0.7166 -0.9367
   58CHL1    C1 6742   4.892   1.302  10.324  0.4868 -0.6403  0.0107
   58CHL1   H1A 6743   4.899   1.386  10.252 -0.9205  1.3798  2.0834
   58CHL1   H1B 6744   4.796   1.249  10.301  1.4473 -2.1613 -0.6435
   58CHL1    C2 6745   4.899   1.352  10.464  0.2127 -0.5780 -0.0516
   58CHL1   H2A 6746   4.822   1.429  10.488  0.8868 -0.6774  2.8182
   58CHL1   H2B 6747   4.999   1.396  10.484  0.3671 -0.5071 -0.9237
   58CHL1   C20 6748   5.040   1.068   9.578 -0.0947  0.5799  0.3838
   58CHL1   H20 6749   5.148   1.092   9.567  0.5287 -2.2222 -0.2797
   58CHL1   C21 6750   4.962   1.197   9.553 -0.1367 -0.4398  0.3527
   58CHL1  H21A 6751   5.011   1.281   9.605 -1.1709 -1.0130  2.3465
   58CHL1  H21B 6752   4.855   1.199   9.581 -0.5564  3.1416 -0.9137
   58CHL1  H21C 6753   4.966   1.236   9.449 -1.8315  1.5579  0.9721
   58CHL1   C22 6754   5.016   0.955   9.477  0.1436 -0.1312 -0.1011
   58CHL1  H22A 6755   5.086   0.870   9.481  1.0552  0.6163  0.2206
   58CHL1  H22B 6756   4.913   0.920   9.502  0.4824  0.3354  2.1766
   58CHL1   C23 6757   5.009   0.997   9.323  0.0439  0.4379 -0.0606
   58CHL1  H23A 6758   4.984   0.905   9.266 -1.3409 -0.6755  2.2091
   58CHL1  H23B 6759   4.929   1.073   9.310  1.0096  1.3017 -1.2286
   58CHL1   C24 6760   5.139   1.061   9.271  0.7938  0.5180 -0.1658
   58CHL1  H24A 6761   5.146   1.160   9.320 -0.0368  1.0067 -1.0118
   58CHL1  H24B 6762   5.230   0.997   9.280  0.0522 -0.5285  0.1903
   58CHL1   C25 6763   5.125   1.092   9.115  0.6308 -0.0763 -0.1580
   58CHL1   H25 6764   5.025   1.135   9.098  0.9411 -0.1095 -2.3766
   58CHL1   C26 6765   5.215   1.202   9.074  0.5935 -0.4261  0.4055
   58CHL1  H26A 6766   5.322   1.175   9.092  1.3572  1.9345 -0.3377
   58CHL1  H26B 6767   5.202   1.227   8.967 -2.5527  1.0287  1.0307
   58CHL1  H26C 6768   5.181   1.292   9.129 -1.7557  0.3572 -2.1184
   58CHL1   C27 6769   5.144   0.967   9.027  0.6540  0.4040 -0.2296
   58CHL1  H27A 6770   5.063   0.892   9.032  1.1313 -0.0223  1.8739
   58CHL1  H27B 6771   5.162   0.999   8.922  0.4788  2.0721  0.2186
   58CHL1  H27C 6772   5.233   0.915   9.066 -0.8537 -0.9088  1.6463
   59CHL1    C3 6773   3.915   1.961  10.747  0.1700  0.4317 -0.2813
   59CHL1    H3 6774   3.860   1.873  10.709  1.8176 -0.6413 -0.2493
   59CHL1    O3 6775   3.929   1.954  10.891 -0.1279 -0.7154  0.0999
   59CHL1   H3' 6776   3.976   2.034  10.914  0.2842 -0.6747 -0.8219
   59CHL1    C4 6777   4.064   1.960  10.686  0.9867 -0.4475  0.4471
   59CHL1   H4A 6778   4.122   2.041  10.737  0.8255 -0.0722  0.0403
   59CHL1   H4B 6779   4.105   1.860  10.712  0.3341 -0.5169  1.2743
   59CHL1    C5 6780   4.045   1.990  10.535  0.3579  0.9006  0.5057
   59CHL1    C6 6781   4.114   1.913  10.450  0.1009 -0.2998 -0.3636
   59CHL1    H6 6782   4.176   1.835  10.497 -0.7046  0.8248  2.8228
   59CHL1    C7 6783   4.103   1.931  10.300 -0.4184 -0.3956 -0.1223
   59CHL1   H7A 6784   4.198   1.904  10.248  0.1323  0.2708  0.5132
   59CHL1   H7B 6785   4.035   1.854  10.257  0.8965 -1.0702 -1.0580
   59CHL1    C8 6786   4.054   2.067  10.262  0.8039 -0.3694  0.1290
   59CHL1    H8 6787   4.134   2.138  10.294 -0.7245  0.3550  2.6047
   59CHL1   C14 6788   4.034   2.065  10.107  0.0994 -0.4043  0.3914
   59CHL1   H14 6789   3.970   1.976  10.087 -0.5454 -0.7712  3.5446
   59CHL1   C15 6790   4.143   2.033  10.006 -0.0535  0.2126  0.5147
   59CHL1  H15A 6791   4.232   2.093  10.036  0.2610 -0.4450  0.9144
   59CHL1  H15B 6792   4.191   1.934   9.994  1.1778  1.0710 -2.6756
   59CHL1   C16 6793   4.085   2.078   9.877 -0.2604  0.4195 -0.4402
   59CHL1  H16A 6794   4.166   2.120   9.813 -0.2108  2.5092  0.9279
   59CHL1  H16B 6795   4.041   1.994   9.819 -0.8768  0.8746 -0.6406
   59CHL1   C17 6796   3.966   2.168   9.903 -0.1105  0.0746 -0.2249
   59CHL1   H17 6797   3.877   2.106   9.880 -0.1366 -0.4315  1.1684
   59CHL1   C13 6798   3.973   2.195  10.053 -0.0399 -0.0461 -0.0315
   59CHL1   C18 6799   4.068   2.310  10.091 -0.7357 -0.2320 -0.2712
   59CHL1  H18A 6800   4.106   2.318  10.195  1.9034 -0.0803 -1.1600
   59CHL1  H18B 6801   4.162   2.310  10.031  0.0026  1.3351  0.8230
   59CHL1  H18C 6802   4.030   2.410  10.061 -1.7615 -0.4624  0.2267
   59CHL1   C12 6803   3.832   2.207  10.129  0.5259 -0.0817 -0.4412
   59CHL1  H12A 6804   3.768   2.291  10.097  1.9284  1.5119  0.7224
   59CHL1  H12B 6805   3.776   2.115  10.106 -1.1705  0.5706  0.8996
   59CHL1   C11 6806   3.848   2.223  10.285  0.7773  0.1612  0.0518
   59CHL1  H11A 6807   3.899   2.319  10.308  3.4219 -0.8174 -1.2490
   59CHL1  H11B 6808   3.751   2.232  10.338  0.1643  0.5678 -1.1060
   59CHL1    C9 6809   3.929   2.102  10.340  0.0403 -0.8237  0.3746
   59CHL1    H9 6810   3.863   2.018  10.307 -1.2136  0.8504 -1.6548
   59CHL1   C10 6811   3.943   2.098  10.495  0.1658 -0.9170 -1.0347
   59CHL1   C19 6812   4.013   2.230  10.534  0.1207  0.3660 -0.2991
   59CHL1  H19A 6813   4.103   2.241  10.469  2.6091  0.8326  2.9555
   59CHL1  H19B 6814   3.947   2.317  10.510  0.3680 -0.0383 -2.6675
   59CHL1  H19C 6815   4.030   2.229  10.644 -1.3666 -3.2920  0.0460
   59CHL1    C1 6816   3.800   2.097  10.561 -0.2533 -0.1072 -0.2583
   59CHL1   H1A 6817   3.744   2.191  10.543 -2.2046 -0.7563  2.0258
   59CHL1   H1B 6818   3.736   2.016  10.522  1.8950 -1.5661 -0.9734
   59CHL1    C2 6819   3.820   2.077  10.713  0.1129 -0.4768  0.7560
   59CHL1   H2A 6820   3.715   2.057  10.745  0.2770 -1.3168  0.8092
   59CHL1   H2B 6821   3.859   2.169  10.761 -2.1122 -0.4046  2.5842
   59CHL1   C20 6822   3.960   2.288   9.802  0.1044  0.1189  0.8046
   59CHL1   H20 6823   4.055   2.345   9.800 -0.7610  1.5991 -0.2956
   59CHL1   C21 6824   3.852   2.392   9.840  0.5385  0.2421 -0.5120
   59CHL1  H21A 6825   3.873   2.431   9.943  0.3933  0.2111 -0.4714
   59CHL1  H21B 6826   3.751   2.348   9.833 -0.5225  2.0072  1.9630
   59CHL1  H21C 6827   3.855   2.478   9.770  1.4211  0.2593 -0.4650
   59CHL1   C22 6828   3.928   2.240   9.660  0.1428  0.2818  0.4265
   59CHL1  H22A 6829   3.971   2.139   9.647  0.5187  0.2793  1.6527
   59CHL1  H22B 6830   3.818   2.227   9.654 -0.3125  2.6699  2.1071
   59CHL1   C23 6831   3.961   2.338   9.553  0.7459  0.0568 -0.2982
   59CHL1  H23A 6832   3.908   2.435   9.566  0.2797 -0.0780 -1.1280
   59CHL1  H23B 6833   4.071   2.345   9.563  1.1507 -3.5354 -1.0094
   59CHL1   C24 6834   3.916   2.285   9.420  0.0733 -0.4103  0.1403
   59CHL1  H24A 6835   3.991   2.210   9.386  1.6610  0.6197  1.2419
   59CHL1  H24B 6836   3.821   2.230   9.432 -1.6132  2.0415 -1.0852
   59CHL1   C25 6837   3.903   2.395   9.314 -0.0106  0.7732 -0.0320
   59CHL1   H25 6838   3.843   2.479   9.356 -0.6819  0.8732 -1.1689
   59CHL1   C26 6839   4.043   2.458   9.285  0.4691  0.5606  0.2338
   59CHL1  H26A 6840   4.045   2.528   9.199 -1.5488  2.6758  1.7852
   59CHL1  H26B 6841   4.071   2.515   9.376  0.8451 -0.6519  0.8943
   59CHL1  H26C 6842   4.114   2.375   9.265 -1.5502 -1.4835  1.1005
   59CHL1   C27 6843   3.828   2.346   9.191 -0.0716 -0.2191  0.2164
   59CHL1  H27A 6844   3.875   2.257   9.144  2.1529  1.7869 -1.6162
   59CHL1  H27B 6845   3.718   2.344   9.206 -0.1680  0.2313 -0.3619
   59CHL1  H27C 6846   3.836   2.423   9.111 -2.2466 -0.9494 -0.8038
   60CHL1    C3 6847   4.999   5.652  10.316 -0.4358  0.2192 -0.5163
   60CHL1    H3 6848   5.081   5.585  10.283 -0.3912 -0.4315  0.8738
   60CHL1    O3 6849   5.011   5.671  10.460  0.2276 -0.1136  0.0933
   60CHL1   H3' 6850   4.948   5.738  10.488  1.1855 -0.3043  3.0461
   60CHL1    C4 6851   5.014   5.783  10.241  0.2423  0.1574  0.1233
   60CHL1   H4A 6852   4.940   5.858  10.277 -1.2446 -1.3291  0.3036
   60CHL1   H4B 6853   5.113   5.821  10.272  0.6888 -0.8902  0.0081
   60CHL1    C5 6854   5.001   5.784  10.089  0.3026  0.5867 -0.3364
   60CHL1    C6 6855   5.094   5.829  10.009 -0.3480  0.4326  0.5046
   60CHL1    H6 6856   5.180   5.886  10.048  0.0320  0.2353 -0.0408
   60CHL1    C7 6857   5.088   5.831   9.858  0.2605 -0.5011  0.4582
   60CHL1   H7A 6858   5.111   5.930   9.813 -1.7555 -1.1407 -2.2397
   60CHL1   H7B 6859   5.158   5.754   9.820  2.2069  2.3742 -2.2649
   60CHL1    C8 6860   4.941   5.788   9.806 -0.6742 -0.0904  1.2151
   60CHL1    H8 6861   4.880   5.880   9.812  0.5753  0.7467  1.5604
   60CHL1   C14 6862   4.946   5.750   9.658 -0.6374 -0.1033 -0.1226
   60CHL1   H14 6863   5.000   5.654   9.643 -1.5312 -0.3372 -2.0728
   60CHL1   C15 6864   5.004   5.856   9.567  0.1479 -0.6370  0.1627
   60CHL1  H15A 6865   4.981   5.958   9.603  1.9317 -0.3519  0.6127
   60CHL1  H15B 6866   5.115   5.855   9.573  0.1236 -0.5388  0.8065
   60CHL1   C16 6867   4.960   5.816   9.425  0.8492 -0.5312 -0.2694
   60CHL1  H16A 6868   4.924   5.908   9.372 -2.2776 -0.9362  0.9501
   60CHL1  H16B 6869   5.042   5.771   9.366  2.3189  0.6703  0.7731
   60CHL1   C17 6870   4.843   5.715   9.445  0.2355  0.4772 -1.0424
   60CHL1   H17 6871   4.882   5.611   9.445 -1.2063 -0.1967  2.2416
   60CHL1   C13 6872   4.812   5.724   9.595  0.2460  0.1606 -0.6603
   60CHL1   C18 6873   4.710   5.837   9.622  0.8721 -0.2828  0.7299
   60CHL1  H18A 6874   4.752   5.926   9.572  0.1546 -0.6980 -0.6767
   60CHL1  H18B 6875   4.609   5.827   9.578  0.2104 -0.1248  2.1416
   60CHL1  H18C 6876   4.691   5.866   9.728  2.2913 -0.3095  1.0075
   60CHL1   C12 6877   4.753   5.596   9.664 -0.6698  0.7714 -0.3421
   60CHL1  H12A 6878   4.659   5.562   9.617  0.1761 -2.8810  0.3319
   60CHL1  H12B 6879   4.825   5.514   9.643 -1.6315 -0.2354  0.2364
   60CHL1   C11 6880   4.754   5.610   9.823 -0.5148 -0.0313 -0.1655
   60CHL1  H11A 6881   4.663   5.673   9.840  0.2900  1.7579 -2.0205
   60CHL1  H11B 6882   4.733   5.515   9.875 -0.4607  1.2318  2.3078
   60CHL1    C9 6883   4.885   5.677   9.886  0.0687  0.4245  0.2285
   60CHL1    H9 6884   4.960   5.596   9.877 -0.1870 -0.2118  3.0289
   60CHL1   C10 6885   4.885   5.706  10.040  0.6259  0.5807 -0.1328
   60CHL1   C19 6886   4.770   5.802  10.059 -0.0298 -0.1993 -0.0354
   60CHL1  H19A 6887   4.782   5.896  10.001  1.3503 -0.2855  0.0723
   60CHL1  H19B 6888   4.673   5.771  10.016 -0.7952  0.6310  1.0103
   60CHL1  H19C 6889   4.750   5.830  10.165  1.9478 -0.2731  0.4091
   60CHL1    C1 6890   4.865   5.573  10.121 -0.1123  0.0103  0.3294
   60CHL1   H1A 6891   4.764   5.534  10.097 -1.5857  2.6237  1.7655
   60CHL1   H1B 6892   4.945   5.503  10.090  1.2765  0.9781  1.5498
   60CHL1    C2 6893   4.867   5.589  10.277  0.2336 -0.6258 -0.1867
   60CHL1   H2A 6894   4.862   5.488  10.323  0.1413 -1.3131 -1.6573
   60CHL1   H2B 6895   4.785   5.651  10.317 -1.3992 -3.1301  0.5533
   60CHL1   C20 6896   4.721   5.723   9.347 -0.3434 -0.4280  0.2056
   60CHL1   H20 6897   4.633   5.677   9.396 -0.1645 -1.1654 -0.1372
   60CHL1   C21 6898   4.757   5.631   9.221  0.3771  0.7066 -0.0456
   60CHL1  H21A 6899   4.682   5.642   9.140  1.7038  0.0067 -1.4074
   60CHL1  H21B 6900   4.762   5.523   9.246 -0.8471  0.6879  0.1650
   60CHL1  H21C 6901   4.847   5.665   9.166  0.2060  0.6204 -0.3795
   60CHL1   C22 6902   4.673   5.864   9.297  0.4158 -0.3866 -0.1683
   60CHL1  H22A 6903   4.687   5.947   9.370 -1.5556 -1.0035  0.9957
   60CHL1  H22B 6904   4.734   5.890   9.208 -1.5109  0.7400 -1.2388
   60CHL1   C23 6905   4.528   5.867   9.241 -0.3530  0.3071  0.8938
   60CHL1  H23A 6906   4.527   5.972   9.205 -1.4530  0.2339  0.6796
   60CHL1  H23B 6907   4.532   5.789   9.163  3.6699 -0.1108  1.2633
   60CHL1   C24 6908   4.414   5.841   9.334 -0.0166 -0.4944 -0.6994
   60CHL1  H24A 6909   4.429   5.741   9.381 -1.6659 -1.1586 -1.5144
   60CHL1  H24B 6910   4.413   5.909   9.421 -1.2237 -1.9723  0.4892
   60CHL1   C25 6911   4.273   5.845   9.269  0.1321  0.5604 -0.1452
   60CHL1   H25 6912   4.279   5.931   9.199  1.9800 -0.2738 -1.0732
   60CHL1   C26 6913   4.238   5.731   9.182 -0.4312  0.6917  0.0526
   60CHL1  H26A 6914   4.131   5.734   9.152 -0.0528  0.9545 -1.3114
   60CHL1  H26B 6915   4.292   5.739   9.085  1.4442  0.7304  1.0553
   60CHL1  H26C 6916   4.277   5.638   9.230  2.2954  0.9170 -1.5015
   60CHL1   C27 6917   4.169   5.857   9.384  0.2265 -0.7376 -0.2216
   60CHL1  H27A 6918   4.186   5.956   9.430 -0.6140 -1.4904  1.8283
   60CHL1  H27B 6919   4.064   5.851   9.348 -0.1155 -0.6848  0.7478
   60CHL1  H27C 6920   4.186   5.784   9.467 -2.3394  1.9959  2.9965
   61CHL1    C3 6921   2.685   0.658  10.315 -0.7605 -0.0059  0.4301
   61CHL1    H3 6922   2.582   0.642  10.276 -0.6049  0.2068 -0.0796
   61CHL1    O3 6923   2.665   0.667  10.459  0.7794 -0.8128 -0.5173
   61CHL1   H3' 6924   2.669   0.761  10.480 -0.1305 -0.9185  0.1446
   61CHL1    C4 6925   2.773   0.530  10.286  0.8377  0.1938  0.2806
   61CHL1   H4A 6926   2.865   0.559  10.341  1.7130  0.8916 -1.4711
   61CHL1   H4B 6927   2.736   0.438  10.337 -0.0583  1.3665  1.8193
   61CHL1    C5 6928   2.798   0.511  10.135  0.0592  0.7747  0.0096
   61CHL1    C6 6929   2.779   0.390  10.082 -0.1616  0.2195  0.4912
   61CHL1    H6 6930   2.750   0.305  10.146  0.5388 -0.5913 -0.2492
   61CHL1    C7 6931   2.803   0.350   9.937 -0.7553 -0.6474  0.1513
   61CHL1   H7A 6932   2.859   0.255   9.922  1.0627  0.3847  0.0788
   61CHL1   H7B 6933   2.699   0.357   9.899 -1.0288  0.7928  1.0872
   61CHL1    C8 6934   2.857   0.466   9.856 -0.8756  0.0618 -0.4674
   61CHL1    H8 6935   2.968   0.474   9.866 -0.8721  0.3520 -0.7333
   61CHL1   C14 6936   2.825   0.436   9.713  0.0039 -0.2578  0.2483
   61CHL1   H14 6937   2.714   0.441   9.711 -0.0116  1.3072  2.1596
   61CHL1   C15 6938   2.860   0.295   9.658  0.2697 -0.5446  0.0690
   61CHL1  H15A 6939   2.959   0.267   9.701  0.3585 -0.6912 -0.2316
   61CHL1  H15B 6940   2.792   0.214   9.690  0.1975 -0.7763 -0.6540
   61CHL1   C16 6941   2.868   0.314   9.503 -0.9886 -0.2268  0.3542
   61CHL1  H16A 6942   2.953   0.267   9.449 -1.2365 -0.0295 -0.2134
   61CHL1  H16B 6943   2.774   0.262   9.474 -1.1364 -0.3394  1.0238
   61CHL1   C17 6944   2.856   0.467   9.480 -0.4819 -0.2068 -0.1793
   61CHL1   H17 6945   2.747   0.485   9.468 -0.5777  0.1275  1.0731
   61CHL1   C13 6946   2.892   0.541   9.614 -0.3023  0.1704  0.4812
   61CHL1   C18 6947   3.050   0.540   9.627  0.0304  0.2861  0.0834
   61CHL1  H18A 6948   3.077   0.563   9.732 -1.5945  0.1331  0.5554
   61CHL1  H18B 6949   3.094   0.440   9.605 -2.2348 -0.1629 -3.0036
   61CHL1  H18C 6950   3.098   0.623   9.571  0.2812 -0.3013 -0.5977
   61CHL1   C12 6951   2.825   0.674   9.657  0.7848 -0.5093  0.0011
   61CHL1  H12A 6952   2.861   0.755   9.590  1.4596  0.3183  1.3238
   61CHL1  H12B 6953   2.716   0.673   9.633  0.8842 -1.6813 -0.4861
   61CHL1   C11 6954   2.864   0.712   9.803  0.6262  0.8655 -0.6954
   61CHL1  H11A 6955   2.974   0.725   9.811  0.6137  0.2113  0.8228
   61CHL1  H11B 6956   2.815   0.810   9.819  0.3148  0.8408 -1.4787
   61CHL1    C9 6957   2.806   0.602   9.902 -0.9392  0.1804  0.5930
   61CHL1    H9 6958   2.698   0.590   9.883 -0.9747  0.0878  0.8552
   61CHL1   C10 6959   2.837   0.630  10.047  0.3651  0.6331 -0.6760
   61CHL1   C19 6960   2.978   0.672  10.081  0.3523  0.4439 -0.0819
   61CHL1  H19A 6961   3.052   0.598  10.043 -1.1655 -0.7399 -0.8517
   61CHL1  H19B 6962   2.987   0.772  10.034 -1.7114 -0.4931 -2.7030
   61CHL1  H19C 6963   3.007   0.679  10.188  1.4443  2.6573 -0.4801
   61CHL1    C1 6964   2.747   0.748  10.099 -1.1209 -0.2804 -0.3602
   61CHL1   H1A 6965   2.781   0.839  10.044 -2.0738 -0.4179 -1.1970
   61CHL1   H1B 6966   2.640   0.734  10.074 -2.5121 -0.2504  4.4522
   61CHL1    C2 6967   2.749   0.771  10.250  0.1983 -0.7296  0.1141
   61CHL1   H2A 6968   2.692   0.861  10.279  2.1244  0.3816  0.6103
   61CHL1   H2B 6969   2.850   0.777  10.296  0.1586 -1.3631  0.2930
   61CHL1   C20 6970   2.929   0.513   9.355 -0.1890 -0.2558  0.4383
   61CHL1   H20 6971   3.037   0.490   9.357  0.0856  0.8112 -0.6513
   61CHL1   C21 6972   2.915   0.670   9.332 -0.1279 -0.2858 -0.2939
   61CHL1  H21A 6973   2.973   0.710   9.246  1.4171  0.8405  1.1955
   61CHL1  H21B 6974   2.960   0.722   9.420 -0.5099 -0.6734  0.1366
   61CHL1  H21C 6975   2.808   0.697   9.325 -0.1117 -0.2660 -0.4579
   61CHL1   C22 6976   2.864   0.441   9.238 -0.6939  0.5573  0.7389
   61CHL1  H22A 6977   2.846   0.334   9.265  0.0007  0.4450  0.7707
   61CHL1  H22B 6978   2.765   0.485   9.215 -0.8015 -0.2730 -0.4667
   61CHL1   C23 6979   2.970   0.437   9.126  1.2725  0.3356 -0.5054
   61CHL1  H23A 6980   3.026   0.533   9.122  2.5206 -0.3501 -0.1033
   61CHL1  H23B 6981   3.046   0.358   9.147  2.5001  1.3291 -1.0666
   61CHL1   C24 6982   2.915   0.393   8.994  0.3655 -0.2935  0.2123
   61CHL1  H24A 6983   2.842   0.310   8.993 -0.1118  0.1205  0.3708
   61CHL1  H24B 6984   2.855   0.474   8.948 -1.1605 -1.2820  0.3860
   61CHL1   C25 6985   3.036   0.361   8.893 -0.2112  0.1412  0.4912
   61CHL1   H25 6986   3.095   0.281   8.944  0.2590 -1.0367 -1.7638
   61CHL1   C26 6987   2.990   0.310   8.757 -0.0280  0.5266 -0.9690
   61CHL1  H26A 6988   2.920   0.378   8.704  0.5050  0.5735 -1.6231
   61CHL1  H26B 6989   3.065   0.266   8.687  0.1046 -0.4572 -0.2262
   61CHL1  H26C 6990   2.927   0.221   8.778 -1.6045  1.9942  0.8776
   61CHL1   C27 6991   3.133   0.485   8.875 -0.7916 -0.1454 -0.3744
   61CHL1  H27A 6992   3.066   0.566   8.838 -2.6530 -0.9115  1.1206
   61CHL1  H27B 6993   3.178   0.502   8.975 -0.7067 -1.0278 -0.2537
   61CHL1  H27C 6994   3.216   0.468   8.804  0.2061  1.1332  0.4553
   62CHL1    C3 6995   2.600   5.498  10.379 -0.3453  0.3441 -0.1416
   62CHL1    H3 6996   2.707   5.476  10.402 -0.0922  0.2723 -1.3481
   62CHL1    O3 6997   2.540   5.521  10.502  0.1708 -0.7408 -0.7511
   62CHL1   H3' 6998   2.446   5.532  10.485 -0.2486 -0.3756  1.5489
   62CHL1    C4 6999   2.613   5.627  10.291 -0.3651 -0.3562  0.2552
   62CHL1   H4A 7000   2.518   5.683  10.305  0.4656  1.1678 -0.0131
   62CHL1   H4B 7001   2.692   5.689  10.339 -0.5237 -0.2704  0.4063
   62CHL1    C5 7002   2.643   5.600  10.149 -0.9158 -0.4164 -0.0521
   62CHL1    C6 7003   2.735   5.679  10.091  0.1920 -0.6945 -0.2439
   62CHL1    H6 7004   2.797   5.748  10.149 -0.9049 -0.3648  0.5590
   62CHL1    C7 7005   2.763   5.671   9.939  0.1280 -0.1319 -0.1373
   62CHL1   H7A 7006   2.782   5.770   9.892 -0.1192  0.0797  0.2146
   62CHL1   H7B 7007   2.863   5.622   9.931 -0.2862 -0.6832 -3.0284
   62CHL1    C8 7008   2.656   5.582   9.869 -0.1179 -0.1050  0.2011
   62CHL1    H8 7009   2.569   5.647   9.844  2.2001  4.1187  2.0211
   62CHL1   C14 7010   2.719   5.532   9.733  0.0507 -0.0157  0.3720
   62CHL1   H14 7011   2.807   5.469   9.757 -0.1191 -0.3689  0.0698
   62CHL1   C15 7012   2.781   5.643   9.635  1.2072  0.2709  0.4768
   62CHL1  H15A 7013   2.721   5.736   9.630  0.0987 -0.4036  0.8000
   62CHL1  H15B 7014   2.883   5.674   9.666  1.5931 -1.7197  1.3618
   62CHL1   C16 7015   2.776   5.575   9.499  0.0903  0.2694  0.8002
   62CHL1  H16A 7016   2.705   5.636   9.438  1.9059  0.4405 -1.2982
   62CHL1  H16B 7017   2.875   5.571   9.449 -0.4694  3.1173 -0.7854
   62CHL1   C17 7018   2.714   5.430   9.515 -0.8627 -0.1926 -0.1517
   62CHL1   H17 7019   2.789   5.351   9.538  1.0191  1.8146  1.0340
   62CHL1   C13 7020   2.627   5.442   9.646 -0.1102  0.1470  0.6892
   62CHL1   C18 7021   2.492   5.527   9.629  0.0970 -0.1881 -0.3305
   62CHL1  H18A 7022   2.451   5.473   9.542  0.3808  0.4377 -0.8561
   62CHL1  H18B 7023   2.423   5.529   9.717 -2.1946 -3.2505 -1.8531
   62CHL1  H18C 7024   2.508   5.631   9.595 -0.5859 -0.1827 -0.6353
   62CHL1   C12 7025   2.607   5.314   9.733  0.6891 -0.8801 -0.1885
   62CHL1  H12A 7026   2.544   5.251   9.667 -0.4344 -0.5171  0.4912
   62CHL1  H12B 7027   2.698   5.253   9.753 -0.1911 -1.9946  0.5336
   62CHL1   C11 7028   2.543   5.346   9.866  0.0809 -0.2056 -0.3112
   62CHL1  H11A 7029   2.442   5.385   9.843  0.8044  1.4252 -0.8689
   62CHL1  H11B 7030   2.542   5.246   9.915  1.0419  0.2376  0.6583
   62CHL1    C9 7031   2.626   5.455   9.948 -0.4059  0.4163  0.0994
   62CHL1    H9 7032   2.721   5.401   9.965 -0.1493  0.8603  0.0720
   62CHL1   C10 7033   2.563   5.485  10.090 -0.2339 -0.6277  0.4023
   62CHL1   C19 7034   2.408   5.524  10.071  0.5477  0.0756  0.0807
   62CHL1  H19A 7035   2.381   5.550  10.176  2.3218  1.7343  0.1681
   62CHL1  H19B 7036   2.394   5.623  10.021  0.9966  1.2757  2.2106
   62CHL1  H19C 7037   2.338   5.444  10.039  0.4622  0.3779 -0.5011
   62CHL1    C1 7038   2.567   5.350  10.174 -0.1550  0.5798 -0.1601
   62CHL1   H1A 7039   2.508   5.268  10.127  1.1494 -0.8324  0.5591
   62CHL1   H1B 7040   2.677   5.331  10.180 -0.2787 -0.0214  0.2757
   62CHL1    C2 7041   2.521   5.380  10.316 -0.1889 -0.5124  0.3148
   62CHL1   H2A 7042   2.542   5.287  10.372 -0.8818 -1.3541 -0.7982
   62CHL1   H2B 7043   2.413   5.405  10.332  0.3571  0.9982  1.9925
   62CHL1   C20 7044   2.645   5.382   9.384  0.0886  0.3466 -0.0090
   62CHL1   H20 7045   2.571   5.463   9.364  0.7430  0.9924  0.1019
   62CHL1   C21 7046   2.578   5.242   9.405  0.4192 -0.1635  0.9696
   62CHL1  H21A 7047   2.649   5.173   9.456  1.6882 -0.1966 -0.7380
   62CHL1  H21B 7048   2.564   5.188   9.309  1.6931  1.3259 -0.1123
   62CHL1  H21C 7049   2.477   5.240   9.451 -0.2863  0.5436 -0.4549
   62CHL1   C22 7050   2.753   5.376   9.271 -0.1676 -0.0554 -0.4871
   62CHL1  H22A 7051   2.824   5.461   9.276  0.4211 -0.6089  1.2420
   62CHL1  H22B 7052   2.823   5.293   9.294  0.3943 -0.3756 -3.0663
   62CHL1   C23 7053   2.690   5.381   9.130 -0.5066  0.1334 -0.0944
   62CHL1  H23A 7054   2.636   5.286   9.110 -0.8092  0.4254 -0.6778
   62CHL1  H23B 7055   2.626   5.471   9.124  1.4891  1.6812  0.8239
   62CHL1   C24 7056   2.793   5.400   9.017 -0.6509 -0.2598  0.2646
   62CHL1  H24A 7057   2.874   5.470   9.045 -1.3466  0.5527  0.3037
   62CHL1  H24B 7058   2.835   5.298   9.011 -1.0130 -0.4299  0.5796
   62CHL1   C25 7059   2.737   5.435   8.882  0.4092 -0.1016  0.5992
   62CHL1   H25 7060   2.695   5.536   8.901 -1.2510 -0.9293  1.6085
   62CHL1   C26 7061   2.844   5.456   8.767 -0.7366 -0.1003  0.0234
   62CHL1  H26A 7062   2.807   5.491   8.669 -0.5166 -2.4471 -0.9664
   62CHL1  H26B 7063   2.924   5.521   8.811  1.3747 -2.8211  0.5134
   62CHL1  H26C 7064   2.894   5.358   8.754  0.2518  0.3596  0.2498
   62CHL1   C27 7065   2.630   5.338   8.835 -0.0093 -0.9612  0.6832
   62CHL1  H27A 7066   2.542   5.365   8.898  1.0560 -3.6259  3.6189
   62CHL1  H27B 7067   2.595   5.364   8.733  2.1714  1.8580  0.5336
   62CHL1  H27C 7068   2.639   5.227   8.847 -0.4084 -1.1612 -0.7297
   63CHL1    C3 7069   3.252   0.378  10.542 -0.0905  0.0740  0.2257
   63CHL1    H3 7070   3.158   0.320  10.554 -0.1251  0.4963  2.5236
   63CHL1    O3 7071   3.291   0.430  10.670 -0.2450  0.5482  0.4184
   63CHL1   H3' 7072   3.270   0.523  10.669  3.8609  1.6901  1.6864
   63CHL1    C4 7073   3.362   0.282  10.498 -0.8972  0.5590 -0.3854
   63CHL1   H4A 7074   3.457   0.340  10.490 -0.2292 -0.6996 -2.9181
   63CHL1   H4B 7075   3.373   0.194  10.565 -0.7116 -0.9361 -2.2742
   63CHL1    C5 7076   3.333   0.213  10.363 -0.5308 -0.1410 -0.9791
   63CHL1    C6 7077   3.337   0.081  10.346 -0.3168  0.5809  0.8366
   63CHL1    H6 7078   3.376   0.017  10.426 -0.3660  1.4331  1.5536
   63CHL1    C7 7079   3.316   0.020  10.207 -0.5257 -0.1171 -0.3130
   63CHL1   H7A 7080   3.387  -0.061  10.179  0.0902  0.4664 -0.4461
   63CHL1   H7B 7081   3.213  -0.021  10.215 -0.7993  0.7542  0.8891
   63CHL1    C8 7082   3.328   0.120  10.092  0.0002 -0.1052 -0.2398
   63CHL1    H8 7083   3.439   0.134  10.094  0.4288 -2.9489  1.0406
   63CHL1   C14 7084   3.295   0.059   9.956  0.3415  0.3344  0.2118
   63CHL1   H14 7085   3.186   0.046   9.972  0.0703  2.5772  0.6084
   63CHL1   C15 7086   3.347  -0.083   9.926  0.5444 -0.1667 -0.3801
   63CHL1  H15A 7087   3.455  -0.083   9.955  0.0923  1.1227  1.5183
   63CHL1  H15B 7088   3.295  -0.151   9.997  0.6691 -0.5817 -0.6798
   63CHL1   C16 7089   3.310  -0.105   9.784  0.1006  0.0564 -0.5991
   63CHL1  H16A 7090   3.400  -0.140   9.729 -0.5330 -1.6071 -0.6378
   63CHL1  H16B 7091   3.222  -0.171   9.772  1.0448 -1.7118  1.4223
   63CHL1   C17 7092   3.270   0.038   9.730 -0.6796  0.5787 -0.2868
   63CHL1   H17 7093   3.159   0.032   9.737 -0.5857 -0.6346  0.4238
   63CHL1   C13 7094   3.313   0.143   9.833 -0.1386  0.3611  0.6882
   63CHL1   C18 7095   3.464   0.172   9.823 -0.7447 -0.2649  0.1022
   63CHL1  H18A 7096   3.482   0.226   9.728  1.6627 -1.7287 -0.3560
   63CHL1  H18B 7097   3.496   0.247   9.899  1.6833  0.1249 -1.1884
   63CHL1  H18C 7098   3.532   0.085   9.813  1.6909  1.4997  0.4263
   63CHL1   C12 7099   3.231   0.267   9.849  0.7545 -0.4665 -0.4366
   63CHL1  H12A 7100   3.257   0.343   9.773  2.1561 -2.0265 -1.6094
   63CHL1  H12B 7101   3.124   0.235   9.849  0.5954  0.0084  0.7345
   63CHL1   C11 7102   3.244   0.338   9.991 -0.0692 -0.0268  0.1032
   63CHL1  H11A 7103   3.331   0.406   9.985 -1.8503  2.2420 -3.1494
   63CHL1  H11B 7104   3.154   0.403  10.002  0.7896  1.0078  1.4249
   63CHL1    C9 7105   3.257   0.247  10.120  0.2195 -0.5740 -0.1343
   63CHL1    H9 7106   3.151   0.222  10.141 -0.7491  3.7352  0.8976
   63CHL1   C10 7107   3.300   0.312  10.252 -0.0404 -0.0112  0.2477
   63CHL1   C19 7108   3.432   0.394  10.221  0.0241 -0.9226  0.3737
   63CHL1  H19A 7109   3.474   0.420  10.320  0.4108 -2.1278  0.5401
   63CHL1  H19B 7110   3.499   0.336  10.155  0.8921 -0.4735  0.8373
   63CHL1  H19C 7111   3.404   0.491  10.174 -1.1531 -1.0842  0.7044
   63CHL1    C1 7112   3.193   0.413  10.298 -0.3820  0.7887 -0.1297
   63CHL1   H1A 7113   3.193   0.489  10.218 -1.2813 -2.7033 -3.7943
   63CHL1   H1B 7114   3.095   0.361  10.307  0.8962 -1.9413 -0.7223
   63CHL1    C2 7115   3.226   0.480  10.433  0.2903  0.2297 -0.2791
   63CHL1   H2A 7116   3.138   0.541  10.462  0.3977 -0.2604  1.1531
   63CHL1   H2B 7117   3.313   0.548  10.432  0.5711 -0.1341 -1.3091
   63CHL1   C20 7118   3.304   0.066   9.577  0.7757 -0.7595  1.0590
   63CHL1   H20 7119   3.415   0.053   9.577  1.1792  2.0691  1.5301
   63CHL1   C21 7120   3.261   0.211   9.537 -0.0843 -0.4568 -0.6841
   63CHL1  H21A 7121   3.151   0.227   9.533  0.0835  1.0278 -0.0649
   63CHL1  H21B 7122   3.304   0.222   9.436  0.0948 -2.5805 -0.8761
   63CHL1  H21C 7123   3.312   0.288   9.598  1.1164 -0.6161 -1.4602
   63CHL1   C22 7124   3.237  -0.040   9.480 -0.0350  0.5997 -0.2648
   63CHL1  H22A 7125   3.217  -0.140   9.525  1.2247  0.1345 -0.7170
   63CHL1  H22B 7126   3.144   0.006   9.439 -0.2095  0.6094  0.1369
   63CHL1   C23 7127   3.322  -0.060   9.359  0.6051  0.0934 -0.2522
   63CHL1  H23A 7128   3.347   0.035   9.307  2.4534 -0.0566  0.2975
   63CHL1  H23B 7129   3.418  -0.097   9.401 -0.5193 -0.8571  1.5898
   63CHL1   C24 7130   3.271  -0.164   9.247 -0.6203  0.3492 -0.3990
   63CHL1  H24A 7131   3.358  -0.190   9.183 -0.1813 -1.4103  0.8275
   63CHL1  H24B 7132   3.248  -0.256   9.305  1.2047  0.9954  1.4226
   63CHL1   C25 7133   3.144  -0.118   9.167  0.5932  0.6903  0.1630
   63CHL1   H25 7134   3.060  -0.115   9.241 -0.6099 -0.1944 -1.1187
   63CHL1   C26 7135   3.153   0.020   9.105 -0.2766 -0.1810 -0.9960
   63CHL1  H26A 7136   3.242   0.043   9.042 -1.1599  2.0414 -1.5640
   63CHL1  H26B 7137   3.060   0.039   9.047  1.5911  0.2754 -4.0830
   63CHL1  H26C 7138   3.161   0.096   9.185 -1.7039  0.1899 -1.1790
   63CHL1   C27 7139   3.121  -0.223   9.048 -0.0092  0.4308 -0.2461
   63CHL1  H27A 7140   3.221  -0.227   9.000 -0.0051 -0.8979 -0.1667
   63CHL1  H27B 7141   3.099  -0.325   9.087  2.2975 -0.5194 -1.2021
   63CHL1  H27C 7142   3.045  -0.176   8.983  0.6691 -1.8347 -2.9065
   64CHL1    C3 7143   2.017   1.436  10.294  0.8589  0.0273  0.3684
   64CHL1    H3 7144   2.030   1.547  10.299  2.1458 -0.1550  1.8157
   64CHL1    O3 7145   1.973   1.386  10.420  0.4711 -0.4880 -0.6727
   64CHL1   H3' 7146   2.003   1.296  10.436  0.0972 -0.1379  2.7407
   64CHL1    C4 7147   1.920   1.393  10.180 -0.0163 -0.1051 -0.3240
   64CHL1   H4A 7148   1.895   1.288  10.207 -0.0119  0.2780  1.2631
   64CHL1   H4B 7149   1.825   1.447  10.200 -0.3872 -1.2111  1.1192
   64CHL1    C5 7150   1.967   1.402  10.034 -1.0528 -0.4261  0.2420
   64CHL1    C6 7151   1.902   1.475   9.942 -0.4882  0.2379 -0.9212
   64CHL1    H6 7152   1.803   1.517   9.965 -1.0456 -1.8606  0.8448
   64CHL1    C7 7153   1.952   1.482   9.801  0.3485 -0.2229 -0.3250
   64CHL1   H7A 7154   1.865   1.451   9.740  1.3830  0.8042 -2.4261
   64CHL1   H7B 7155   1.966   1.589   9.772 -2.1327  0.6910  1.5333
   64CHL1    C8 7156   2.057   1.383   9.765  0.3913 -0.4215  0.7785
   64CHL1    H8 7157   2.013   1.281   9.762  0.5552 -0.4691 -0.3295
   64CHL1   C14 7158   2.116   1.422   9.635  0.0124 -0.3081  0.0367
   64CHL1   H14 7159   2.173   1.517   9.647  0.0229 -0.3298  0.1528
   64CHL1   C15 7160   2.024   1.443   9.517 -0.3136 -0.1621 -0.0677
   64CHL1  H15A 7161   1.936   1.375   9.520 -0.0908 -0.4479  0.0786
   64CHL1  H15B 7162   1.985   1.547   9.520 -2.2972 -0.8664  1.0393
   64CHL1   C16 7163   2.099   1.418   9.389  0.1331  0.4736  0.2819
   64CHL1  H16A 7164   2.038   1.337   9.344  0.5577  0.3374 -0.0576
   64CHL1  H16B 7165   2.094   1.508   9.325  2.3364  1.0037  0.7972
   64CHL1   C17 7166   2.245   1.379   9.432 -0.6256 -0.4384 -0.0150
   64CHL1   H17 7167   2.297   1.474   9.455 -0.1971 -0.6315 -0.1686
   64CHL1   C13 7168   2.226   1.325   9.583 -0.3755  0.6544 -0.9979
   64CHL1   C18 7169   2.165   1.180   9.578  0.4546 -0.2330  0.4018
   64CHL1  H18A 7170   2.129   1.144   9.677  0.5969 -1.9693 -0.1371
   64CHL1  H18B 7171   2.079   1.173   9.508 -2.0053  1.8488  3.0014
   64CHL1  H18C 7172   2.245   1.120   9.530  1.1299 -1.0620  2.4522
   64CHL1   C12 7173   2.344   1.333   9.684 -0.5185 -0.3572 -0.2548
   64CHL1  H12A 7174   2.419   1.257   9.655 -0.4401 -0.1396 -0.6252
   64CHL1  H12B 7175   2.404   1.426   9.682  2.3694 -2.1012  0.4584
   64CHL1   C11 7176   2.300   1.307   9.833 -0.3967 -0.1247  0.3977
   64CHL1  H11A 7177   2.286   1.197   9.842  1.4640 -0.3467  1.1660
   64CHL1  H11B 7178   2.377   1.342   9.905  0.2809 -1.6902  0.4832
   64CHL1    C9 7179   2.171   1.386   9.872  0.0381  0.1556  1.2347
   64CHL1    H9 7180   2.209   1.490   9.871  0.7418 -0.0910  0.7895
   64CHL1   C10 7181   2.111   1.345  10.012 -0.1586  0.4628 -0.6806
   64CHL1   C19 7182   2.101   1.188  10.022  0.0713  0.2964  0.4937
   64CHL1  H19A 7183   2.057   1.162  10.121 -0.2125  0.0682  0.3090
   64CHL1  H19B 7184   2.043   1.142   9.939  0.0207 -0.6412  1.0324
   64CHL1  H19C 7185   2.199   1.136  10.012 -2.0346 -3.5766 -4.4348
   64CHL1    C1 7186   2.200   1.401  10.119 -0.8117 -0.0090 -0.9115
   64CHL1   H1A 7187   2.291   1.337  10.115 -1.0256 -0.3326 -0.6614
   64CHL1   H1B 7188   2.232   1.505  10.099 -1.6770  1.2616  3.4011
   64CHL1    C2 7189   2.153   1.377  10.263  0.3927  0.2690 -0.4701
   64CHL1   H2A 7190   2.229   1.395  10.341  0.3288 -1.7316  0.1249
   64CHL1   H2B 7191   2.151   1.266  10.271  3.9669  0.0171 -1.4755
   64CHL1   C20 7192   2.329   1.302   9.330  0.2859  0.2446 -0.1890
   64CHL1   H20 7193   2.276   1.207   9.309 -1.7670  1.5684 -1.3473
   64CHL1   C21 7194   2.475   1.259   9.369 -0.5188 -0.2330  0.3814
   64CHL1  H21A 7195   2.472   1.190   9.457  1.2061 -0.5993  0.1945
   64CHL1  H21B 7196   2.532   1.350   9.399 -1.5512  0.3295  0.6672
   64CHL1  H21C 7197   2.536   1.203   9.295 -2.5929  0.0473 -1.6507
   64CHL1   C22 7198   2.313   1.365   9.191  0.2703  0.4779 -0.3764
   64CHL1  H22A 7199   2.211   1.346   9.153  0.3793 -2.1426  0.4233
   64CHL1  H22B 7200   2.341   1.472   9.181  0.7209  0.2315 -1.8502
   64CHL1   C23 7201   2.411   1.298   9.083 -0.0644  0.0303 -0.3815
   64CHL1  H23A 7202   2.512   1.300   9.129 -0.4125 -1.4469  0.5186
   64CHL1  H23B 7203   2.391   1.190   9.066 -0.1497 -0.3549  1.8488
   64CHL1   C24 7204   2.394   1.360   8.940  0.0660  0.2373  0.4306
   64CHL1  H24A 7205   2.297   1.321   8.902  1.5047 -0.6440 -2.5923
   64CHL1  H24B 7206   2.405   1.471   8.939  0.6225  0.3538  4.2354
   64CHL1   C25 7207   2.507   1.310   8.843 -0.0532 -0.7440 -0.4413
   64CHL1   H25 7208   2.529   1.209   8.883 -0.9407 -1.1161 -0.8573
   64CHL1   C26 7209   2.457   1.305   8.699 -0.2110  0.0470 -0.2962
   64CHL1  H26A 7210   2.539   1.296   8.625  0.0721 -1.4452  0.1739
   64CHL1  H26B 7211   2.395   1.213   8.694  1.6398 -1.3201  0.7666
   64CHL1  H26C 7212   2.393   1.393   8.676 -0.9389 -0.8222 -1.7061
   64CHL1   C27 7213   2.644   1.384   8.867 -0.2254  0.0996 -0.3764
   64CHL1  H27A 7214   2.648   1.414   8.974  0.2460  0.3689 -0.4679
   64CHL1  H27B 7215   2.715   1.301   8.850 -1.8129 -1.2174 -0.8722
   64CHL1  H27C 7216   2.667   1.471   8.801 -0.2235  1.4760  1.3550
   65CHL1    C3 7217   4.394   1.288  10.480 -0.5458  0.5594 -0.8420
   65CHL1    H3 7218   4.367   1.181  10.465 -1.9634  0.7030  0.3322
   65CHL1    O3 7219   4.452   1.305  10.610 -0.3755 -0.0491  0.0663
   65CHL1   H3' 7220   4.478   1.396  10.625 -0.6585 -0.0881  0.8731
   65CHL1    C4 7221   4.494   1.341  10.380  0.4998  0.1772 -0.9254
   65CHL1   H4A 7222   4.528   1.443  10.411  3.5849 -0.5312 -1.6054
   65CHL1   H4B 7223   4.590   1.285  10.389  1.1599  1.3466 -0.4041
   65CHL1    C5 7224   4.434   1.346  10.246  0.3211  0.0137 -0.6445
   65CHL1    C6 7225   4.492   1.278  10.148 -0.0977 -0.2956  0.4849
   65CHL1    H6 7226   4.583   1.218  10.161  0.8499  0.7155 -1.1494
   65CHL1    C7 7227   4.445   1.295  10.004  0.3561 -0.0434  0.5401
   65CHL1   H7A 7228   4.521   1.318   9.927 -1.4337  1.4670 -0.8692
   65CHL1   H7B 7229   4.384   1.207   9.974  3.6022 -2.1359 -0.4173
   65CHL1    C8 7230   4.340   1.416   9.988  0.2456  0.8032 -0.0390
   65CHL1    H8 7231   4.400   1.509   9.984 -2.0680  2.3610 -1.3604
   65CHL1   C14 7232   4.261   1.401   9.855  0.1532 -0.1359 -0.5539
   65CHL1   H14 7233   4.196   1.310   9.861 -1.4947  1.0082 -0.4765
   65CHL1   C15 7234   4.352   1.366   9.738 -1.0804 -0.6099  0.0782
   65CHL1  H15A 7235   4.445   1.425   9.753 -0.9174 -1.0143  0.6623
   65CHL1  H15B 7236   4.364   1.255   9.739 -0.1651 -0.5182  0.9838
   65CHL1   C16 7237   4.268   1.403   9.617 -0.5528  0.0562  0.0196
   65CHL1  H16A 7238   4.332   1.476   9.563  0.7838 -0.5993  0.6885
   65CHL1  H16B 7239   4.249   1.322   9.544 -2.2257 -0.0018  0.4683
   65CHL1   C17 7240   4.127   1.454   9.675  0.1039 -0.2404 -0.0657
   65CHL1   H17 7241   4.063   1.365   9.692 -1.1022  0.5495 -0.3399
   65CHL1   C13 7242   4.165   1.505   9.816  0.5338 -0.1127 -0.1343
   65CHL1   C18 7243   4.240   1.643   9.794 -0.5124  0.4343  0.2780
   65CHL1  H18A 7244   4.174   1.731   9.811 -0.9080  0.7465 -2.3728
   65CHL1  H18B 7245   4.333   1.648   9.855 -0.4834  0.8360  0.2056
   65CHL1  H18C 7246   4.271   1.643   9.687 -1.0675  0.9992  0.1111
   65CHL1   C12 7247   4.063   1.506   9.934  0.5275 -0.1270  0.3533
   65CHL1  H12A 7248   3.991   1.587   9.910  0.8567 -0.3606 -1.6198
   65CHL1  H12B 7249   4.011   1.408   9.930  2.0089 -0.9759  1.2701
   65CHL1   C11 7250   4.132   1.525  10.068 -0.4915 -0.5406  0.3047
   65CHL1  H11A 7251   4.177   1.626  10.056  2.0423 -1.7186 -0.9164
   65CHL1  H11B 7252   4.051   1.519  10.144 -4.3987  0.2391 -3.4042
   65CHL1    C9 7253   4.237   1.416  10.094 -0.5905  0.6327 -1.2109
   65CHL1    H9 7254   4.193   1.314  10.095 -2.5886  1.4649 -0.0663
   65CHL1   C10 7255   4.299   1.423  10.232 -0.9308  0.2555 -0.4361
   65CHL1   C19 7256   4.322   1.575  10.265 -0.0864  0.1997  0.6326
   65CHL1  H19A 7257   4.231   1.636  10.285  0.6110  0.9969  1.4484
   65CHL1  H19B 7258   4.387   1.581  10.355  2.0050  0.9352 -0.8412
   65CHL1  H19C 7259   4.384   1.615  10.182  1.4936 -2.0646  0.6188
   65CHL1    C1 7260   4.202   1.358  10.338 -0.7825  0.0635  0.0001
   65CHL1   H1A 7261   4.109   1.418  10.345  0.2102  1.5836  0.7618
   65CHL1   H1B 7262   4.190   1.249  10.318 -3.5832  0.1490  0.7772
   65CHL1    C2 7263   4.262   1.365  10.484  0.0666 -1.2566  0.2338
   65CHL1   H2A 7264   4.195   1.306  10.551 -2.9587 -0.7118 -2.1122
   65CHL1   H2B 7265   4.267   1.469  10.522 -0.1194 -2.0122  2.5011
   65CHL1   C20 7266   4.045   1.544   9.586 -0.0516 -0.1018 -0.0123
   65CHL1   H20 7267   4.093   1.643   9.597  2.0722 -0.7429 -2.4112
   65CHL1   C21 7268   3.903   1.526   9.633  0.2239 -0.7127  0.5073
   65CHL1  H21A 7269   3.892   1.534   9.743 -1.2342  2.5118  0.2358
   65CHL1  H21B 7270   3.846   1.436   9.602 -1.4611  0.9071 -1.4196
   65CHL1  H21C 7271   3.838   1.611   9.603  0.4046  0.3904  3.0278
   65CHL1   C22 7272   4.041   1.523   9.428  0.2005 -0.2051 -0.1064
   65CHL1  H22A 7273   4.145   1.533   9.392  0.1067  2.1533  0.1709
   65CHL1  H22B 7274   4.002   1.421   9.405 -0.4826  0.1024 -0.3556
   65CHL1   C23 7275   3.964   1.636   9.353  0.0085  0.9244 -1.0975
   65CHL1  H23A 7276   3.861   1.614   9.387  1.6681 -1.3726  3.2655
   65CHL1  H23B 7277   3.986   1.731   9.407  0.6033  0.0425  0.2672
   65CHL1   C24 7278   3.989   1.650   9.199 -0.5921  0.1836 -0.3840
   65CHL1  H24A 7279   3.939   1.732   9.143 -0.1513 -1.4798 -3.4444
   65CHL1  H24B 7280   4.097   1.662   9.176 -0.5865  2.6062  0.5560
   65CHL1   C25 7281   3.943   1.536   9.118  1.0629  0.6907 -0.1687
   65CHL1   H25 7282   3.990   1.441   9.150  0.1593  0.4906  0.6016
   65CHL1   C26 7283   3.788   1.516   9.124 -1.0851  0.2823  0.3749
   65CHL1  H26A 7284   3.779   1.455   9.216  0.0619  0.4210  0.5993
   65CHL1  H26B 7285   3.727   1.608   9.120 -1.4853  0.0031 -0.0449
   65CHL1  H26C 7286   3.759   1.446   9.043  0.9646 -0.9314  0.6193
   65CHL1   C27 7287   3.976   1.559   8.971 -0.7961  0.0812  0.1248
   65CHL1  H27A 7288   4.086   1.569   8.959 -0.5213 -1.5764  0.8942
   65CHL1  H27B 7289   3.952   1.464   8.919  0.0238 -0.5946  0.9408
   65CHL1  H27C 7290   3.906   1.630   8.923 -3.4422 -1.5828  1.2987
   66CHL1    C3 7291   3.708   0.042  10.647 -0.4190  0.4057  0.0631
   66CHL1    H3 7292   3.603   0.039  10.609 -0.8348  1.1988  1.1018
   66CHL1    O3 7293   3.713   0.035  10.792  0.0900 -0.2775  0.4478
   66CHL1   H3' 7294   3.798   0.067  10.821  0.7381  0.1854 -1.8283
   66CHL1    C4 7295   3.786  -0.070  10.574  0.2732  0.5889  0.0841
   66CHL1   H4A 7296   3.890  -0.076  10.614 -0.2169 -1.6792  1.1899
   66CHL1   H4B 7297   3.733  -0.163  10.603 -4.1305  1.6261 -3.6114
   66CHL1    C5 7298   3.774  -0.058  10.420 -0.4155 -0.2475  0.1058
   66CHL1    C6 7299   3.721  -0.149  10.338  0.5428 -0.0993 -0.1054
   66CHL1    H6 7300   3.668  -0.238  10.374  0.2864 -0.9330 -2.3812
   66CHL1    C7 7301   3.719  -0.136  10.191  0.0481  0.2663  0.9595
   66CHL1   H7A 7302   3.756  -0.233  10.150  2.8730  2.1123 -1.2698
   66CHL1   H7B 7303   3.619  -0.108  10.153  0.5785  0.5280 -0.3304
   66CHL1    C8 7304   3.809  -0.032  10.131 -0.4564 -0.4382  0.0560
   66CHL1    H8 7305   3.910  -0.078  10.124 -0.7436 -0.9366 -1.1988
   66CHL1   C14 7306   3.776   0.004   9.983  0.4368  0.4980  0.2283
   66CHL1   H14 7307   3.672   0.041   9.973  0.9070  1.9523  0.4314
   66CHL1   C15 7308   3.787  -0.117   9.880  0.3966 -0.1538 -1.1816
   66CHL1  H15A 7309   3.874  -0.180   9.907 -0.4156 -1.1674 -0.8786
   66CHL1  H15B 7310   3.691  -0.173   9.887  0.4086 -0.1855 -1.2754
   66CHL1   C16 7311   3.812  -0.041   9.747 -0.1391  0.5910 -0.3300
   66CHL1  H16A 7312   3.903  -0.087   9.702  0.3324  1.9274 -0.7648
   66CHL1  H16B 7313   3.728  -0.067   9.679  1.4543  0.7098 -2.4363
   66CHL1   C17 7314   3.831   0.108   9.774 -0.3025  1.3244 -0.4485
   66CHL1   H17 7315   3.733   0.160   9.783  0.0223  1.7890  0.5657
   66CHL1   C13 7316   3.869   0.111   9.922  0.1587 -0.1266  0.5875
   66CHL1   C18 7317   4.027   0.076   9.929 -0.2002 -0.4573  0.4597
   66CHL1  H18A 7318   4.092   0.166   9.925 -0.9246  0.0657  0.1614
   66CHL1  H18B 7319   4.045   0.023  10.026 -1.0726  0.1965  0.9992
   66CHL1  H18C 7320   4.050   0.014   9.840 -1.7861  0.2569 -0.4966
   66CHL1   C12 7321   3.841   0.242  10.003  0.5310 -0.5554 -0.8344
   66CHL1  H12A 7322   3.907   0.321   9.963  0.0593 -0.6712 -1.8787
   66CHL1  H12B 7323   3.733   0.268   9.998  0.6624  0.7574  1.7150
   66CHL1   C11 7324   3.876   0.228  10.154  0.1621  0.2327 -0.3761
   66CHL1  H11A 7325   3.987   0.223  10.162  0.0065 -1.0813  1.7300
   66CHL1  H11B 7326   3.840   0.318  10.208 -0.2320  0.6198 -1.2658
   66CHL1    C9 7327   3.807   0.099  10.219  0.1458 -0.1337  0.2932
   66CHL1    H9 7328   3.699   0.119  10.203 -0.0427 -2.2170 -1.4890
   66CHL1   C10 7329   3.832   0.073  10.367  0.2289  0.3813  0.3940
   66CHL1   C19 7330   3.981   0.062  10.391 -0.4609 -0.1039  0.4541
   66CHL1  H19A 7331   3.992   0.058  10.501 -1.9483  1.4835  0.7092
   66CHL1  H19B 7332   4.018  -0.036  10.354 -0.5068  0.2856 -0.6624
   66CHL1  H19C 7333   4.038   0.148  10.348 -0.6760 -0.3293 -0.3064
   66CHL1    C1 7334   3.784   0.193  10.450  0.0248 -0.0781 -0.2704
   66CHL1   H1A 7335   3.858   0.268  10.414  0.7435  0.4028  2.0105
   66CHL1   H1B 7336   3.676   0.213  10.434  0.0273  1.2261  1.1275
   66CHL1    C2 7337   3.778   0.173  10.602  0.1029  0.7064 -0.7566
   66CHL1   H2A 7338   3.721   0.257  10.647 -0.8194  0.1765 -0.9122
   66CHL1   H2B 7339   3.882   0.169  10.642 -0.3043  0.7110  0.3104
   66CHL1   C20 7340   3.908   0.184   9.670 -0.0557 -0.3777 -0.7758
   66CHL1   H20 7341   4.009   0.193   9.715 -0.4360  0.3667 -0.0440
   66CHL1   C21 7342   3.861   0.330   9.668  0.0060  0.2739 -0.1675
   66CHL1  H21A 7343   3.765   0.343   9.613  0.0479  1.8819  0.0780
   66CHL1  H21B 7344   3.939   0.395   9.623  1.6320 -1.2647  0.3210
   66CHL1  H21C 7345   3.833   0.365   9.770  0.9238  0.4413  0.0377
   66CHL1   C22 7346   3.915   0.108   9.536  0.0289  0.7937 -0.4941
   66CHL1  H22A 7347   3.988   0.173   9.484 -0.0457  0.9045 -0.4593
   66CHL1  H22B 7348   3.956   0.005   9.537 -1.0648  0.3187  1.4558
   66CHL1   C23 7349   3.789   0.108   9.447  0.5848 -0.2954 -0.0092
   66CHL1  H23A 7350   3.707   0.051   9.495  0.6492 -0.4007 -0.0232
   66CHL1  H23B 7351   3.763   0.213   9.420  1.6793  0.2240  0.8718
   66CHL1   C24 7352   3.819   0.038   9.310  0.0882 -0.2306 -0.6886
   66CHL1  H24A 7353   3.893   0.100   9.255 -1.2145  1.7548 -0.3225
   66CHL1  H24B 7354   3.887  -0.048   9.327  1.1599  0.2911 -2.1953
   66CHL1   C25 7355   3.690   0.016   9.229 -0.1528 -0.3634  0.5137
   66CHL1   H25 7356   3.620  -0.046   9.289 -0.0958 -0.3134  0.6304
   66CHL1   C26 7357   3.629   0.147   9.179 -0.8060 -0.4784  0.2220
   66CHL1  H26A 7358   3.543   0.136   9.109 -0.5447  1.6138 -0.5204
   66CHL1  H26B 7359   3.609   0.212   9.267 -0.1868  0.0283  0.0004
   66CHL1  H26C 7360   3.712   0.193   9.121 -1.4297 -0.8979 -1.0479
   66CHL1   C27 7361   3.726  -0.078   9.111  0.1117 -0.1221  0.1376
   66CHL1  H27A 7362   3.809  -0.041   9.047 -0.6614  0.3182 -0.6382
   66CHL1  H27B 7363   3.760  -0.180   9.140 -1.1143 -0.4570  0.4907
   66CHL1  H27C 7364   3.636  -0.092   9.046 -0.6348 -1.3275  1.3700
   67CHL1    C3 7365   2.473   3.306  10.653  0.0616 -0.0101 -0.0626
   67CHL1    H3 7366   2.566   3.250  10.631 -1.6972 -3.1568 -0.1001
   67CHL1    O3 7367   2.442   3.314  10.790 -0.1355 -0.2783 -0.1773
   67CHL1   H3' 7368   2.350   3.338  10.775  0.3188  1.0413 -1.1320
   67CHL1    C4 7369   2.480   3.450  10.598 -0.5202 -0.0523  0.9064
   67CHL1   H4A 7370   2.391   3.510  10.626 -3.0776 -2.4467 -1.4385
   67CHL1   H4B 7371   2.562   3.505  10.648  0.7891 -1.0152 -0.0882
   67CHL1    C5 7372   2.500   3.452  10.446 -0.4753 -0.1437  0.8202
   67CHL1    C6 7373   2.616   3.515  10.396 -0.4117  0.4702 -0.0549
   67CHL1    H6 7374   2.685   3.552  10.473 -1.1490  0.2050  0.7514
   67CHL1    C7 7375   2.651   3.522  10.247 -0.5445 -0.4431 -0.0102
   67CHL1   H7A 7376   2.669   3.625  10.210 -2.9365  0.2578  0.6307
   67CHL1   H7B 7377   2.744   3.463  10.230 -1.3623 -2.2763  1.5478
   67CHL1    C8 7378   2.533   3.464  10.163 -0.6853  0.0686 -0.1578
   67CHL1    H8 7379   2.465   3.551  10.159 -0.0834  0.4932 -2.5903
   67CHL1   C14 7380   2.586   3.429  10.016  0.0717 -0.6670  0.1528
   67CHL1   H14 7381   2.670   3.359  10.033  0.2164 -0.2315  1.3349
   67CHL1   C15 7382   2.649   3.537   9.922 -0.7067 -0.7013 -0.7505
   67CHL1  H15A 7383   2.581   3.624   9.912 -1.8740 -1.4404  0.3652
   67CHL1  H15B 7384   2.741   3.573   9.972 -0.7421  0.9478 -1.7894
   67CHL1   C16 7385   2.681   3.458   9.802  0.7867 -0.5120 -0.0640
   67CHL1  H16A 7386   2.668   3.523   9.712 -0.4863 -0.2182  0.3138
   67CHL1  H16B 7387   2.789   3.430   9.808  0.7265 -0.3551  2.5391
   67CHL1   C17 7388   2.572   3.342   9.801  0.5124 -0.8931 -0.0460
   67CHL1   H17 7389   2.632   3.249   9.812  1.5174 -0.3098 -0.4162
   67CHL1   C13 7390   2.484   3.364   9.926 -0.1191 -0.1900  0.5962
   67CHL1   C18 7391   2.367   3.459   9.902 -0.0004  0.5473  0.4839
   67CHL1  H18A 7392   2.283   3.400   9.859 -0.3172  0.6831  0.9138
   67CHL1  H18B 7393   2.332   3.507   9.995  1.1256  1.0904  0.6402
   67CHL1  H18C 7394   2.393   3.545   9.836 -1.4462  0.3476 -0.4067
   67CHL1   C12 7395   2.437   3.238   9.991  0.0599  0.1700 -1.1260
   67CHL1  H12A 7396   2.381   3.170   9.923  0.4525 -0.1563 -1.1275
   67CHL1  H12B 7397   2.531   3.185  10.017  1.3105  2.4131 -0.8211
   67CHL1   C11 7398   2.370   3.266  10.124  0.3905 -0.3705  0.0439
   67CHL1  H11A 7399   2.280   3.328  10.105  1.2581  1.1695  0.7966
   67CHL1  H11B 7400   2.334   3.167  10.160  0.9911 -0.2991  0.8601
   67CHL1    C9 7401   2.464   3.340  10.225 -0.0947 -0.5387  0.9997
   67CHL1    H9 7402   2.555   3.278  10.235  2.1554  2.2942 -0.4290
   67CHL1   C10 7403   2.401   3.368  10.363  0.0164 -0.4055 -0.2478
   67CHL1   C19 7404   2.268   3.445  10.356 -0.0281  0.6759 -0.3094
   67CHL1  H19A 7405   2.241   3.493  10.452  0.5377  0.0934  0.1450
   67CHL1  H19B 7406   2.275   3.519  10.273  2.5980 -0.5577 -1.2942
   67CHL1  H19C 7407   2.182   3.378  10.335 -1.1964  2.6450 -2.2203
   67CHL1    C1 7408   2.380   3.229  10.432 -0.0852  0.6386 -0.5479
   67CHL1   H1A 7409   2.295   3.180  10.382 -0.9816  0.7191  0.8412
   67CHL1   H1B 7410   2.474   3.171  10.417 -1.6376 -2.7512  1.5658
   67CHL1    C2 7411   2.355   3.238  10.586  0.7793  0.2240 -0.2083
   67CHL1   H2A 7412   2.341   3.135  10.625  3.6190  0.3144  1.3392
   67CHL1   H2B 7413   2.260   3.294  10.601 -0.2985 -1.5291 -0.1157
   67CHL1   C20 7414   2.503   3.332   9.658  0.9988 -0.2704  0.0362
   67CHL1   H20 7415   2.445   3.425   9.638  2.9952  0.4758 -2.8394
   67CHL1   C21 7416   2.404   3.211   9.658 -0.7690 -1.3052 -0.5128
   67CHL1  H21A 7417   2.320   3.239   9.725  0.8000  2.3914  0.1568
   67CHL1  H21B 7418   2.470   3.126   9.687  1.6213  0.3365 -0.8695
   67CHL1  H21C 7419   2.376   3.194   9.552  0.3353 -1.7756 -0.7427
   67CHL1   C22 7420   2.601   3.312   9.543  1.0646 -0.3204  1.0800
   67CHL1  H22A 7421   2.706   3.321   9.578  1.4682 -0.5157 -0.0302
   67CHL1  H22B 7422   2.589   3.208   9.503  0.4361  0.1138  0.1034
   67CHL1   C23 7423   2.588   3.423   9.431 -0.3183 -0.3632  0.7310
   67CHL1  H23A 7424   2.487   3.420   9.385  0.7387 -1.9656 -1.6692
   67CHL1  H23B 7425   2.611   3.524   9.471  1.9652 -1.0080  1.1837
   67CHL1   C24 7426   2.696   3.401   9.318 -0.3031  0.3523 -0.3095
   67CHL1  H24A 7427   2.793   3.375   9.366  0.4857  2.8935 -0.3905
   67CHL1  H24B 7428   2.662   3.311   9.263 -2.6497  1.1269 -0.2188
   67CHL1   C25 7429   2.721   3.520   9.221  0.9051  0.0565 -0.1012
   67CHL1   H25 7430   2.615   3.545   9.199 -0.1920 -3.8282  0.0565
   67CHL1   C26 7431   2.788   3.640   9.290  0.6286  0.1461  0.1243
   67CHL1  H26A 7432   2.829   3.719   9.224 -0.0990 -1.0909 -1.9206
   67CHL1  H26B 7433   2.719   3.686   9.364  1.9686  1.0040  0.8626
   67CHL1  H26C 7434   2.876   3.617   9.354  0.9768 -0.5984 -0.5999
   67CHL1   C27 7435   2.807   3.468   9.100  0.3016  0.3821  0.0113
   67CHL1  H27A 7436   2.814   3.544   9.020 -1.6493  1.2625  0.6151
   67CHL1  H27B 7437   2.909   3.436   9.134 -0.6363 -2.0243  0.7940
   67CHL1  H27C 7438   2.765   3.378   9.051  2.2220 -0.5297 -0.0911
   68CHL1    C3 7439   3.163   1.491  10.551 -0.0664 -0.4485  0.0896
   68CHL1    H3 7440   3.178   1.601  10.549  0.3051 -0.5064 -0.8549
   68CHL1    O3 7441   3.144   1.453  10.683 -0.3575 -0.7813 -0.5705
   68CHL1   H3' 7442   3.054   1.421  10.688 -0.5249 -1.2150 -4.2465
   68CHL1    C4 7443   3.044   1.450  10.462 -0.1761  0.5708  0.5391
   68CHL1   H4A 7444   3.032   1.340  10.474 -0.5115  0.3550 -1.3719
   68CHL1   H4B 7445   2.946   1.493  10.494 -0.7587  0.0566 -0.4823
   68CHL1    C5 7446   3.075   1.482  10.312  0.1948 -0.2671  0.0676
   68CHL1    C6 7447   3.005   1.575  10.248  0.3022  0.0026  0.5417
   68CHL1    H6 7448   2.910   1.592  10.300 -0.0675  0.2777 -0.2046
   68CHL1    C7 7449   3.024   1.607  10.105 -0.0929  0.3629  0.3208
   68CHL1   H7A 7450   2.925   1.620  10.056 -0.6013  0.1947  1.2873
   68CHL1   H7B 7451   3.074   1.706  10.097  0.4103  0.1440  0.6623
   68CHL1    C8 7452   3.112   1.505  10.026 -0.5300  0.9025 -0.6772
   68CHL1    H8 7453   3.059   1.407  10.018  2.3759 -0.7876 -0.6273
   68CHL1   C14 7454   3.157   1.558   9.889  0.7948  0.0328 -0.3875
   68CHL1   H14 7455   3.210   1.649   9.922 -0.6790  1.5682 -2.0798
   68CHL1   C15 7456   3.059   1.606   9.781 -0.3393 -0.1406  0.2470
   68CHL1  H15A 7457   2.979   1.530   9.769  0.4220 -1.1181  1.1259
   68CHL1  H15B 7458   3.023   1.704   9.818  3.2153  1.6376 -0.5502
   68CHL1   C16 7459   3.145   1.625   9.654  0.1677 -0.2363 -0.8313
   68CHL1  H16A 7460   3.093   1.583   9.565 -1.3092 -0.2890  0.0186
   68CHL1  H16B 7461   3.174   1.732   9.645 -1.1753  0.1708 -0.5296
   68CHL1   C17 7462   3.276   1.553   9.683  0.1599 -0.2483  0.8523
   68CHL1   H17 7463   3.348   1.636   9.702  0.0325  0.6250 -1.9510
   68CHL1   C13 7464   3.260   1.472   9.812 -0.5171 -0.1903 -0.1195
   68CHL1   C18 7465   3.195   1.337   9.776 -0.4265 -0.5135 -0.1351
   68CHL1  H18A 7466   3.122   1.342   9.692 -0.7488 -2.8711 -0.0616
   68CHL1  H18B 7467   3.274   1.263   9.752 -1.1309 -1.9087  1.6190
   68CHL1  H18C 7468   3.151   1.287   9.865 -1.6774 -1.8740 -1.4674
   68CHL1   C12 7469   3.386   1.455   9.898 -0.0884 -0.9023 -0.2526
   68CHL1  H12A 7470   3.468   1.394   9.855 -1.2483 -0.4588 -3.3070
   68CHL1  H12B 7471   3.427   1.558   9.909 -0.1308 -0.9489  0.3937
   68CHL1   C11 7472   3.352   1.400  10.038 -0.7769  0.2172  0.3887
   68CHL1  H11A 7473   3.336   1.291  10.026 -1.4623  0.2120  1.2496
   68CHL1  H11B 7474   3.444   1.415  10.099  0.5261 -0.0368 -1.4260
   68CHL1    C9 7475   3.239   1.483  10.109  0.1803 -0.2030  0.1070
   68CHL1    H9 7476   3.287   1.580  10.130 -1.1761 -0.0638  2.9327
   68CHL1   C10 7477   3.200   1.427  10.246  0.0787  0.5393 -0.6195
   68CHL1   C19 7478   3.191   1.272  10.229 -0.9179  0.5772 -0.0355
   68CHL1  H19A 7479   3.289   1.220  10.231 -1.3827 -0.3235 -0.0992
   68CHL1  H19B 7480   3.118   1.233  10.302 -0.6013  1.1688  0.6095
   68CHL1  H19C 7481   3.134   1.246  10.137 -1.0790 -0.3988  0.3338
   68CHL1    C1 7482   3.315   1.461  10.349 -1.1037  0.4369  0.2480
   68CHL1   H1A 7483   3.407   1.410  10.316 -1.7307 -1.9028  1.9133
   68CHL1   H1B 7484   3.328   1.571  10.334 -1.8495  0.9134  2.6319
   68CHL1    C2 7485   3.297   1.428  10.498 -0.0067  0.0641 -0.4798
   68CHL1   H2A 7486   3.385   1.468  10.552 -1.0836  0.1295  1.2889
   68CHL1   H2B 7487   3.287   1.319  10.511  3.9476 -0.2992  0.6722
   68CHL1   C20 7488   3.341   1.483   9.562  0.3858 -0.2450  0.0427
   68CHL1   H20 7489   3.268   1.403   9.537  0.6015  0.0829 -1.7067
   68CHL1   C21 7490   3.476   1.416   9.600 -0.5567 -0.3849  0.4663
   68CHL1  H21A 7491   3.519   1.373   9.506 -0.3325 -0.0615  0.4153
   68CHL1  H21B 7492   3.456   1.328   9.665 -1.2972 -0.4612  0.1383
   68CHL1  H21C 7493   3.556   1.485   9.635  0.8451  0.0958 -3.2163
   68CHL1   C22 7494   3.348   1.580   9.437 -0.3752  0.1425 -0.5146
   68CHL1  H22A 7495   3.249   1.627   9.417 -1.9697 -2.1519  1.4013
   68CHL1  H22B 7496   3.426   1.655   9.465 -2.0702  1.0611  2.1584
   68CHL1   C23 7497   3.384   1.498   9.308  0.8580 -0.5965 -0.1774
   68CHL1  H23A 7498   3.491   1.468   9.302  0.7410 -0.9582 -0.5314
   68CHL1  H23B 7499   3.321   1.407   9.310  1.5986 -1.1352 -0.9785
   68CHL1   C24 7500   3.352   1.572   9.179  0.3111  0.3130  0.2012
   68CHL1  H24A 7501   3.245   1.598   9.181 -0.2180 -1.7183  1.3300
   68CHL1  H24B 7502   3.420   1.660   9.171  1.1620 -0.4498 -1.3626
   68CHL1   C25 7503   3.375   1.490   9.048  0.0776 -0.3720  0.1938
   68CHL1   H25 7504   3.470   1.434   9.062 -0.2441 -0.9399  0.0902
   68CHL1   C26 7505   3.268   1.382   9.039  0.0550 -0.1044 -0.2271
   68CHL1  H26A 7506   3.252   1.314   9.125 -1.3044 -1.3604 -1.4120
   68CHL1  H26B 7507   3.171   1.423   9.002  0.1830  0.7080  0.2999
   68CHL1  H26C 7508   3.312   1.318   8.960  0.5815  0.7343 -0.6213
   68CHL1   C27 7509   3.384   1.577   8.925 -0.4483  0.2987  0.3973
   68CHL1  H27A 7510   3.381   1.509   8.837 -5.2008  0.6216  0.0630
   68CHL1  H27B 7511   3.305   1.654   8.916 -0.6150  0.0154 -0.7842
   68CHL1  H27C 7512   3.478   1.635   8.935 -1.2084  1.6989 -0.2639
   69CHL1    C3 7513   0.211   1.703   6.878  0.5030 -0.2618 -0.4949
   69CHL1    H3 7514   0.137   1.620   6.886  2.2682 -2.1846 -2.5595
   69CHL1    O3 7515   0.217   1.747   6.739 -0.0293 -0.3222  0.1645
   69CHL1   H3' 7516   0.295   1.804   6.741  0.1644 -0.5874  0.2395
   69CHL1    C4 7517   0.174   1.826   6.960  0.0852 -0.2804  0.1196
   69CHL1   H4A 7518   0.247   1.906   6.933 -0.6942  0.3936 -0.0047
   69CHL1   H4B 7519   0.076   1.863   6.925 -0.0943 -0.9487 -0.0985
   69CHL1    C5 7520   0.176   1.790   7.107  0.3892 -0.2114  0.2644
   69CHL1    C6 7521   0.063   1.802   7.175  0.4286 -0.0717 -0.3630
   69CHL1    H6 7522  -0.026   1.847   7.128  0.9534 -2.3949 -3.9526
   69CHL1    C7 7523   0.056   1.772   7.322  0.1366 -0.3702  0.1189
   69CHL1   H7A 7524   0.004   1.856   7.371  0.1971 -0.8810  1.0825
   69CHL1   H7B 7525   0.000   1.681   7.352 -0.0374 -0.4478 -0.4187
   69CHL1    C8 7526   0.192   1.776   7.397 -0.6883 -0.3921  0.6757
   69CHL1    H8 7527   0.230   1.880   7.404 -0.4313 -0.4356  0.0483
   69CHL1   C14 7528   0.178   1.722   7.542  0.7912 -0.3013  0.1818
   69CHL1   H14 7529   0.145   1.616   7.535 -2.3183  0.6308 -0.5516
   69CHL1   C15 7530   0.065   1.771   7.627  0.8774 -0.2923 -0.1957
   69CHL1  H15A 7531   0.052   1.881   7.632 -0.7369 -0.5099  2.2465
   69CHL1  H15B 7532  -0.036   1.737   7.595  1.7378 -1.6615 -1.6371
   69CHL1   C16 7533   0.107   1.725   7.769 -0.2269  0.0561 -0.5592
   69CHL1  H16A 7534   0.103   1.805   7.845  1.3897  0.1581 -0.5462
   69CHL1  H16B 7535   0.030   1.646   7.788  0.0362 -0.5268 -1.7869
   69CHL1   C17 7536   0.260   1.679   7.760 -0.0292 -0.3950 -0.0643
   69CHL1   H17 7537   0.261   1.568   7.760 -1.2747 -0.4355 -1.2527
   69CHL1   C13 7538   0.314   1.734   7.630  0.0180 -0.0607 -0.1001
   69CHL1   C18 7539   0.350   1.882   7.647 -0.1252  1.0128  0.3252
   69CHL1  H18A 7540   0.263   1.934   7.692 -0.6239 -0.7260  1.4700
   69CHL1  H18B 7541   0.442   1.897   7.708 -1.5604  1.6003  2.4357
   69CHL1  H18C 7542   0.374   1.918   7.545 -1.6574 -0.6635 -0.6692
   69CHL1   C12 7543   0.419   1.647   7.551 -0.2016 -0.3785  0.2576
   69CHL1  H12A 7544   0.515   1.622   7.603 -1.3857  0.0167  2.7903
   69CHL1  H12B 7545   0.357   1.555   7.557  0.1797 -0.5803  1.4792
   69CHL1   C11 7546   0.428   1.686   7.401  0.8015 -1.0049  0.0601
   69CHL1  H11A 7547   0.469   1.790   7.399 -1.4540 -0.0647 -1.9225
   69CHL1  H11B 7548   0.506   1.617   7.362  1.4124 -0.0731 -0.4324
   69CHL1    C9 7549   0.304   1.695   7.321  0.6483 -0.3492 -0.2732
   69CHL1    H9 7550   0.269   1.589   7.318 -0.2481 -0.0558 -0.4149
   69CHL1   C10 7551   0.308   1.739   7.165  0.7112  0.1789 -0.9704
   69CHL1   C19 7552   0.411   1.853   7.153  0.1946  0.1960 -0.4530
   69CHL1  H19A 7553   0.512   1.821   7.187  0.4314 -0.0718 -1.3828
   69CHL1  H19B 7554   0.422   1.887   7.048 -1.9574 -0.3444 -0.9205
   69CHL1  H19C 7555   0.378   1.933   7.223  2.6669  0.3452  0.6460
   69CHL1    C1 7556   0.357   1.624   7.074  0.7657  0.0969 -0.5402
   69CHL1   H1A 7557   0.451   1.588   7.122  0.4997  0.1769  0.0506
   69CHL1   H1B 7558   0.280   1.544   7.071 -0.8775  1.6058  0.0162
   69CHL1    C2 7559   0.356   1.661   6.919  0.1409  0.1210  0.2166
   69CHL1   H2A 7560   0.380   1.569   6.862  0.3478  0.4285 -0.1966
   69CHL1   H2B 7561   0.422   1.749   6.903  1.7643 -0.7374  1.7960
   69CHL1   C20 7562   0.325   1.732   7.892 -0.3303  0.7607 -0.3114
   69CHL1   H20 7563   0.311   1.842   7.893 -0.9038  0.6921 -0.3476
   69CHL1   C21 7564   0.478   1.701   7.897 -0.5619 -0.1866  0.2754
   69CHL1  H21A 7565   0.510   1.766   7.981 -1.1976  0.0915  0.3132
   69CHL1  H21B 7566   0.540   1.745   7.816 -2.3925 -1.5626 -1.9978
   69CHL1  H21C 7567   0.501   1.597   7.927  2.0386  0.8215  2.1975
   69CHL1   C22 7568   0.267   1.666   8.018 -0.0345  0.0299 -0.5188
   69CHL1  H22A 7569   0.157   1.661   8.003 -1.2287  2.5856  5.0492
   69CHL1  H22B 7570   0.301   1.560   8.024  2.0369  0.7327  1.8077
   69CHL1   C23 7571   0.301   1.741   8.146  0.0394 -0.1107  0.0763
   69CHL1  H23A 7572   0.411   1.753   8.157 -0.2869  1.9786  2.0357
   69CHL1  H23B 7573   0.265   1.846   8.144 -1.3112 -0.4017  3.2534
   69CHL1   C24 7574   0.256   1.678   8.279  0.2543  0.5497  0.2174
   69CHL1  H24A 7575   0.159   1.625   8.265  0.5786 -0.0324  0.1623
   69CHL1  H24B 7576   0.331   1.601   8.306  0.9641  1.0409 -0.3017
   69CHL1   C25 7577   0.259   1.778   8.393 -0.6972  0.0184 -0.2914
   69CHL1   H25 7578   0.188   1.860   8.367 -1.7781 -1.2758 -1.5699
   69CHL1   C26 7579   0.208   1.723   8.528  0.3204 -0.3154 -0.0639
   69CHL1  H26A 7580   0.189   1.810   8.594 -0.4441  0.4339 -1.2290
   69CHL1  H26B 7581   0.118   1.662   8.504  1.4731 -2.7926  1.4936
   69CHL1  H26C 7582   0.278   1.657   8.584  1.9049 -0.7362 -2.4013
   69CHL1   C27 7583   0.403   1.828   8.418 -0.1945  0.1463 -0.5962
   69CHL1  H27A 7584   0.471   1.748   8.453  0.7844 -0.1507 -2.9847
   69CHL1  H27B 7585   0.443   1.874   8.325 -0.8195 -0.9963 -1.4612
   69CHL1  H27C 7586   0.401   1.906   8.497 -2.2483 -1.4668  1.1061
   70CHL1    C3 7587   5.637   4.161   7.397 -0.4418  0.3694  0.4475
   70CHL1    H3 7588   5.533   4.135   7.427 -0.3507 -0.4226  0.0829
   70CHL1    O3 7589   5.634   4.198   7.258  0.2974 -0.3161 -0.0589
   70CHL1   H3' 7590   5.727   4.185   7.239  0.1017 -6.0657  0.9666
   70CHL1    C4 7591   5.702   4.267   7.483  0.0650 -0.2763  0.1859
   70CHL1   H4A 7592   5.806   4.294   7.456  0.0623 -0.2059  0.2463
   70CHL1   H4B 7593   5.643   4.359   7.466 -2.4883 -2.0994 -1.5594
   70CHL1    C5 7594   5.693   4.217   7.629  0.7011 -0.2823 -0.1424
   70CHL1    C6 7595   5.609   4.278   7.716 -0.4027  0.2524 -0.1302
   70CHL1    H6 7596   5.557   4.369   7.683  0.9562  0.8518 -0.6776
   70CHL1    C7 7597   5.598   4.235   7.861 -0.8545  0.0657 -0.2939
   70CHL1   H7A 7598   5.581   4.326   7.922  0.6249  1.6630 -2.1323
   70CHL1   H7B 7599   5.505   4.176   7.874 -1.9236  1.4746 -1.3505
   70CHL1    C8 7600   5.715   4.146   7.906 -0.0836  0.1615  0.8890
   70CHL1    H8 7601   5.812   4.199   7.909  0.3718 -0.4905 -1.1652
   70CHL1   C14 7602   5.683   4.089   8.041 -0.9612 -0.3228 -0.1557
   70CHL1   H14 7603   5.590   4.031   8.026 -0.2577 -0.9099 -2.6911
   70CHL1   C15 7604   5.659   4.187   8.157 -0.3162 -0.0547  0.7613
   70CHL1  H15A 7605   5.731   4.272   8.156 -2.3617  1.7516  0.8343
   70CHL1  H15B 7606   5.557   4.231   8.160 -1.0181 -1.1390 -2.6382
   70CHL1   C16 7607   5.694   4.108   8.287  0.4282 -0.3692  0.3641
   70CHL1  H16A 7608   5.765   4.161   8.354  0.5224 -1.9357  1.5555
   70CHL1  H16B 7609   5.598   4.096   8.340  0.4122  0.5298  0.5462
   70CHL1   C17 7610   5.754   3.968   8.244  0.5169 -0.0273  0.0347
   70CHL1   H17 7611   5.677   3.889   8.253  0.9526 -0.4926 -0.2264
   70CHL1   C13 7612   5.781   3.984   8.095  0.4812 -0.2874 -0.1034
   70CHL1   C18 7613   5.926   4.041   8.086 -0.3162  0.4883 -0.4533
   70CHL1  H18A 7614   5.952   4.066   7.981  0.0306 -1.3123 -0.8299
   70CHL1  H18B 7615   5.949   4.128   8.152 -1.5875  0.2385  0.3568
   70CHL1  H18C 7616   6.002   3.964   8.111 -1.4391 -0.6140 -0.3175
   70CHL1   C12 7617   5.776   3.865   8.003 -0.0915  0.2261  0.0771
   70CHL1  H12A 7618   5.838   3.778   8.032 -3.5317 -1.8406  1.9766
   70CHL1  H12B 7619   5.677   3.814   8.013  0.5676 -1.1175 -0.0481
   70CHL1   C11 7620   5.803   3.900   7.855  0.2767 -0.2343 -0.2569
   70CHL1  H11A 7621   5.911   3.927   7.853  0.5066 -1.1111 -0.2866
   70CHL1  H11B 7622   5.780   3.813   7.790 -1.5245 -1.0858  1.4182
   70CHL1    C9 7623   5.729   4.027   7.803 -0.0826 -0.1772  0.7251
   70CHL1    H9 7624   5.624   3.992   7.796 -0.3189  0.6385  0.0503
   70CHL1   C10 7625   5.765   4.082   7.662  0.2851 -0.1971  0.2526
   70CHL1   C19 7626   5.919   4.110   7.654  0.5636 -0.8355 -0.1957
   70CHL1  H19A 7627   5.966   4.160   7.742  1.4416 -1.6193 -0.2102
   70CHL1  H19B 7628   5.969   4.012   7.663  1.0400 -0.6580 -0.7943
   70CHL1  H19C 7629   5.950   4.162   7.561 -0.4086 -1.2589 -0.7739
   70CHL1    C1 7630   5.720   3.981   7.553 -0.2437 -0.4751 -0.4740
   70CHL1   H1A 7631   5.786   3.892   7.560  2.7156  1.5064 -1.0688
   70CHL1   H1B 7632   5.615   3.959   7.582  0.0190 -0.3209  0.6372
   70CHL1    C2 7633   5.722   4.026   7.405 -0.0192 -0.1737 -0.0682
   70CHL1   H2A 7634   5.691   3.948   7.332 -0.6729 -0.7372  0.7730
   70CHL1   H2B 7635   5.828   4.044   7.376 -0.3987  2.7880  0.1313
   70CHL1   C20 7636   5.857   3.922   8.341 -0.3198 -0.2312 -0.0306
   70CHL1   H20 7637   5.959   3.963   8.329 -0.4822  0.5730  1.1618
   70CHL1   C21 7638   5.874   3.770   8.309 -0.4033 -0.3264  0.1265
   70CHL1  H21A 7639   5.926   3.758   8.211  0.6478 -0.6348  0.7071
   70CHL1  H21B 7640   5.775   3.718   8.306 -0.6935  0.0183  2.2123
   70CHL1  H21C 7641   5.937   3.726   8.389 -0.4663 -0.3767  0.1489
   70CHL1   C22 7642   5.822   3.940   8.496  0.3611  0.2220 -0.2530
   70CHL1  H22A 7643   5.905   3.880   8.539 -0.3561 -1.5381 -1.2123
   70CHL1  H22B 7644   5.839   4.045   8.528  0.6359 -0.2489  1.2023
   70CHL1   C23 7645   5.693   3.881   8.537  1.2304  0.7835 -0.0496
   70CHL1  H23A 7646   5.607   3.932   8.488  1.4293  0.0923 -1.1637
   70CHL1  H23B 7647   5.683   3.773   8.511 -1.1599  0.7325  0.8147
   70CHL1   C24 7648   5.663   3.906   8.689  0.0293  0.8346 -0.2204
   70CHL1  H24A 7649   5.735   3.848   8.750  1.4615  3.0834  0.3525
   70CHL1  H24B 7650   5.699   4.007   8.720  2.7829 -0.2562  0.4034
   70CHL1   C25 7651   5.513   3.891   8.736  0.3178 -0.5501  0.2932
   70CHL1   H25 7652   5.466   3.829   8.657  1.3966  1.8832 -2.4839
   70CHL1   C26 7653   5.512   3.821   8.874 -0.2622 -0.3806  0.8095
   70CHL1  H26A 7654   5.561   3.888   8.948  1.4018 -1.8442  1.0978
   70CHL1  H26B 7655   5.411   3.798   8.913 -0.8223 -0.5810 -0.6795
   70CHL1  H26C 7656   5.579   3.732   8.878 -0.1367 -0.6917 -3.3901
   70CHL1   C27 7657   5.440   4.030   8.739  0.0480  0.0996 -0.6837
   70CHL1  H27A 7658   5.471   4.093   8.825 -0.7966  2.4033 -1.9514
   70CHL1  H27B 7659   5.449   4.085   8.643 -3.6474  0.0364 -1.2179
   70CHL1  H27C 7660   5.333   4.008   8.756  0.1822 -0.3360 -0.3818
   71CHL1    C3 7661   5.339   1.385   7.000  0.6018 -0.1279  0.0348
   71CHL1    H3 7662   5.239   1.406   7.042 -0.7947 -0.6986 -2.7710
   71CHL1    O3 7663   5.342   1.373   6.860  0.1130  0.0842 -0.2055
   71CHL1   H3' 7664   5.404   1.301   6.844  0.6986  0.3987  0.5830
   71CHL1    C4 7665   5.435   1.502   7.045  0.2686  0.5854  0.4410
   71CHL1   H4A 7666   5.532   1.480   6.996  0.0354 -0.5440  0.4626
   71CHL1   H4B 7667   5.382   1.598   7.023 -0.9960 -0.2368 -0.2339
   71CHL1    C5 7668   5.457   1.503   7.193  0.6089 -0.2832 -0.6688
   71CHL1    C6 7669   5.437   1.611   7.270  0.0349 -0.0008  0.0389
   71CHL1    H6 7670   5.422   1.709   7.221  1.5415 -0.0996 -0.6611
   71CHL1    C7 7671   5.456   1.626   7.418  0.0923 -0.5429  0.3377
   71CHL1   H7A 7672   5.515   1.716   7.442  0.9049 -0.7411 -0.8382
   71CHL1   H7B 7673   5.358   1.634   7.471  0.3603  2.8882  0.5388
   71CHL1    C8 7674   5.522   1.504   7.478 -0.0279  0.8220 -0.9376
   71CHL1    H8 7675   5.629   1.501   7.447 -0.0313  0.1535 -0.8969
   71CHL1   C14 7676   5.496   1.500   7.631  0.0285 -0.0532 -0.3527
   71CHL1   H14 7677   5.385   1.491   7.638  0.0883 -3.3012 -1.8210
   71CHL1   C15 7678   5.530   1.627   7.717  0.2021  0.4408 -0.2553
   71CHL1  H15A 7679   5.629   1.650   7.672 -0.1518  0.1701 -1.1924
   71CHL1  H15B 7680   5.456   1.709   7.710 -0.1943  0.0919 -0.1404
   71CHL1   C16 7681   5.541   1.575   7.857 -0.5315 -0.4590 -0.2967
   71CHL1  H16A 7682   5.630   1.613   7.912 -1.6187  0.4488  0.9009
   71CHL1  H16B 7683   5.453   1.613   7.912  0.5563  0.9453  0.5676
   71CHL1   C17 7684   5.532   1.421   7.853 -0.2291  0.1185 -0.1633
   71CHL1   H17 7685   5.423   1.404   7.865 -0.2116 -0.8944 -1.2685
   71CHL1   C13 7686   5.561   1.390   7.706  0.3194  0.3447  0.1765
   71CHL1   C18 7687   5.717   1.388   7.694 -0.6283  0.6152 -0.4394
   71CHL1  H18A 7688   5.754   1.374   7.591 -0.5789 -0.4259 -0.2965
   71CHL1  H18B 7689   5.766   1.471   7.748 -3.6872  1.1167  1.9209
   71CHL1  H18C 7690   5.752   1.293   7.740  0.1094  0.8991 -0.4058
   71CHL1   C12 7691   5.516   1.260   7.645 -0.4823 -0.0270  0.1862
   71CHL1  H12A 7692   5.553   1.159   7.674 -1.6786  0.1129  2.4431
   71CHL1  H12B 7693   5.406   1.255   7.658 -0.4665 -0.8128  0.0896
   71CHL1   C11 7694   5.534   1.245   7.494 -0.8598 -0.6212 -0.1139
   71CHL1  H11A 7695   5.642   1.232   7.470 -1.0152 -1.4420 -0.4005
   71CHL1  H11B 7696   5.477   1.154   7.464 -2.2903  0.0744  0.4281
   71CHL1    C9 7697   5.478   1.372   7.414  0.0067 -1.1385  0.5255
   71CHL1    H9 7698   5.367   1.367   7.425 -0.1534 -0.5737 -0.6438
   71CHL1   C10 7699   5.495   1.373   7.257 -0.2429  0.3756 -0.0186
   71CHL1   C19 7700   5.640   1.358   7.221  0.1622 -0.7520 -0.4828
   71CHL1  H19A 7701   5.707   1.443   7.248  0.3725 -0.4265 -1.9452
   71CHL1  H19B 7702   5.689   1.268   7.263  1.0743 -0.6599 -1.3057
   71CHL1  H19C 7703   5.647   1.345   7.111 -1.3809  1.0913 -0.8412
   71CHL1    C1 7704   5.416   1.245   7.196  0.3073  0.0637 -0.7109
   71CHL1   H1A 7705   5.468   1.151   7.221 -0.0328 -0.5397 -2.1720
   71CHL1   H1B 7706   5.312   1.251   7.235  0.9660  2.5045  0.9149
   71CHL1    C2 7707   5.390   1.247   7.048  0.1554  0.3137 -0.7195
   71CHL1   H2A 7708   5.330   1.157   7.024  1.4044 -1.2745  1.6282
   71CHL1   H2B 7709   5.487   1.231   6.997  0.1831  1.7215 -1.1340
   71CHL1   C20 7710   5.611   1.359   7.971 -0.4785  0.6205  0.4392
   71CHL1   H20 7711   5.715   1.394   7.959  0.2783 -2.1688 -2.3075
   71CHL1   C21 7712   5.614   1.201   7.947  0.0020 -0.1701 -0.4048
   71CHL1  H21A 7713   5.705   1.162   7.896  2.0901  2.0800  1.3048
   71CHL1  H21B 7714   5.522   1.158   7.903 -1.5247  0.3242  2.1063
   71CHL1  H21C 7715   5.625   1.148   8.044  2.9993 -1.2694 -1.2271
   71CHL1   C22 7716   5.547   1.408   8.101  0.4932 -0.1877 -0.8158
   71CHL1  H22A 7717   5.562   1.518   8.108  1.4241 -0.2594 -1.4763
   71CHL1  H22B 7718   5.440   1.379   8.107  0.1535  0.9757 -1.0316
   71CHL1   C23 7719   5.629   1.369   8.231  0.9806 -0.2882 -0.3072
   71CHL1  H23A 7720   5.641   1.259   8.242  1.0427 -0.1868  0.8188
   71CHL1  H23B 7721   5.728   1.418   8.218 -0.1508  1.9865 -0.8168
   71CHL1   C24 7722   5.560   1.409   8.360 -0.1401  0.8019  0.3637
   71CHL1  H24A 7723   5.505   1.503   8.338 -0.8883  0.3655  0.3728
   71CHL1  H24B 7724   5.481   1.337   8.387  0.9540 -0.0328  1.4748
   71CHL1   C25 7725   5.658   1.418   8.477 -0.8613  0.8249 -0.4223
   71CHL1   H25 7726   5.586   1.441   8.559 -0.1558  2.5042 -0.2292
   71CHL1   C26 7727   5.734   1.287   8.513 -0.3675  0.4316  0.1798
   71CHL1  H26A 7728   5.823   1.293   8.579 -0.5782 -0.3013  0.5286
   71CHL1  H26B 7729   5.663   1.207   8.541  0.0242  0.7137  2.1137
   71CHL1  H26C 7730   5.778   1.244   8.420 -1.6261 -1.3514  0.3629
   71CHL1   C27 7731   5.762   1.532   8.461  0.3520 -0.3959 -0.9679
   71CHL1  H27A 7732   5.851   1.496   8.406  0.9271 -1.3008  0.4989
   71CHL1  H27B 7733   5.721   1.627   8.420 -0.4980 -0.2426  0.1784
   71CHL1  H27C 7734   5.807   1.544   8.561  2.1595  1.9634 -1.9776
   72CHL1    C3 7735   6.358   4.841   7.506 -0.1608  0.5464  0.6840
   72CHL1    H3 7736   6.460   4.808   7.535  0.2744 -0.1371 -1.4029
   72CHL1    O3 7737   6.354   4.804   7.370 -0.4325 -0.1301  0.0436
   72CHL1   H3' 7738   6.287   4.864   7.334  1.3866  0.6228 -2.2911
   72CHL1    C4 7739   6.256   4.764   7.583  0.5919  0.1257 -0.7110
   72CHL1   H4A 7740   6.149   4.770   7.554  0.9340  0.0564 -2.0381
   72CHL1   H4B 7741   6.283   4.658   7.564  2.2368  0.2538  0.6807
   72CHL1    C5 7742   6.250   4.804   7.726 -0.1469  0.0298  0.0836
   72CHL1    C6 7743   6.284   4.717   7.822  0.3551 -0.0392 -0.6689
   72CHL1    H6 7744   6.308   4.612   7.799  0.2086  0.0007 -1.0069
   72CHL1    C7 7745   6.292   4.752   7.972  0.2622 -0.8410  0.0678
   72CHL1   H7A 7746   6.233   4.671   8.021 -1.3854  0.5829  0.5233
   72CHL1   H7B 7747   6.401   4.757   7.996  0.5120 -0.6099 -1.0523
   72CHL1    C8 7748   6.216   4.881   8.000 -0.0945 -0.1878 -0.0962
   72CHL1    H8 7749   6.111   4.864   7.969 -0.1741  1.4468 -0.8289
   72CHL1   C14 7750   6.224   4.918   8.152  0.0541  0.4403 -0.4899
   72CHL1   H14 7751   6.333   4.932   8.166  0.8810 -0.5992 -4.5026
   72CHL1   C15 7752   6.189   4.809   8.259  0.1378  0.6630  0.6447
   72CHL1  H15A 7753   6.095   4.758   8.229  0.6397 -1.3832  2.3516
   72CHL1  H15B 7754   6.267   4.732   8.278 -2.0942 -2.3002 -1.3085
   72CHL1   C16 7755   6.165   4.891   8.384 -0.4956 -0.2131 -0.0318
   72CHL1  H16A 7756   6.064   4.867   8.424  0.2870 -0.9774  1.5845
   72CHL1  H16B 7757   6.234   4.872   8.469 -1.0523  0.7630  0.6598
   72CHL1   C17 7758   6.172   5.043   8.343  0.1209  0.1926  0.7741
   72CHL1   H17 7759   6.278   5.077   8.355  0.2764 -0.9484  3.2753
   72CHL1   C13 7760   6.146   5.040   8.190  0.7951  0.5450  0.0227
   72CHL1   C18 7761   5.991   5.019   8.159 -0.0354 -0.7846 -0.0133
   72CHL1  H18A 7762   5.977   4.974   8.058  0.7237 -1.5925  0.2310
   72CHL1  H18B 7763   5.935   4.950   8.226 -1.2191  0.5662  0.4491
   72CHL1  H18C 7764   5.928   5.111   8.161 -0.4689 -1.0539  2.9480
   72CHL1   C12 7765   6.204   5.160   8.117  0.3361 -0.0439 -0.1303
   72CHL1  H12A 7766   6.139   5.247   8.137 -1.0393 -0.7703 -1.2148
   72CHL1  H12B 7767   6.308   5.190   8.142  0.3914 -1.0181  0.8615
   72CHL1   C11 7768   6.194   5.137   7.966 -0.2661  0.4088  0.2807
   72CHL1  H11A 7769   6.089   5.147   7.933 -0.3942  1.4818  0.9520
   72CHL1  H11B 7770   6.257   5.216   7.919 -1.4263  1.7287  0.8520
   72CHL1    C9 7771   6.258   4.996   7.910  0.6788 -0.3484  0.0881
   72CHL1    H9 7772   6.367   5.004   7.930  0.9533  1.3849 -1.7714
   72CHL1   C10 7773   6.236   4.962   7.759 -0.4228 -0.0715 -0.1644
   72CHL1   C19 7774   6.098   5.002   7.711  0.0621 -0.0128  0.5681
   72CHL1  H19A 7775   6.028   4.950   7.780 -0.9425  0.8350  0.2182
   72CHL1  H19B 7776   6.081   5.111   7.698 -2.3862 -0.4736 -1.0227
   72CHL1  H19C 7777   6.072   4.951   7.615 -0.5990 -1.5644  1.5316
   72CHL1    C1 7778   6.337   5.034   7.664  0.2268 -0.0367  0.5858
   72CHL1   H1A 7779   6.320   5.141   7.690  0.5834  0.1979 -0.1304
   72CHL1   H1B 7780   6.430   5.004   7.716  0.5642  3.0549  1.9729
   72CHL1    C2 7781   6.341   4.996   7.518  0.2220  0.2383  0.2430
   72CHL1   H2A 7782   6.423   5.047   7.462 -2.1340  1.9836 -1.8417
   72CHL1   H2B 7783   6.252   5.041   7.470  0.1865  1.2155  1.1715
   72CHL1   C20 7784   6.087   5.142   8.429 -0.0443 -0.4249  0.3453
   72CHL1   H20 7785   5.982   5.109   8.413 -0.1553 -0.7200  1.5769
   72CHL1   C21 7786   6.095   5.293   8.387  0.4442 -0.5860  0.2716
   72CHL1  H21A 7787   6.024   5.302   8.302 -0.1485  0.8104  0.8743
   72CHL1  H21B 7788   6.197   5.334   8.371  0.4916 -1.0107 -0.5824
   72CHL1  H21C 7789   6.034   5.346   8.463 -0.7187 -0.8791 -0.4356
   72CHL1   C22 7790   6.120   5.121   8.579  0.6298 -0.3478  0.0450
   72CHL1  H22A 7791   6.092   5.014   8.590 -0.5694 -0.1734 -1.1096
   72CHL1  H22B 7792   6.228   5.125   8.606  0.8810 -1.6341 -0.6978
   72CHL1   C23 7793   6.031   5.194   8.681 -0.7119  0.2310  0.4184
   72CHL1  H23A 7794   6.018   5.300   8.652  0.5992  0.7917  1.7554
   72CHL1  H23B 7795   5.930   5.146   8.676  0.5774 -2.7067  0.3658
   72CHL1   C24 7796   6.093   5.197   8.820  0.2857  0.1700 -0.4241
   72CHL1  H24A 7797   6.113   5.090   8.841 -1.0069  0.1262  0.7827
   72CHL1  H24B 7798   6.179   5.267   8.830 -1.0085  1.7377  0.1750
   72CHL1   C25 7799   5.990   5.254   8.920 -0.0006 -0.3158 -0.0893
   72CHL1   H25 7800   5.901   5.191   8.902 -0.0900  0.1796 -1.4610
   72CHL1   C26 7801   6.016   5.235   9.066  0.4011  0.4331 -0.0659
   72CHL1  H26A 7802   6.054   5.135   9.095  0.7151  0.9181  1.2602
   72CHL1  H26B 7803   6.100   5.300   9.096  1.1570 -1.0520  1.1486
   72CHL1  H26C 7804   5.930   5.260   9.132 -0.6755 -1.3004 -0.7363
   72CHL1   C27 7805   5.954   5.399   8.903  0.2824 -0.0829  0.1200
   72CHL1  H27A 7806   5.880   5.432   8.979  1.3854 -0.5555  1.4472
   72CHL1  H27B 7807   6.042   5.465   8.920 -0.3499  0.5083  1.1900
   72CHL1  H27C 7808   5.917   5.421   8.801 -2.1133  0.5524  1.0617
   73CHL1    C3 7809   3.814   2.498   7.342  0.1722 -0.2495 -0.2365
   73CHL1    H3 7810   3.915   2.513   7.297  0.2448  0.1451  0.0532
   73CHL1    O3 7811   3.714   2.487   7.236  0.2228 -0.5896  0.0684
   73CHL1   H3' 7812   3.727   2.563   7.179  2.5109 -1.0054 -0.0592
   73CHL1    C4 7813   3.822   2.356   7.412 -0.2083  0.1427 -0.3599
   73CHL1   H4A 7814   3.717   2.325   7.434  0.0513 -0.2744  0.3124
   73CHL1   H4B 7815   3.866   2.276   7.350  0.6888 -1.6427  2.3844
   73CHL1    C5 7816   3.902   2.361   7.545 -0.3926 -0.2810 -0.1411
   73CHL1    C6 7817   4.004   2.273   7.580 -0.2624 -0.5911 -0.3913
   73CHL1    H6 7818   4.045   2.200   7.508 -1.4283 -1.0707 -0.5913
   73CHL1    C7 7819   4.069   2.262   7.715 -0.3604 -0.9777  0.1811
   73CHL1   H7A 7820   4.076   2.155   7.743  0.2806 -1.2269 -0.8716
   73CHL1   H7B 7821   4.171   2.304   7.704  0.4840 -2.6491  1.2722
   73CHL1    C8 7822   3.996   2.350   7.826 -0.3293 -0.3560 -0.5068
   73CHL1    H8 7823   3.906   2.295   7.862 -0.3686  0.6057  0.9423
   73CHL1   C14 7824   4.085   2.373   7.944  0.2908  0.3778 -0.5967
   73CHL1   H14 7825   4.168   2.441   7.914 -0.2767  1.1581 -0.4279
   73CHL1   C15 7826   4.150   2.249   8.001 -0.4270  0.8837  0.7669
   73CHL1  H15A 7827   4.070   2.173   7.987  1.0198 -0.1342 -3.6618
   73CHL1  H15B 7828   4.237   2.207   7.948 -1.4265 -0.7792  0.3526
   73CHL1   C16 7829   4.187   2.287   8.145 -0.0622 -0.4563  0.1685
   73CHL1  H16A 7830   4.139   2.215   8.214 -0.9749 -0.4780 -0.4621
   73CHL1  H16B 7831   4.296   2.286   8.167  1.0081  1.2834 -4.0952
   73CHL1   C17 7832   4.127   2.427   8.174 -0.0935  0.6206  0.3648
   73CHL1   H17 7833   4.209   2.500   8.157  0.2328 -0.0023 -0.8562
   73CHL1   C13 7834   4.020   2.447   8.061 -0.7832 -0.2705  0.1704
   73CHL1   C18 7835   3.884   2.385   8.112 -0.1604 -1.1392  0.4101
   73CHL1  H18A 7836   3.913   2.284   8.151 -1.6715 -1.6522  0.2642
   73CHL1  H18B 7837   3.830   2.425   8.200  0.5315  2.6557 -0.7321
   73CHL1  H18C 7838   3.815   2.359   8.030  1.6332  0.6463 -1.8072
   73CHL1   C12 7839   3.997   2.590   8.012  0.2248  0.1413  0.2094
   73CHL1  H12A 7840   3.952   2.655   8.090 -0.1610  0.8366 -0.5801
   73CHL1  H12B 7841   4.092   2.641   7.981 -0.1823  0.8792  0.1555
   73CHL1   C11 7842   3.898   2.581   7.886 -0.7536 -0.8413 -0.5683
   73CHL1  H11A 7843   3.803   2.553   7.936  0.4691 -0.4309  2.1160
   73CHL1  H11B 7844   3.889   2.684   7.845  0.4480 -0.3213  0.4283
   73CHL1    C9 7845   3.946   2.482   7.773  1.0336  0.3088 -0.0148
   73CHL1    H9 7846   4.031   2.536   7.727 -0.4456  1.1392 -1.9359
   73CHL1   C10 7847   3.849   2.471   7.649  0.0089 -0.6833 -0.6376
   73CHL1   C19 7848   3.704   2.427   7.684  0.3051  0.5439 -0.2895
   73CHL1  H19A 7849   3.630   2.435   7.602 -0.6561 -1.5481  0.3020
   73CHL1  H19B 7850   3.700   2.322   7.720  1.6869  1.0862  1.5982
   73CHL1  H19C 7851   3.669   2.496   7.763 -1.9708 -0.5412 -0.2727
   73CHL1    C1 7852   3.858   2.609   7.573 -0.0670 -0.2371  0.2702
   73CHL1   H1A 7853   3.829   2.691   7.642 -1.6443 -0.7546  0.2688
   73CHL1   H1B 7854   3.962   2.634   7.544 -0.1335 -0.3829 -0.0939
   73CHL1    C2 7855   3.775   2.611   7.444  0.4418  0.2433  0.6680
   73CHL1   H2A 7856   3.784   2.711   7.397 -0.0540 -0.3767 -0.8092
   73CHL1   H2B 7857   3.669   2.593   7.469  0.1593 -1.5262 -1.5099
   73CHL1   C20 7858   4.087   2.442   8.319 -0.6132  0.1408 -0.1991
   73CHL1   H20 7859   4.005   2.371   8.339 -0.2757  0.2498  1.7378
   73CHL1   C21 7860   4.036   2.581   8.343  0.7018 -0.9827 -0.4950
   73CHL1  H21A 7861   3.932   2.590   8.306 -0.0758  0.5167  1.8229
   73CHL1  H21B 7862   4.085   2.660   8.281 -1.1984  0.8112  0.1674
   73CHL1  H21C 7863   4.046   2.616   8.448  2.4577 -1.6364 -0.4149
   73CHL1   C22 7864   4.195   2.406   8.425  0.5749  0.4964  0.2236
   73CHL1  H22A 7865   4.152   2.398   8.527 -0.5629 -2.6772 -0.3913
   73CHL1  H22B 7866   4.221   2.299   8.411  1.7234  0.6788  0.8619
   73CHL1   C23 7867   4.324   2.486   8.429  0.4735  0.3189  0.6788
   73CHL1  H23A 7868   4.367   2.488   8.326 -1.8208  0.7058 -0.3479
   73CHL1  H23B 7869   4.297   2.592   8.452  0.4788  0.1059  1.6882
   73CHL1   C24 7870   4.425   2.430   8.523 -0.6327  0.8386 -0.6354
   73CHL1  H24A 7871   4.406   2.472   8.625  1.7749  0.8155 -0.1146
   73CHL1  H24B 7872   4.429   2.319   8.516  2.2880  0.9620 -3.3501
   73CHL1   C25 7873   4.576   2.475   8.503 -0.1105 -0.8638 -0.3245
   73CHL1   H25 7874   4.611   2.463   8.398 -0.8103 -2.0295 -0.4472
   73CHL1   C26 7875   4.591   2.623   8.542 -0.3324  0.3290 -0.0894
   73CHL1  H26A 7876   4.514   2.679   8.485 -2.6329 -2.4575  0.0616
   73CHL1  H26B 7877   4.560   2.633   8.648  0.2923 -0.5791  0.1953
   73CHL1  H26C 7878   4.696   2.660   8.536 -1.1196  2.5779 -1.0879
   73CHL1   C27 7879   4.674   2.388   8.593  0.1507 -0.0232  0.1887
   73CHL1  H27A 7880   4.684   2.287   8.547  1.0425  0.4923 -0.8083
   73CHL1  H27B 7881   4.775   2.432   8.608  0.4236 -0.8683  0.9222
   73CHL1  H27C 7882   4.633   2.372   8.695  1.3571  1.5671  0.9617
   74CHL1    C3 7883   5.949   0.311   6.875  0.0676  0.4222  0.9510
   74CHL1    H3 7884   6.013   0.399   6.898 -0.9232  1.9761 -1.8397
   74CHL1    O3 7885   5.929   0.308   6.732 -0.7173  0.0117 -0.2692
   74CHL1   H3' 7886   6.016   0.285   6.697 -0.0524  0.1384  1.2312
   74CHL1    C4 7887   6.014   0.185   6.918  0.0784  0.1863 -0.3164
   74CHL1   H4A 7888   5.955   0.093   6.898  0.9638 -0.2318 -1.1151
   74CHL1   H4B 7889   6.104   0.175   6.854  0.8780  0.5657  0.7131
   74CHL1    C5 7890   6.046   0.186   7.069 -0.7549  0.6288  0.4518
   74CHL1    C6 7891   6.169   0.166   7.117  0.5801 -0.2302  0.7291
   74CHL1    H6 7892   6.246   0.134   7.045  0.4630  0.1699  0.4203
   74CHL1    C7 7893   6.199   0.163   7.264 -0.0720 -0.3324 -0.6710
   74CHL1   H7A 7894   6.254   0.069   7.287 -0.4524 -0.5354 -0.5814
   74CHL1   H7B 7895   6.262   0.251   7.287  0.1221 -0.9461  1.4396
   74CHL1    C8 7896   6.073   0.153   7.354 -0.0963  0.0864 -0.0380
   74CHL1    H8 7897   6.046   0.046   7.362 -1.0018  0.4055  1.7208
   74CHL1   C14 7898   6.101   0.204   7.501  0.4515  0.1112  0.2192
   74CHL1   H14 7899   6.142   0.307   7.497 -0.0389  0.2939 -0.2678
   74CHL1   C15 7900   6.211   0.124   7.578  0.4699 -0.4538 -0.2141
   74CHL1  H15A 7901   6.185   0.018   7.557 -1.7261 -0.1422  0.6825
   74CHL1  H15B 7902   6.315   0.148   7.546  0.6102 -0.7091  0.0466
   74CHL1   C16 7903   6.186   0.174   7.728  0.3938 -0.7897  0.2119
   74CHL1  H16A 7904   6.175   0.097   7.808 -1.8966 -0.6072  0.1444
   74CHL1  H16B 7905   6.268   0.245   7.751  0.9436 -1.2401 -0.3342
   74CHL1   C17 7906   6.056   0.265   7.723  0.8918  0.4698 -0.0762
   74CHL1   H17 7907   6.097   0.368   7.712  0.9102  0.3769 -0.9466
   74CHL1   C13 7908   5.984   0.218   7.592 -0.0045 -0.1049  0.1227
   74CHL1   C18 7909   5.921   0.082   7.625  0.0355 -0.6173 -0.2741
   74CHL1  H18A 7910   5.890   0.033   7.530 -1.4048 -0.7550  0.2447
   74CHL1  H18B 7911   5.980   0.012   7.688 -1.4297 -1.4522  0.2086
   74CHL1  H18C 7912   5.818   0.101   7.663  0.2448 -0.6632  0.3248
   74CHL1   C12 7913   5.885   0.313   7.523 -0.4658 -0.2437 -0.4113
   74CHL1  H12A 7914   5.790   0.327   7.579  0.2708  0.4142  0.7164
   74CHL1  H12B 7915   5.936   0.412   7.519 -0.8198  0.1722  2.7333
   74CHL1   C11 7916   5.841   0.263   7.387  0.5519 -0.0802  0.0272
   74CHL1  H11A 7917   5.793   0.165   7.409  1.5078 -0.5280  0.1813
   74CHL1  H11B 7918   5.764   0.334   7.349 -0.6532 -1.0632  0.5647
   74CHL1    C9 7919   5.965   0.239   7.295 -0.1544  0.5469 -0.6504
   74CHL1    H9 7920   6.010   0.341   7.296 -1.4633  1.2122 -3.1221
   74CHL1   C10 7921   5.925   0.203   7.153  0.0349 -0.3813  0.2903
   74CHL1   C19 7922   5.836   0.076   7.146  0.2214  0.1323  0.6998
   74CHL1  H19A 7923   5.816   0.020   7.052 -0.2207 -1.9915  1.9780
   74CHL1  H19B 7924   5.892   0.000   7.207 -0.4754 -0.5469  0.5134
   74CHL1  H19C 7925   5.739   0.100   7.193 -0.3764 -1.4956  0.3861
   74CHL1    C1 7926   5.845   0.326   7.099 -0.5007  0.3693  0.5534
   74CHL1   H1A 7927   5.746   0.341   7.146  0.2248  2.5174  1.5648
   74CHL1   H1B 7928   5.895   0.426   7.105  0.1743  0.1649 -1.1776
   74CHL1    C2 7929   5.813   0.319   6.947  0.1356 -0.3658 -0.1605
   74CHL1   H2A 7930   5.768   0.414   6.911  0.0775 -0.4479 -0.3027
   74CHL1   H2B 7931   5.747   0.231   6.932  2.6998 -2.6784  1.1451
   74CHL1   C20 7932   5.971   0.257   7.853  0.9466 -0.0904 -0.2684
   74CHL1   H20 7933   5.922   0.159   7.870  3.1207 -1.0665  0.8329
   74CHL1   C21 7934   5.856   0.365   7.852 -0.2128 -0.9302 -0.8220
   74CHL1  H21A 7935   5.783   0.348   7.769 -1.1541  0.8922 -0.4149
   74CHL1  H21B 7936   5.907   0.461   7.830 -0.7235 -0.3124  0.5685
   74CHL1  H21C 7937   5.793   0.365   7.944 -1.3606  1.5061 -1.5315
   74CHL1   C22 7938   6.059   0.290   7.979  0.0100 -0.5211 -0.1523
   74CHL1  H22A 7939   6.160   0.245   7.966 -0.0984 -1.8211  2.6039
   74CHL1  H22B 7940   6.062   0.399   8.001 -1.5580 -0.2199 -1.3123
   74CHL1   C23 7941   5.989   0.228   8.107  0.4896  0.4122  1.1467
   74CHL1  H23A 7942   5.882   0.257   8.112 -0.2695 -2.0099  0.5508
   74CHL1  H23B 7943   5.994   0.120   8.082 -0.1526  0.4287  0.9345
   74CHL1   C24 7944   6.070   0.261   8.230 -0.2094 -0.6026 -0.1997
   74CHL1  H24A 7945   6.025   0.218   8.323 -2.5884  0.8992 -0.5774
   74CHL1  H24B 7946   6.170   0.212   8.228  0.1084  0.0254 -0.0127
   74CHL1   C25 7947   6.080   0.412   8.273 -0.8808 -0.2245 -0.4100
   74CHL1   H25 7948   6.079   0.474   8.181 -2.4915  0.2605 -0.1033
   74CHL1   C26 7949   5.962   0.465   8.344 -0.1503 -0.6880  0.1647
   74CHL1  H26A 7950   5.867   0.448   8.288 -0.9319 -0.9366  1.5261
   74CHL1  H26B 7951   5.958   0.416   8.444  0.6961 -0.0146  0.5351
   74CHL1  H26C 7952   5.975   0.573   8.363  0.5555 -0.8571  0.6996
   74CHL1   C27 7953   6.205   0.444   8.354  0.4285  0.0648 -0.7276
   74CHL1  H27A 7954   6.194   0.418   8.461  0.2854  0.8926 -0.5369
   74CHL1  H27B 7955   6.289   0.382   8.314 -1.6942 -3.0757 -0.6794
   74CHL1  H27C 7956   6.236   0.551   8.351  2.4418 -0.4439  0.1031
   75CHL1    C3 7957   0.493   2.369   6.939 -1.2020 -0.2686 -0.0555
   75CHL1    H3 7958   0.439   2.460   6.972  0.8994  1.1168 -0.3439
   75CHL1    O3 7959   0.496   2.370   6.796 -0.1757  0.0575  0.2035
   75CHL1   H3' 7960   0.409   2.371   6.756 -0.5948  0.1859  1.1014
   75CHL1    C4 7961   0.632   2.369   6.992 -0.5202  0.2078 -0.3040
   75CHL1   H4A 7962   0.672   2.268   6.968  1.2909  0.4427  1.4934
   75CHL1   H4B 7963   0.697   2.446   6.946 -2.0026  0.7617 -1.5495
   75CHL1    C5 7964   0.634   2.385   7.145 -0.1999 -0.2037  0.3450
   75CHL1    C6 7965   0.697   2.489   7.211  0.4279 -0.1364  1.2693
   75CHL1    H6 7966   0.743   2.567   7.148 -1.8309  1.7360  1.7982
   75CHL1    C7 7967   0.692   2.510   7.361  0.4978 -0.1812  0.2829
   75CHL1   H7A 7968   0.782   2.552   7.410  0.8095 -0.8740  0.3169
   75CHL1   H7B 7969   0.607   2.575   7.392  1.3802 -0.3863  3.4857
   75CHL1    C8 7970   0.653   2.381   7.437 -0.2665  0.0819 -0.8540
   75CHL1    H8 7971   0.742   2.316   7.425  2.7489  3.0580  2.8956
   75CHL1   C14 7972   0.629   2.417   7.591 -0.5173  0.2450 -0.0327
   75CHL1   H14 7973   0.547   2.492   7.595 -2.7928 -2.0834 -0.0835
   75CHL1   C15 7974   0.760   2.473   7.658 -0.0002 -0.5050 -0.2087
   75CHL1  H15A 7975   0.847   2.415   7.622  0.2552 -1.7907  2.3090
   75CHL1  H15B 7976   0.772   2.582   7.641 -0.3165 -0.7260 -2.0327
   75CHL1   C16 7977   0.729   2.432   7.803 -0.8652  0.4149 -0.6434
   75CHL1  H16A 7978   0.809   2.362   7.834 -1.4182  0.4482  0.9142
   75CHL1  H16B 7979   0.725   2.522   7.868 -1.8382  0.2018 -0.3883
   75CHL1   C17 7980   0.594   2.364   7.813  0.5019  0.1532 -0.0086
   75CHL1   H17 7981   0.515   2.439   7.832  1.7998  1.8478 -1.0469
   75CHL1   C13 7982   0.577   2.296   7.678  0.1674 -0.2253  0.3037
   75CHL1   C18 7983   0.678   2.177   7.677  0.2678 -0.3414  0.1554
   75CHL1  H18A 7984   0.783   2.208   7.699  0.3043  0.9499 -1.6015
   75CHL1  H18B 7985   0.644   2.096   7.745 -4.3662 -0.3416 -1.8088
   75CHL1  H18C 7986   0.681   2.130   7.577 -0.5366 -0.6209  0.2567
   75CHL1   C12 7987   0.444   2.266   7.613  0.0617 -0.0168  0.0068
   75CHL1  H12A 7988   0.379   2.194   7.665 -1.4264 -0.9115 -2.8655
   75CHL1  H12B 7989   0.384   2.360   7.612 -0.2261 -0.2014 -0.6388
   75CHL1   C11 7990   0.465   2.217   7.464 -0.1013  0.0904 -0.1580
   75CHL1  H11A 7991   0.520   2.121   7.460  1.5879  1.0611 -1.7939
   75CHL1  H11B 7992   0.359   2.191   7.442  0.1797  0.2154 -1.7840
   75CHL1    C9 7993   0.533   2.323   7.372  0.0940 -0.6149 -0.3432
   75CHL1    H9 7994   0.464   2.409   7.365 -1.3677 -1.7912 -1.0468
   75CHL1   C10 7995   0.550   2.281   7.221  0.8578 -0.0615  0.6175
   75CHL1   C19 7996   0.612   2.142   7.202  0.4398 -0.2554  0.0007
   75CHL1  H19A 7997   0.545   2.069   7.251 -1.7411 -0.0944 -2.4923
   75CHL1  H19B 7998   0.627   2.103   7.099  2.3328  1.2411 -0.3475
   75CHL1  H19C 7999   0.709   2.131   7.254  0.8940 -1.3816 -1.0307
   75CHL1    C1 8000   0.407   2.267   7.149 -0.1875  1.0241 -0.7444
   75CHL1   H1A 8001   0.361   2.176   7.194 -0.6988  0.5706 -2.1226
   75CHL1   H1B 8002   0.349   2.360   7.167  0.7387  1.1753  1.9817
   75CHL1    C2 8003   0.412   2.253   6.991  0.2454  0.2897 -0.4302
   75CHL1   H2A 8004   0.313   2.266   6.941 -0.7115 -2.1421  0.6549
   75CHL1   H2B 8005   0.444   2.156   6.946  1.6783 -0.0819  1.2960
   75CHL1   C20 8006   0.583   2.279   7.948 -0.5062  0.2885 -0.1790
   75CHL1   H20 8007   0.672   2.213   7.953 -1.8043 -1.5839 -0.6489
   75CHL1   C21 8008   0.445   2.204   7.950  0.4617  0.1184  0.1901
   75CHL1  H21A 8009   0.444   2.141   7.858 -0.8325  0.6885 -0.2098
   75CHL1  H21B 8010   0.360   2.276   7.947  0.7459  0.5061  0.9604
   75CHL1  H21C 8011   0.433   2.148   8.045  1.5982  2.1845  1.6377
   75CHL1   C22 8012   0.597   2.379   8.068  0.2914 -0.3259 -0.2550
   75CHL1  H22A 8013   0.702   2.415   8.063  0.5072 -1.0333 -0.7500
   75CHL1  H22B 8014   0.516   2.455   8.061  1.2065  0.5771 -1.5086
   75CHL1   C23 8015   0.595   2.311   8.211  0.0308 -0.1867  0.2583
   75CHL1  H23A 8016   0.610   2.406   8.267 -1.3032 -0.4888  1.1754
   75CHL1  H23B 8017   0.489   2.284   8.231  0.1092  0.1979  1.2306
   75CHL1   C24 8018   0.696   2.203   8.232  0.0357 -0.1498  0.1865
   75CHL1  H24A 8019   0.688   2.131   8.148  1.5222  0.3988 -0.4770
   75CHL1  H24B 8020   0.797   2.249   8.216  0.3498 -0.8311  0.1743
   75CHL1   C25 8021   0.691   2.127   8.365  0.1088 -0.4203  0.2210
   75CHL1   H25 8022   0.587   2.094   8.385 -0.0984 -0.7592 -1.2629
   75CHL1   C26 8023   0.771   1.998   8.357 -0.0054  0.7945 -0.4231
   75CHL1  H26A 8024   0.875   2.028   8.331  1.4363 -0.4297  3.1715
   75CHL1  H26B 8025   0.771   1.938   8.451 -2.3530 -0.0336 -0.8952
   75CHL1  H26C 8026   0.739   1.928   8.278 -2.7584 -0.8621  1.9404
   75CHL1   C27 8027   0.741   2.218   8.476 -0.4309  0.9696 -0.0189
   75CHL1  H27A 8028   0.666   2.298   8.497 -3.0695 -1.1211 -1.0013
   75CHL1  H27B 8029   0.760   2.148   8.560  0.7966 -0.8919 -1.7512
   75CHL1  H27C 8030   0.843   2.252   8.447 -0.1453 -0.7878 -1.2202
   76CHL1    C3 8031   4.217   4.018   7.516  0.1735 -0.0968  0.3223
   76CHL1    H3 8032   4.301   3.946   7.531  1.0860  0.8516 -0.1005
   76CHL1    O3 8033   4.213   4.061   7.385  0.5807  0.4565  0.0312
   76CHL1   H3' 8034   4.126   4.097   7.370  0.4477  0.4000  0.6591
   76CHL1    C4 8035   4.086   3.950   7.546 -0.4366  0.2668 -0.0131
   76CHL1   H4A 8036   4.008   4.028   7.533  0.1987  0.9366  0.0875
   76CHL1   H4B 8037   4.059   3.871   7.473 -2.5127  0.9317 -0.0415
   76CHL1    C5 8038   4.092   3.909   7.690 -0.0469  0.4162  0.4555
   76CHL1    C6 8039   4.085   3.783   7.726  0.4171 -0.3048  0.1980
   76CHL1    H6 8040   4.067   3.704   7.651  0.6573  0.2571 -0.4580
   76CHL1    C7 8041   4.075   3.733   7.869  0.0629  1.1681 -0.5301
   76CHL1   H7A 8042   3.994   3.659   7.884  1.9342 -0.3598  3.2578
   76CHL1   H7B 8043   4.168   3.672   7.882 -0.9212 -0.1887  0.3511
   76CHL1    C8 8044   4.057   3.850   7.970 -0.1844  0.7160 -0.0703
   76CHL1    H8 8045   3.949   3.872   7.962  0.1033  2.4081  0.3951
   76CHL1   C14 8046   4.080   3.802   8.112  0.3330 -0.8842  0.2476
   76CHL1   H14 8047   4.187   3.772   8.111  0.9888  1.2867  0.3049
   76CHL1   C15 8048   3.996   3.690   8.158  0.7246  0.3470 -0.1395
   76CHL1  H15A 8049   3.888   3.712   8.144  0.6261  0.4349  0.6952
   76CHL1  H15B 8050   4.005   3.596   8.099 -1.3729  0.5819 -0.8961
   76CHL1   C16 8051   4.031   3.687   8.312 -0.3046  0.0886 -0.3485
   76CHL1  H16A 8052   3.950   3.660   8.383  0.1037  0.8212  0.4235
   76CHL1  H16B 8053   4.110   3.609   8.320 -1.4880 -1.2613 -1.3449
   76CHL1   C17 8054   4.080   3.830   8.350 -0.3004 -0.1049  0.2551
   76CHL1   H17 8055   4.189   3.819   8.363 -0.0537  0.8263 -0.8665
   76CHL1   C13 8056   4.065   3.908   8.219  0.0748 -0.3848 -0.1181
   76CHL1   C18 8057   3.921   3.968   8.221  0.0462  0.9715 -0.5143
   76CHL1  H18A 8058   3.907   4.047   8.298  0.5194  2.0345 -1.4830
   76CHL1  H18B 8059   3.898   4.011   8.121 -1.5811  0.9835 -0.1682
   76CHL1  H18C 8060   3.848   3.887   8.243 -0.5047  2.0701  2.0759
   76CHL1   C12 8061   4.160   4.020   8.190  0.3692  0.9475 -0.3804
   76CHL1  H12A 8062   4.138   4.100   8.264  1.6533 -0.1934  1.2987
   76CHL1  H12B 8063   4.266   3.993   8.208  0.0128  0.1761  0.6230
   76CHL1   C11 8064   4.143   4.084   8.050  0.0497  0.1200  0.1073
   76CHL1  H11A 8065   4.054   4.149   8.048 -0.3511 -0.4094  0.3096
   76CHL1  H11B 8066   4.227   4.155   8.037 -0.0322  0.3828  0.9196
   76CHL1    C9 8067   4.144   3.973   7.938 -0.5452 -0.2105  0.5056
   76CHL1    H9 8068   4.244   3.925   7.943 -1.0884 -1.3118  1.6309
   76CHL1   C10 8069   4.119   4.025   7.794 -0.1043 -0.0407 -0.4654
   76CHL1   C19 8070   3.993   4.113   7.798 -0.7229 -0.2975  0.2774
   76CHL1  H19A 8071   4.012   4.215   7.839 -4.0126  0.1655  0.8936
   76CHL1  H19B 8072   3.948   4.128   7.698  0.7817 -0.1375 -0.4163
   76CHL1  H19C 8073   3.916   4.072   7.867 -0.4987 -1.7652 -0.2998
   76CHL1    C1 8074   4.245   4.102   7.746  0.3698 -0.2014 -0.2188
   76CHL1   H1A 8075   4.268   4.188   7.813 -0.0274  0.1724 -0.5598
   76CHL1   H1B 8076   4.331   4.035   7.768 -0.1619 -0.1871  2.1615
   76CHL1    C2 8077   4.242   4.143   7.605  0.7575  0.1251  0.9031
   76CHL1   H2A 8078   4.328   4.201   7.565 -0.2987  1.3349  0.3112
   76CHL1   H2B 8079   4.157   4.213   7.590  0.7105 -0.0848  0.1170
   76CHL1   C20 8080   4.019   3.893   8.482 -0.3787 -0.4994 -0.0351
   76CHL1   H20 8081   4.025   4.003   8.468  1.2134 -0.8567 -2.7304
   76CHL1   C21 8082   4.110   3.855   8.600 -0.4012  0.6581 -0.2044
   76CHL1  H21A 8083   4.210   3.902   8.590 -0.5693  0.6423 -2.5313
   76CHL1  H21B 8084   4.133   3.747   8.604 -0.8808  0.5886  2.0243
   76CHL1  H21C 8085   4.066   3.895   8.695 -1.6240 -0.6750 -0.1767
   76CHL1   C22 8086   3.877   3.861   8.521  0.0664 -0.2627  0.0596
   76CHL1  H22A 8087   3.811   3.862   8.431  1.1636 -1.5914 -0.8232
   76CHL1  H22B 8088   3.866   3.755   8.555  2.7281 -0.1302  1.6043
   76CHL1   C23 8089   3.817   3.966   8.612 -0.5564 -0.4915  0.4158
   76CHL1  H23A 8090   3.887   3.990   8.694  1.0505 -1.1542 -0.7258
   76CHL1  H23B 8091   3.811   4.063   8.557  0.6919 -0.8922 -0.4714
   76CHL1   C24 8092   3.678   3.923   8.657  0.2041  0.7336  0.1504
   76CHL1  H24A 8093   3.617   3.901   8.567  0.2402  0.0494  0.2900
   76CHL1  H24B 8094   3.691   3.827   8.712 -1.2951  1.2939  1.5707
   76CHL1   C25 8095   3.609   4.016   8.756 -0.5736 -0.4627 -0.3936
   76CHL1   H25 8096   3.671   4.059   8.837  0.7845 -1.5634 -0.8098
   76CHL1   C26 8097   3.567   4.137   8.676  0.1466 -0.3330 -0.8807
   76CHL1  H26A 8098   3.650   4.184   8.619  0.8337  1.3262  1.3511
   76CHL1  H26B 8099   3.485   4.107   8.608  0.8912 -2.1618 -1.0550
   76CHL1  H26C 8100   3.546   4.211   8.756  0.2423 -0.1198 -1.0522
   76CHL1   C27 8101   3.487   3.952   8.816  0.2064 -0.0128 -0.1685
   76CHL1  H27A 8102   3.463   4.004   8.911 -1.4463 -1.3539  0.2017
   76CHL1  H27B 8103   3.405   3.948   8.741  1.9342  1.4204 -2.2716
   76CHL1  H27C 8104   3.497   3.848   8.853  1.5326 -0.0456 -0.5729
   77CHL1    C3 8105   6.138   3.096   7.102  0.1152 -0.0379  0.1524
   77CHL1    H3 8106   6.221   3.023   7.097  0.0732 -0.0150 -1.3382
   77CHL1    O3 8107   6.102   3.135   6.969  0.5095  0.0083 -0.8313
   77CHL1   H3' 8108   6.106   3.047   6.931  0.0759 -1.8247  2.9504
   77CHL1    C4 8109   6.018   3.023   7.167 -0.4969  0.8331  0.4794
   77CHL1   H4A 8110   5.930   3.088   7.149  0.6873  2.5827  0.6908
   77CHL1   H4B 8111   6.000   2.936   7.101  4.0154 -0.1896  0.2199
   77CHL1    C5 8112   6.047   2.991   7.307 -0.0824  0.3227  0.4226
   77CHL1    C6 8113   6.050   2.865   7.354  0.2072 -0.1729 -0.6065
   77CHL1    H6 8114   6.018   2.787   7.283 -3.8904 -1.3312  2.1928
   77CHL1    C7 8115   6.075   2.822   7.500  0.6887  0.6272 -0.1025
   77CHL1   H7A 8116   6.000   2.743   7.522  2.1029 -0.6260  0.3784
   77CHL1   H7B 8117   6.175   2.781   7.526 -0.3464 -2.1378 -0.1567
   77CHL1    C8 8118   6.071   2.944   7.594  0.6037  0.3233  0.9322
   77CHL1    H8 8119   5.967   2.979   7.611  0.9387  2.6381 -1.1631
   77CHL1   C14 8120   6.122   2.912   7.729 -0.3598 -0.2008  0.3677
   77CHL1   H14 8121   6.231   2.893   7.720 -0.2368 -0.5532  2.2099
   77CHL1   C15 8122   6.047   2.793   7.794 -0.5783  0.7226 -0.3797
   77CHL1  H15A 8123   5.938   2.813   7.795 -0.9629 -1.0912 -1.7344
   77CHL1  H15B 8124   6.075   2.694   7.752 -0.2469 -0.6476  2.7927
   77CHL1   C16 8125   6.102   2.812   7.936 -0.2886  0.2644 -0.6052
   77CHL1  H16A 8126   6.021   2.801   8.011 -0.3191  0.5987 -0.5832
   77CHL1  H16B 8127   6.185   2.740   7.949 -2.5161 -2.2144  0.7022
   77CHL1   C17 8128   6.159   2.955   7.961 -0.4455  0.0825 -0.7927
   77CHL1   H17 8129   6.269   2.936   7.954 -0.4179  0.6475 -2.1776
   77CHL1   C13 8130   6.118   3.033   7.833 -0.0736  0.1655 -0.4240
   77CHL1   C18 8131   5.968   3.075   7.865  0.1044 -0.0033  0.9104
   77CHL1  H18A 8132   5.914   3.105   7.773 -0.5041 -1.2044  0.8574
   77CHL1  H18B 8133   5.912   2.998   7.923  3.0909  0.4688  4.8295
   77CHL1  H18C 8134   5.971   3.163   7.933  1.2791  1.8093 -1.3521
   77CHL1   C12 8135   6.213   3.138   7.780 -0.9333  0.4840  1.2760
   77CHL1  H12A 8136   6.225   3.229   7.843 -1.6045  0.8006  0.9603
   77CHL1  H12B 8137   6.306   3.081   7.758 -0.6164  1.0142  1.2309
   77CHL1   C11 8138   6.174   3.179   7.641 -0.1507  0.0340 -0.1560
   77CHL1  H11A 8139   6.070   3.218   7.649  0.5158  2.0254 -0.6041
   77CHL1  H11B 8140   6.233   3.262   7.597 -1.7722  1.0541 -0.5070
   77CHL1    C9 8141   6.153   3.057   7.540 -0.3573 -0.6003  0.4528
   77CHL1    H9 8142   6.251   3.015   7.507 -0.9527 -1.9020  0.3125
   77CHL1   C10 8143   6.090   3.112   7.398 -0.4609 -0.8704  0.3141
   77CHL1   C19 8144   5.974   3.210   7.419 -0.2530  0.6688  0.0673
   77CHL1  H19A 8145   6.016   3.304   7.462  1.3385 -0.9128  2.1312
   77CHL1  H19B 8146   5.928   3.245   7.324  3.0016  0.8672 -1.5614
   77CHL1  H19C 8147   5.904   3.165   7.493  1.3088 -1.5988  0.2747
   77CHL1    C1 8148   6.208   3.187   7.325  0.1920 -0.0540 -0.6554
   77CHL1   H1A 8149   6.236   3.277   7.384  0.2019 -1.8414  2.2419
   77CHL1   H1B 8150   6.299   3.124   7.317 -0.0429 -0.5826  0.5608
   77CHL1    C2 8151   6.175   3.220   7.177  0.3630  0.7224  0.8710
   77CHL1   H2A 8152   6.254   3.287   7.136  3.2600 -2.4674  0.7808
   77CHL1   H2B 8153   6.087   3.287   7.169 -0.0724  0.4410  2.9595
   77CHL1   C20 8154   6.132   3.002   8.103  0.1973  0.0745  0.0495
   77CHL1   H20 8155   6.022   3.012   8.116  0.3207  1.9995 -0.1363
   77CHL1   C21 8156   6.185   3.145   8.129  0.3890  0.3070 -0.4291
   77CHL1  H21A 8157   6.132   3.186   8.218 -0.8252  0.2147 -1.0864
   77CHL1  H21B 8158   6.160   3.211   8.043 -1.2310 -1.2728 -1.2351
   77CHL1  H21C 8159   6.295   3.144   8.145 -0.0282  0.3126  3.4879
   77CHL1   C22 8160   6.183   2.897   8.209 -0.0393 -1.1190 -0.3744
   77CHL1  H22A 8161   6.134   2.800   8.186 -1.9508 -0.0363 -1.1402
   77CHL1  H22B 8162   6.290   2.885   8.185  0.1677 -1.7550  0.8016
   77CHL1   C23 8163   6.163   2.941   8.354 -0.8619  0.5094  0.4765
   77CHL1  H23A 8164   6.230   2.874   8.412  0.3963  0.2383 -1.2031
   77CHL1  H23B 8165   6.202   3.042   8.378  1.6836 -0.4637  0.7527
   77CHL1   C24 8166   6.023   2.922   8.402  0.1641 -0.3091 -0.0125
   77CHL1  H24A 8167   5.965   2.991   8.338  2.5287  0.7940 -1.0563
   77CHL1  H24B 8168   5.982   2.822   8.374  0.9021 -0.4238 -0.7236
   77CHL1   C25 8169   6.004   2.941   8.553 -0.7557  0.1574  0.5891
   77CHL1   H25 8170   6.081   2.872   8.594 -2.2825 -1.6706  0.5077
   77CHL1   C26 8171   6.014   3.087   8.585 -0.0586  0.7061  0.0244
   77CHL1  H26A 8172   5.966   3.146   8.504 -2.9760 -0.3142  0.8714
   77CHL1  H26B 8173   5.970   3.122   8.681  0.8454  1.0423  0.3189
   77CHL1  H26C 8174   6.119   3.122   8.585 -0.1126  0.8981 -1.1559
   77CHL1   C27 8175   5.871   2.885   8.614 -0.6358  0.0891  0.1343
   77CHL1  H27A 8176   5.867   2.875   8.724  0.1513 -0.2323  0.1431
   77CHL1  H27B 8177   5.787   2.950   8.581  0.4436  0.8823 -1.1717
   77CHL1  H27C 8178   5.860   2.780   8.581 -0.3519  0.4169 -1.0420
   78CHL1    C3 8179   6.057   3.842   7.040  0.0710 -0.0664 -0.3526
   78CHL1    H3 8180   6.045   3.951   7.060 -2.4787 -0.7983  2.8891
   78CHL1    O3 8181   6.050   3.820   6.901  0.7620  0.7837 -0.6834
   78CHL1   H3' 8182   6.116   3.884   6.872  3.3391 -0.6552  1.5159
   78CHL1    C4 8183   6.194   3.785   7.085 -0.6640 -0.0721 -0.1864
   78CHL1   H4A 8184   6.216   3.681   7.055  0.5978 -0.0557  0.6042
   78CHL1   H4B 8185   6.271   3.854   7.045 -0.7311  0.6346  0.8433
   78CHL1    C5 8186   6.207   3.779   7.236  0.4219  0.2224 -0.4473
   78CHL1    C6 8187   6.294   3.861   7.300  0.0290 -0.2275 -0.4704
   78CHL1    H6 8188   6.355   3.926   7.236  3.0158 -2.3933 -0.0264
   78CHL1    C7 8189   6.310   3.861   7.450  0.3563 -0.0309  0.0584
   78CHL1   H7A 8190   6.420   3.859   7.466  0.7373 -0.1291 -2.3041
   78CHL1   H7B 8191   6.275   3.963   7.477  1.2823  0.6391 -1.1779
   78CHL1    C8 8192   6.244   3.743   7.517  0.1919  0.5872 -0.0847
   78CHL1    H8 8193   6.294   3.646   7.492 -1.7031 -0.0481 -1.6761
   78CHL1   C14 8194   6.234   3.771   7.671  0.3191  0.5041 -0.3899
   78CHL1   H14 8195   6.165   3.858   7.679  0.2341  0.2691  3.9500
   78CHL1   C15 8196   6.352   3.811   7.745 -0.0198 -0.8036 -0.2171
   78CHL1  H15A 8197   6.435   3.741   7.722 -0.0896 -0.5316 -1.3583
   78CHL1  H15B 8198   6.375   3.917   7.724 -1.9537 -0.5285 -1.1285
   78CHL1   C16 8199   6.322   3.786   7.895 -0.0291  0.1176 -0.2475
   78CHL1  H16A 8200   6.404   3.730   7.945 -1.6638 -1.3177  0.9274
   78CHL1  H16B 8201   6.310   3.883   7.947 -1.8239 -1.4221  2.4511
   78CHL1   C17 8202   6.191   3.693   7.891 -0.1205  0.1382 -0.0457
   78CHL1   H17 8203   6.105   3.757   7.920 -0.2327 -0.5134  1.1344
   78CHL1   C13 8204   6.174   3.649   7.747 -0.2294 -0.3779  0.2051
   78CHL1   C18 8205   6.257   3.518   7.725 -0.5621 -0.5994 -0.3407
   78CHL1  H18A 8206   6.254   3.502   7.615  1.6742 -0.0588 -0.5247
   78CHL1  H18B 8207   6.363   3.526   7.756 -0.7955 -1.8442  0.8458
   78CHL1  H18C 8208   6.212   3.436   7.784 -0.5895 -1.5724 -1.6817
   78CHL1   C12 8209   6.022   3.636   7.703  0.5089  0.2207  1.1485
   78CHL1  H12A 8210   5.962   3.559   7.755 -1.6716 -0.4784 -2.1211
   78CHL1  H12B 8211   5.966   3.732   7.709  1.4354  0.6859  4.0661
   78CHL1   C11 8212   6.019   3.613   7.549 -0.4532  1.2248  0.2240
   78CHL1  H11A 8213   6.064   3.513   7.534  0.2201  1.7489 -1.4009
   78CHL1  H11B 8214   5.912   3.612   7.521 -0.1810 -1.9488 -1.0418
   78CHL1    C9 8215   6.099   3.720   7.464 -0.0681 -0.3914 -0.4059
   78CHL1    H9 8216   6.058   3.820   7.487  0.3628 -0.4190  0.5672
   78CHL1   C10 8217   6.099   3.695   7.314 -0.2770  0.4793  0.5906
   78CHL1   C19 8218   6.134   3.547   7.281 -0.6082 -0.6110  0.5476
   78CHL1  H19A 8219   6.153   3.525   7.173  1.5435 -2.8590  1.2955
   78CHL1  H19B 8220   6.234   3.516   7.317  0.1648 -0.8408 -1.6322
   78CHL1  H19C 8221   6.057   3.475   7.314 -0.5969 -1.1273 -0.4916
   78CHL1    C1 8222   5.963   3.743   7.252 -0.1152 -0.8840  0.4984
   78CHL1   H1A 8223   5.889   3.667   7.285 -0.8296 -0.8892 -1.0434
   78CHL1   H1B 8224   5.938   3.840   7.300  1.1600  0.0983 -0.7481
   78CHL1    C2 8225   5.946   3.760   7.099 -0.5535  0.1122  0.3169
   78CHL1   H2A 8226   5.848   3.811   7.085 -0.9627 -1.1593 -2.1380
   78CHL1   H2B 8227   5.933   3.663   7.046 -0.6098  0.1174  0.3201
   78CHL1   C20 8228   6.190   3.594   8.007  0.6256  0.5465 -0.3091
   78CHL1   H20 8229   6.273   3.522   7.994  0.3839  0.0964  0.5960
   78CHL1   C21 8230   6.065   3.505   8.012  0.0044  0.2780 -0.6913
   78CHL1  H21A 8231   6.064   3.429   8.093  0.1723  2.3606  1.3582
   78CHL1  H21B 8232   6.053   3.440   7.922  0.6062 -0.1648 -0.4585
   78CHL1  H21C 8233   5.978   3.573   8.014 -1.7213 -1.7843 -1.2491
   78CHL1   C22 8234   6.206   3.672   8.146 -0.4614  0.2512  0.0964
   78CHL1  H22A 8235   6.301   3.729   8.147  1.4377 -2.6578  1.1499
   78CHL1  H22B 8236   6.123   3.744   8.158 -1.3924 -0.6527 -0.7720
   78CHL1   C23 8237   6.210   3.579   8.266  0.2240  0.7826 -0.4272
   78CHL1  H23A 8238   6.109   3.538   8.288  1.7385 -2.6360  0.8995
   78CHL1  H23B 8239   6.284   3.499   8.242  0.1050  1.0125 -1.6406
   78CHL1   C24 8240   6.254   3.654   8.402  0.2854 -0.2194  0.5817
   78CHL1  H24A 8241   6.365   3.655   8.394  0.2221  0.5822 -0.4128
   78CHL1  H24B 8242   6.220   3.759   8.410  0.5009 -0.0422 -0.6658
   78CHL1   C25 8243   6.221   3.574   8.528  0.0964  0.2550 -0.2604
   78CHL1   H25 8244   6.296   3.608   8.603  1.3457 -0.9363 -0.9185
   78CHL1   C26 8245   6.076   3.598   8.584 -0.2908  0.0627 -0.6351
   78CHL1  H26A 8246   6.045   3.703   8.569  0.3528  0.4952  0.8762
   78CHL1  H26B 8247   6.007   3.518   8.550 -2.0906  0.6405  1.5084
   78CHL1  H26C 8248   6.078   3.588   8.694 -1.1089  0.7867 -0.5498
   78CHL1   C27 8249   6.248   3.426   8.515  1.6300 -0.1992  0.2924
   78CHL1  H27A 8250   6.353   3.398   8.489  0.8176 -4.3705  0.7384
   78CHL1  H27B 8251   6.227   3.363   8.605 -1.4239 -0.9735 -0.8330
   78CHL1  H27C 8252   6.170   3.391   8.444 -0.0265 -0.3803  2.1228
   79CHL1    C3 8253   3.523   3.914   7.429 -0.4534 -0.2886  0.7492
   79CHL1    H3 8254   3.548   4.020   7.451  1.4996 -0.7786  1.0812
   79CHL1    O3 8255   3.546   3.888   7.288 -0.0311 -1.1256 -0.3903
   79CHL1   H3' 8256   3.633   3.924   7.270  0.5585 -2.3612 -0.0512
   79CHL1    C4 8257   3.620   3.826   7.502 -0.5741 -0.4517 -0.0736
   79CHL1   H4A 8258   3.597   3.725   7.461 -0.0581 -0.3139 -0.7294
   79CHL1   H4B 8259   3.727   3.848   7.477 -1.2999  1.5925 -1.6974
   79CHL1    C5 8260   3.583   3.825   7.650 -0.3697 -0.6914  0.2873
   79CHL1    C6 8261   3.675   3.866   7.742  0.2894 -0.4194 -0.6253
   79CHL1    H6 8262   3.780   3.893   7.724  0.3002  0.1159  0.1540
   79CHL1    C7 8263   3.646   3.863   7.895 -0.1187 -1.0592 -0.1027
   79CHL1   H7A 8264   3.740   3.831   7.945  0.3448 -0.1274 -0.3595
   79CHL1   H7B 8265   3.635   3.971   7.918  1.1600 -1.1349  0.9694
   79CHL1    C8 8266   3.518   3.785   7.930  0.6861  0.4284  0.6118
   79CHL1    H8 8267   3.549   3.680   7.915 -0.7821 -0.0466  0.7245
   79CHL1   C14 8268   3.486   3.809   8.074 -0.0018 -0.6437  0.5555
   79CHL1   H14 8269   3.470   3.919   8.074 -0.5391 -0.7065 -0.9199
   79CHL1   C15 8270   3.588   3.783   8.183  0.5022 -0.0594  0.6361
   79CHL1  H15A 8271   3.632   3.682   8.168 -0.5237 -0.6028  1.1373
   79CHL1  H15B 8272   3.660   3.867   8.190  1.9318 -1.1673 -0.2906
   79CHL1   C16 8273   3.509   3.778   8.320 -0.0085 -0.2668  0.5092
   79CHL1  H16A 8274   3.549   3.686   8.368 -1.6818 -1.2269  0.1290
   79CHL1  H16B 8275   3.541   3.869   8.375  1.0832 -0.1090 -0.3403
   79CHL1   C17 8276   3.365   3.764   8.272  0.5227  0.5129 -0.0327
   79CHL1   H17 8277   3.331   3.869   8.284  0.6099  0.7508 -1.6884
   79CHL1   C13 8278   3.364   3.731   8.129  0.5336  0.0805  0.2786
   79CHL1   C18 8279   3.383   3.581   8.118 -0.0753  0.1500 -0.2065
   79CHL1  H18A 8280   3.297   3.529   8.165  1.3510 -0.1905  2.1668
   79CHL1  H18B 8281   3.388   3.543   8.014  2.8843 -1.3814  0.3879
   79CHL1  H18C 8282   3.469   3.552   8.183 -1.1796 -0.9443  0.8267
   79CHL1   C12 8283   3.242   3.774   8.040 -0.1349 -0.1156  0.9573
   79CHL1  H12A 8284   3.163   3.701   8.069 -0.5206  1.0829  3.1792
   79CHL1  H12B 8285   3.206   3.877   8.061 -1.7535 -1.0542  3.2709
   79CHL1   C11 8286   3.266   3.759   7.886  0.4660  1.1362 -0.4334
   79CHL1  H11A 8287   3.268   3.649   7.866 -0.3506  1.0095  0.1214
   79CHL1  H11B 8288   3.193   3.802   7.814 -0.3431 -1.8849 -1.5671
   79CHL1    C9 8289   3.401   3.821   7.840  0.4622 -0.6852  0.1796
   79CHL1    H9 8290   3.379   3.928   7.856  0.9098 -0.4255 -0.8965
   79CHL1   C10 8291   3.434   3.802   7.686  0.0901  0.5092  0.4822
   79CHL1   C19 8292   3.409   3.649   7.661  0.0547 -0.0754 -0.3163
   79CHL1  H19A 8293   3.301   3.625   7.651 -0.4577  1.8925  0.1315
   79CHL1  H19B 8294   3.450   3.619   7.562 -0.6268  0.6963 -0.8470
   79CHL1  H19C 8295   3.451   3.593   7.747  1.1812  1.5292  0.2383
   79CHL1    C1 8296   3.339   3.896   7.602 -0.1408  0.2786 -0.4350
   79CHL1   H1A 8297   3.234   3.862   7.611 -0.1301 -0.0064 -1.3154
   79CHL1   H1B 8298   3.345   4.001   7.639 -0.7826  0.3255 -0.4586
   79CHL1    C2 8299   3.377   3.890   7.457  0.2587  0.5739 -0.8129
   79CHL1   H2A 8300   3.316   3.964   7.400 -0.3705 -0.5015 -1.5726
   79CHL1   H2B 8301   3.369   3.785   7.422  0.8031  0.2802 -0.0752
   79CHL1   C20 8302   3.266   3.683   8.361 -0.0097  0.7100  0.4733
   79CHL1   H20 8303   3.315   3.584   8.377  1.2857  1.0813 -0.8973
   79CHL1   C21 8304   3.119   3.681   8.319 -1.4595  0.7974 -0.3606
   79CHL1  H21A 8305   3.051   3.637   8.395 -0.7259 -0.2696 -0.3005
   79CHL1  H21B 8306   3.110   3.609   8.235 -1.7197  0.0428  0.2944
   79CHL1  H21C 8307   3.099   3.779   8.272 -0.9685  0.5191 -1.1733
   79CHL1   C22 8308   3.278   3.734   8.503  0.5039 -0.2549 -0.1220
   79CHL1  H22A 8309   3.379   3.776   8.523 -0.1589  2.7573 -2.3095
   79CHL1  H22B 8310   3.210   3.816   8.532  1.0275 -0.0876  0.6594
   79CHL1   C23 8311   3.250   3.632   8.618 -0.4762  0.2870 -0.1847
   79CHL1  H23A 8312   3.161   3.570   8.594  0.4665 -1.1025 -0.2202
   79CHL1  H23B 8313   3.339   3.566   8.624  0.0415  1.0927  3.1426
   79CHL1   C24 8314   3.218   3.711   8.749  0.6152  0.6001 -0.0563
   79CHL1  H24A 8315   3.313   3.761   8.775  0.8851  0.0356  0.0451
   79CHL1  H24B 8316   3.142   3.790   8.726 -0.8788 -1.0335 -0.9651
   79CHL1   C25 8317   3.154   3.626   8.863  0.9859 -0.4438 -0.1633
   79CHL1   H25 8318   3.059   3.589   8.817  1.3050 -2.0390  0.3793
   79CHL1   C26 8319   3.230   3.491   8.895  0.4180 -0.0340  0.4243
   79CHL1  H26A 8320   3.271   3.444   8.803  1.2776 -2.2626  1.8780
   79CHL1  H26B 8321   3.321   3.518   8.953  0.9341  0.6232 -0.6449
   79CHL1  H26C 8322   3.164   3.430   8.959 -0.0450 -0.1932 -0.1969
   79CHL1   C27 8323   3.143   3.703   8.998 -0.3470  0.0362  0.7119
   79CHL1  H27A 8324   3.111   3.805   8.968  0.5720  0.0577 -0.2792
   79CHL1  H27B 8325   3.081   3.644   9.068 -0.5673 -0.9210 -0.2658
   79CHL1  H27C 8326   3.247   3.721   9.033  0.3029  0.7903 -1.4191
   80CHL1    C3 8327   5.904   1.736   7.157  0.7205  0.4082  0.2077
   80CHL1    H3 8328   5.797   1.760   7.173  1.1487  1.9852  0.9864
   80CHL1    O3 8329   5.926   1.715   7.014 -0.0398 -0.1422  0.0361
   80CHL1   H3' 8330   6.011   1.671   7.012  0.4870  0.8651 -0.1496
   80CHL1    C4 8331   5.995   1.848   7.210  0.3796 -0.2405  0.4792
   80CHL1   H4A 8332   6.101   1.819   7.191  0.6853  0.7760  0.5634
   80CHL1   H4B 8333   5.974   1.940   7.151 -0.1108  0.4364  1.6711
   80CHL1    C5 8334   5.984   1.865   7.357  0.3874 -0.4058  0.6256
   80CHL1    C6 8335   5.935   1.983   7.402 -0.1808  0.4031 -0.1874
   80CHL1    H6 8336   5.899   2.062   7.334  0.2000  0.5509 -0.2242
   80CHL1    C7 8337   5.929   2.025   7.541 -0.3930  0.1487  0.2920
   80CHL1   H7A 8338   5.975   2.124   7.558 -1.1349  1.2658 -3.3269
   80CHL1   H7B 8339   5.821   2.035   7.564 -0.1139 -0.1403  1.8450
   80CHL1    C8 8340   5.987   1.910   7.637  0.6546  0.5235  0.7485
   80CHL1    H8 8341   6.098   1.909   7.644  0.6335  0.1344  1.1060
   80CHL1   C14 8342   5.939   1.938   7.781 -0.8247  0.2419 -0.6837
   80CHL1   H14 8343   5.830   1.914   7.774 -0.6807 -0.3067 -1.1756
   80CHL1   C15 8344   5.937   2.081   7.834 -0.2166 -0.0363  0.0412
   80CHL1  H15A 8345   6.031   2.139   7.821 -0.7010  0.7969  0.2198
   80CHL1  H15B 8346   5.844   2.134   7.805  1.4101  2.8232 -0.2476
   80CHL1   C16 8347   5.929   2.054   7.992 -0.5480 -0.1306  1.4219
   80CHL1  H16A 8348   6.017   2.098   8.043 -0.9721  0.1988  1.8810
   80CHL1  H16B 8349   5.837   2.105   8.027 -1.8702 -0.2599 -1.5542
   80CHL1   C17 8350   5.912   1.900   8.015 -0.5862  0.2129 -0.2945
   80CHL1   H17 8351   5.804   1.879   7.998 -0.7757  0.1167  0.9605
   80CHL1   C13 8352   5.988   1.843   7.889  0.5405 -0.5382  0.2310
   80CHL1   C18 8353   6.135   1.844   7.910  0.4103 -1.2589  0.4533
   80CHL1  H18A 8354   6.161   1.950   7.930 -1.8676 -0.5524  0.0044
   80CHL1  H18B 8355   6.157   1.786   8.002 -1.4157  0.1615  1.8718
   80CHL1  H18C 8356   6.189   1.805   7.821 -1.1498  1.2664 -1.7445
   80CHL1   C12 8357   5.937   1.702   7.840  0.2562 -0.4411 -0.7779
   80CHL1  H12A 8358   5.963   1.622   7.912  0.6315 -0.5040 -0.9762
   80CHL1  H12B 8359   5.828   1.718   7.849  0.3070 -1.1333  1.5615
   80CHL1   C11 8360   5.985   1.661   7.700  0.4379  0.1977  0.3713
   80CHL1  H11A 8361   6.095   1.649   7.710  0.7252  0.7232 -1.6386
   80CHL1  H11B 8362   5.939   1.566   7.665 -0.7383  0.9207 -0.0994
   80CHL1    C9 8363   5.950   1.769   7.591  0.4674 -0.5457  1.1493
   80CHL1    H9 8364   5.839   1.777   7.585  0.6003  2.5296  1.2988
   80CHL1   C10 8365   5.997   1.740   7.443 -0.6364  0.1877 -1.1009
   80CHL1   C19 8366   6.144   1.688   7.455  0.5163 -0.2952 -0.2753
   80CHL1  H19A 8367   6.160   1.603   7.524  0.2561 -0.9201 -0.9785
   80CHL1  H19B 8368   6.189   1.670   7.355  2.8353  1.3815  0.3940
   80CHL1  H19C 8369   6.205   1.769   7.501  0.5833  0.6227 -1.9130
   80CHL1    C1 8370   5.906   1.627   7.374 -0.5645 -0.2212  0.4008
   80CHL1   H1A 8371   5.933   1.529   7.419  0.2178 -0.3357 -0.3015
   80CHL1   H1B 8372   5.800   1.658   7.390  0.1947  2.7554  0.1809
   80CHL1    C2 8373   5.931   1.603   7.229 -0.2528 -0.3617  0.1802
   80CHL1   H2A 8374   5.875   1.518   7.185  1.4884 -0.6729 -1.5698
   80CHL1   H2B 8375   6.039   1.582   7.213  0.1734  1.4231  0.4927
   80CHL1   C20 8376   5.944   1.847   8.155  0.0173 -0.2087  0.3653
   80CHL1   H20 8377   6.053   1.822   8.155  0.0502 -0.1424 -1.1333
   80CHL1   C21 8378   5.858   1.718   8.183 -0.2556 -0.3135  0.5612
   80CHL1  H21A 8379   5.895   1.672   8.277 -0.3016 -0.9146  0.2861
   80CHL1  H21B 8380   5.867   1.650   8.096  0.7557  1.5658 -0.8777
   80CHL1  H21C 8381   5.750   1.739   8.199 -0.2229  0.3151 -0.0220
   80CHL1   C22 8382   5.945   1.945   8.275  0.6510  0.1311 -0.0679
   80CHL1  H22A 8383   6.006   2.033   8.243  0.9177 -0.6562 -1.8209
   80CHL1  H22B 8384   5.837   1.970   8.278  0.7628  0.6839 -0.5136
   80CHL1   C23 8385   5.993   1.899   8.411  0.1524 -0.8525 -0.9108
   80CHL1  H23A 8386   5.930   1.811   8.437  1.5221 -2.0948 -1.6750
   80CHL1  H23B 8387   6.101   1.873   8.409  0.3274 -0.1860 -0.4247
   80CHL1   C24 8388   5.978   2.010   8.516  0.5665 -0.1285 -0.0027
   80CHL1  H24A 8389   6.049   2.093   8.497  0.1806  0.0143 -0.8646
   80CHL1  H24B 8390   5.879   2.056   8.498  0.3750 -1.3339 -2.4731
   80CHL1   C25 8391   5.967   1.956   8.663 -0.5851 -0.5812 -0.8958
   80CHL1   H25 8392   5.877   1.891   8.672  1.1492 -2.8279  2.6320
   80CHL1   C26 8393   6.093   1.886   8.714 -0.4255 -0.0438  0.1749
   80CHL1  H26A 8394   6.069   1.867   8.821 -1.0702 -0.8187 -0.0966
   80CHL1  H26B 8395   6.116   1.792   8.660  0.7459 -0.0063  0.5707
   80CHL1  H26C 8396   6.176   1.957   8.698 -0.7231  0.3882  0.5249
   80CHL1   C27 8397   5.934   2.073   8.752  0.0669 -0.2421 -0.0782
   80CHL1  H27A 8398   5.927   2.037   8.857 -1.3455 -0.2295 -0.1506
   80CHL1  H27B 8399   6.008   2.154   8.733  0.5093 -0.5275  0.4028
   80CHL1  H27C 8400   5.833   2.114   8.730  0.6686  0.8098 -0.9748
   81CHL1    C3 8401   4.613   2.059   7.248 -0.1159 -0.8049  0.3722
   81CHL1    H3 8402   4.723   2.075   7.249 -0.0599 -0.7398 -1.7102
   81CHL1    O3 8403   4.558   2.055   7.112 -0.1398 -0.1894  0.1965
   81CHL1   H3' 8404   4.488   1.991   7.127 -1.2942  1.1494  0.7218
   81CHL1    C4 8405   4.584   1.926   7.305 -0.4200 -0.1850 -0.0214
   81CHL1   H4A 8406   4.475   1.906   7.297 -0.4073 -1.4975  2.0752
   81CHL1   H4B 8407   4.628   1.850   7.238 -1.5734  1.4493 -2.7954
   81CHL1    C5 8408   4.590   1.915   7.460  0.7802  1.2097 -0.0091
   81CHL1    C6 8409   4.674   1.815   7.503  0.1872 -0.7825  0.7938
   81CHL1    H6 8410   4.690   1.738   7.426 -0.3956 -0.1554  0.0214
   81CHL1    C7 8411   4.698   1.801   7.649  0.6816 -0.4078 -0.1040
   81CHL1   H7A 8412   4.693   1.691   7.667  2.2106 -0.5802 -0.5653
   81CHL1   H7B 8413   4.800   1.838   7.674  0.6077  0.3837 -0.9411
   81CHL1    C8 8414   4.603   1.886   7.739 -0.2896  0.0490  0.3283
   81CHL1    H8 8415   4.507   1.830   7.740  0.7845 -1.9116 -0.5723
   81CHL1   C14 8416   4.665   1.887   7.875 -0.2580  0.2457  0.5269
   81CHL1   H14 8417   4.763   1.935   7.857 -0.2296 -0.0602 -0.1558
   81CHL1   C15 8418   4.691   1.752   7.940 -0.1543 -0.0326  0.1579
   81CHL1  H15A 8419   4.602   1.691   7.916  0.4672 -1.2090  0.7909
   81CHL1  H15B 8420   4.778   1.690   7.910 -0.3832  0.3448 -1.3877
   81CHL1   C16 8421   4.687   1.784   8.088  0.2996  0.3516  0.1941
   81CHL1  H16A 8422   4.604   1.730   8.139  2.5081 -1.0137  2.5935
   81CHL1  H16B 8423   4.784   1.755   8.135  0.2866  1.3583  0.8813
   81CHL1   C17 8424   4.671   1.940   8.104  0.5331 -0.5526  0.3892
   81CHL1   H17 8425   4.768   1.995   8.101 -0.4721  1.4826  2.5491
   81CHL1   C13 8426   4.595   1.977   7.975 -0.3225  0.5359 -0.2428
   81CHL1   C18 8427   4.451   1.925   7.997 -0.0795 -0.5503  0.3203
   81CHL1  H18A 8428   4.402   1.986   8.075 -0.9587 -1.3753  0.4201
   81CHL1  H18B 8429   4.388   1.922   7.905 -1.1737 -2.4607  1.0834
   81CHL1  H18C 8430   4.440   1.818   8.024 -0.5754 -1.3439 -2.6007
   81CHL1   C12 8431   4.594   2.123   7.925 -0.0131 -0.1550 -0.5586
   81CHL1  H12A 8432   4.553   2.188   8.005 -0.4461  0.4258 -1.2366
   81CHL1  H12B 8433   4.700   2.158   7.920 -0.4447  1.0676 -1.8772
   81CHL1   C11 8434   4.528   2.131   7.789  0.0591 -0.2900 -0.0681
   81CHL1  H11A 8435   4.420   2.107   7.797  0.1732 -1.2597 -1.0393
   81CHL1  H11B 8436   4.543   2.233   7.748 -1.0414  0.0312  0.3111
   81CHL1    C9 8437   4.590   2.030   7.690 -0.4111  0.2131 -0.0112
   81CHL1    H9 8438   4.694   2.069   7.683 -0.1882  0.0334  1.8057
   81CHL1   C10 8439   4.543   2.028   7.546  0.4077 -0.4997 -0.0792
   81CHL1   C19 8440   4.392   2.022   7.550 -0.6780 -0.4532 -0.8062
   81CHL1  H19A 8441   4.353   2.117   7.591  2.4556  0.2117  0.9931
   81CHL1  H19B 8442   4.336   2.010   7.455 -1.4345  0.5146 -0.4916
   81CHL1  H19C 8443   4.370   1.939   7.622 -1.3807 -1.7487 -2.4370
   81CHL1    C1 8444   4.588   2.161   7.475  0.4484  0.4374  0.2811
   81CHL1   H1A 8445   4.559   2.252   7.532 -0.7557  0.0193  0.3506
   81CHL1   H1B 8446   4.698   2.156   7.460  0.2232 -0.7534 -1.2972
   81CHL1    C2 8447   4.545   2.170   7.330  0.9768 -0.6004  0.2255
   81CHL1   H2A 8448   4.592   2.264   7.296  0.0472 -0.8015 -1.7205
   81CHL1   H2B 8449   4.434   2.163   7.329  1.0197 -1.3361 -0.4213
   81CHL1   C20 8450   4.611   1.986   8.243 -0.1375  0.3175  0.5310
   81CHL1   H20 8451   4.511   1.940   8.254  0.2947 -0.4402  1.4851
   81CHL1   C21 8452   4.590   2.137   8.252 -0.3587 -0.1037 -0.5442
   81CHL1  H21A 8453   4.681   2.187   8.212 -0.0910 -0.4365 -0.3637
   81CHL1  H21B 8454   4.569   2.165   8.358 -2.8071 -0.3393 -0.9237
   81CHL1  H21C 8455   4.499   2.169   8.199  0.5394  2.1904 -0.7966
   81CHL1   C22 8456   4.695   1.935   8.365  0.3252 -0.0962 -0.1713
   81CHL1  H22A 8457   4.732   1.834   8.340 -1.7095 -0.8869 -0.1789
   81CHL1  H22B 8458   4.783   2.003   8.359  0.8164 -0.8205 -1.2958
   81CHL1   C23 8459   4.621   1.931   8.505 -0.7182 -0.1941 -0.2010
   81CHL1  H23A 8460   4.549   2.016   8.508 -2.1926 -1.4158  0.4887
   81CHL1  H23B 8461   4.566   1.835   8.500  1.7696 -1.6647 -0.9832
   81CHL1   C24 8462   4.718   1.943   8.623  0.3456  0.6232  0.1126
   81CHL1  H24A 8463   4.787   1.856   8.612 -1.9280 -1.3225  0.4139
   81CHL1  H24B 8464   4.778   2.036   8.610  1.6521 -0.0400  1.2112
   81CHL1   C25 8465   4.650   1.939   8.756 -0.2160 -0.2650  0.0544
   81CHL1   H25 8466   4.557   1.998   8.747 -1.2795 -1.3237  2.8730
   81CHL1   C26 8467   4.608   1.799   8.784 -0.2958  0.8949 -0.3143
   81CHL1  H26A 8468   4.694   1.729   8.776  1.1927  2.7085 -1.1094
   81CHL1  H26B 8469   4.557   1.781   8.880  0.0813  2.7228  0.2706
   81CHL1  H26C 8470   4.532   1.764   8.710 -2.3713 -0.0823  2.1323
   81CHL1   C27 8471   4.739   2.001   8.864 -0.6274 -0.0855  0.2281
   81CHL1  H27A 8472   4.820   1.934   8.899 -0.0550  0.7257  0.4830
   81CHL1  H27B 8473   4.786   2.091   8.819 -0.2386 -1.7547 -2.9916
   81CHL1  H27C 8474   4.675   2.026   8.952 -1.1922 -1.3428  0.1941
   82CHL1    C3 8475   4.813   5.116   7.373  0.8714 -0.0350  0.2621
   82CHL1    H3 8476   4.719   5.058   7.382  0.8743 -0.3512 -1.5707
   82CHL1    O3 8477   4.870   5.092   7.250  0.2053  0.2761  0.0036
   82CHL1   H3' 8478   4.965   5.103   7.254  0.3130 -0.7048  0.6908
   82CHL1    C4 8479   4.785   5.271   7.393 -0.3456  0.5049  0.8343
   82CHL1   H4A 8480   4.869   5.337   7.362 -0.5611  0.3381 -0.1664
   82CHL1   H4B 8481   4.704   5.298   7.322  0.1399  0.1099  0.1085
   82CHL1    C5 8482   4.756   5.311   7.537 -0.0558  0.2491 -0.0195
   82CHL1    C6 8483   4.646   5.380   7.552 -0.8617 -0.2376  0.2500
   82CHL1    H6 8484   4.590   5.421   7.467  0.4477 -0.1949 -0.6285
   82CHL1    C7 8485   4.593   5.426   7.684  0.3960  0.5029 -0.4197
   82CHL1   H7A 8486   4.562   5.532   7.689 -3.1421 -0.4303  1.3730
   82CHL1   H7B 8487   4.501   5.367   7.705  0.6596  0.7676  1.8029
   82CHL1    C8 8488   4.693   5.392   7.796  0.3439 -0.4551 -0.1553
   82CHL1    H8 8489   4.780   5.460   7.790 -0.0468  0.1940  1.1316
   82CHL1   C14 8490   4.628   5.403   7.927 -0.6282  0.0674  0.1461
   82CHL1   H14 8491   4.549   5.325   7.942  1.2764 -1.7101  1.3927
   82CHL1   C15 8492   4.546   5.529   7.965  0.2461  0.6444  0.0127
   82CHL1  H15A 8493   4.600   5.622   7.937  1.3167  0.2890  0.8461
   82CHL1  H15B 8494   4.443   5.522   7.923  0.2189 -1.7286  0.3618
   82CHL1   C16 8495   4.542   5.522   8.124 -0.4655 -0.3863  0.0728
   82CHL1  H16A 8496   4.591   5.614   8.163 -0.8265 -0.2381  0.1842
   82CHL1  H16B 8497   4.437   5.533   8.159 -0.4206  1.1738 -0.1911
   82CHL1   C17 8498   4.613   5.396   8.168  0.5356  0.1676 -0.7055
   82CHL1   H17 8499   4.530   5.322   8.167 -1.8535  2.6771 -0.0971
   82CHL1   C13 8500   4.714   5.367   8.051  0.4012  0.0310 -0.8683
   82CHL1   C18 8501   4.833   5.460   8.068  0.1814 -0.1001  0.2871
   82CHL1  H18A 8502   4.804   5.566   8.086  2.9825  0.6034  1.1673
   82CHL1  H18B 8503   4.902   5.439   8.153 -2.0944 -1.3456  1.9388
   82CHL1  H18C 8504   4.903   5.453   7.982 -0.5700  1.1797 -0.4485
   82CHL1   C12 8505   4.762   5.222   8.041  0.3448  0.1727 -0.1987
   82CHL1  H12A 8506   4.832   5.201   8.125 -0.2525  0.6474  0.4254
   82CHL1  H12B 8507   4.665   5.169   8.042  0.0444  0.7245  0.3706
   82CHL1   C11 8508   4.831   5.202   7.903 -0.0727 -0.6145  0.2476
   82CHL1  H11A 8509   4.931   5.251   7.897 -0.4481  0.0501 -0.9418
   82CHL1  H11B 8510   4.848   5.093   7.895 -1.2290 -0.7610 -0.4822
   82CHL1    C9 8511   4.756   5.255   7.775 -0.5673 -0.9330 -1.2123
   82CHL1    H9 8512   4.667   5.189   7.777 -0.8431 -0.6155  2.1796
   82CHL1   C10 8513   4.842   5.245   7.646  1.6510  0.7926 -0.0377
   82CHL1   C19 8514   4.984   5.314   7.659  0.1383  0.2911 -0.5263
   82CHL1  H19A 8515   4.967   5.423   7.673 -2.1508 -0.1893  1.1340
   82CHL1  H19B 8516   5.041   5.271   7.744 -2.0459 -1.3610  0.2128
   82CHL1  H19C 8517   5.039   5.299   7.564  1.7871 -1.6588  0.6372
   82CHL1    C1 8518   4.864   5.095   7.616 -0.3108 -0.3884  0.3344
   82CHL1   H1A 8519   4.949   5.061   7.680  1.6493 -0.0566 -1.9548
   82CHL1   H1B 8520   4.767   5.043   7.631 -1.3678  1.0088 -1.2857
   82CHL1    C2 8521   4.913   5.058   7.476 -0.6106  0.1466 -0.1175
   82CHL1   H2A 8522   4.920   4.949   7.460 -2.2410  0.3034 -2.3769
   82CHL1   H2B 8523   5.016   5.098   7.466 -0.5933  0.4921  1.1968
   82CHL1   C20 8524   4.664   5.412   8.310  0.6739  0.0347 -0.0329
   82CHL1   H20 8525   4.755   5.473   8.298  1.7067 -1.4711 -0.1868
   82CHL1   C21 8526   4.704   5.274   8.364  0.2242  0.5064  0.2722
   82CHL1  H21A 8527   4.632   5.195   8.333  1.5836 -1.2281  1.3552
   82CHL1  H21B 8528   4.700   5.271   8.475  1.0309 -1.5186  0.2772
   82CHL1  H21C 8529   4.806   5.245   8.331  0.1953  0.9549 -0.2263
   82CHL1   C22 8530   4.561   5.479   8.399 -0.5195  0.0741 -1.3744
   82CHL1  H22A 8531   4.518   5.574   8.362 -1.5736  1.4097  2.8336
   82CHL1  H22B 8532   4.480   5.408   8.425  0.5954 -0.7772 -0.1169
   82CHL1   C23 8533   4.618   5.526   8.536 -0.9940 -0.2702  0.4288
   82CHL1  H23A 8534   4.649   5.441   8.600 -0.6578 -0.4409  0.0494
   82CHL1  H23B 8535   4.708   5.581   8.501  0.1495 -1.5176  1.3035
   82CHL1   C24 8536   4.519   5.611   8.611  0.0589  0.5176 -0.2533
   82CHL1  H24A 8537   4.504   5.710   8.563  2.1985  0.4834 -1.0797
   82CHL1  H24B 8538   4.425   5.554   8.626  1.2096 -1.7118 -1.1106
   82CHL1   C25 8539   4.568   5.631   8.756  0.4925  0.4612  0.5303
   82CHL1   H25 8540   4.583   5.536   8.811 -0.3409  0.5595  0.9406
   82CHL1   C26 8541   4.708   5.694   8.762 -0.1300  0.4218  0.0466
   82CHL1  H26A 8542   4.722   5.767   8.846  2.7589  0.4358 -0.3260
   82CHL1  H26B 8543   4.785   5.614   8.768  1.6493  2.0871  0.6248
   82CHL1  H26C 8544   4.742   5.754   8.675  2.5605 -0.6477  0.2478
   82CHL1   C27 8545   4.466   5.719   8.840  0.6087  0.0031  0.1116
   82CHL1  H27A 8546   4.491   5.727   8.948 -1.9624  0.5446  0.7411
   82CHL1  H27B 8547   4.479   5.823   8.804  2.7508 -1.1691 -2.9263
   82CHL1  H27C 8548   4.362   5.683   8.820  1.1020 -1.7167  0.4690
   83CHL1    C3 8549   3.024   3.489   7.175  0.1270 -0.9709 -0.1155
   83CHL1    H3 8550   2.913   3.492   7.183  0.0331  1.1406 -1.3858
   83CHL1    O3 8551   3.060   3.537   7.040 -0.3215  0.6589  0.1864
   83CHL1   H3' 8552   2.997   3.492   6.983  1.1020  0.9204 -1.6713
   83CHL1    C4 8553   3.081   3.594   7.272  0.4969 -0.6675 -0.2328
   83CHL1   H4A 8554   3.189   3.615   7.257  0.8507 -2.6559 -0.8860
   83CHL1   H4B 8555   3.030   3.690   7.251  1.4504 -0.1971 -0.4857
   83CHL1    C5 8556   3.054   3.550   7.417 -0.4202  0.1590 -0.3805
   83CHL1    C6 8557   2.987   3.630   7.504  0.2972  0.1340 -0.0406
   83CHL1    H6 8558   2.969   3.735   7.477  2.6324  0.0038 -2.6304
   83CHL1    C7 8559   2.955   3.590   7.646 -0.0701  0.6271 -0.5114
   83CHL1   H7A 8560   2.985   3.668   7.719 -0.1664 -1.9815  2.5405
   83CHL1   H7B 8561   2.846   3.572   7.652  0.1504 -0.3376  1.5703
   83CHL1    C8 8562   3.041   3.467   7.689 -0.2269 -0.2483  0.7013
   83CHL1    H8 8563   3.148   3.491   7.704  0.4273 -2.2418 -0.3405
   83CHL1   C14 8564   2.977   3.410   7.818  0.8545 -0.4013 -0.2961
   83CHL1   H14 8565   2.877   3.377   7.782 -0.0679  1.2355  0.6466
   83CHL1   C15 8566   2.964   3.499   7.940 -0.0192  0.0892 -0.7799
   83CHL1  H15A 8567   3.062   3.551   7.945  0.6019 -1.1264  1.1764
   83CHL1  H15B 8568   2.880   3.572   7.935  0.4653  0.7639  0.4048
   83CHL1   C16 8569   2.947   3.403   8.057 -0.2409  0.3063  0.8478
   83CHL1  H16A 8570   3.034   3.427   8.121 -0.0950  2.0725  0.0336
   83CHL1  H16B 8571   2.855   3.411   8.120 -0.0745 -1.6826  1.3973
   83CHL1   C17 8572   2.966   3.260   7.995 -0.2194  0.1550 -0.8157
   83CHL1   H17 8573   2.870   3.228   7.949 -0.4387  2.0837 -1.7947
   83CHL1   C13 8574   3.044   3.282   7.870 -0.5528 -0.2122  0.5783
   83CHL1   C18 8575   3.200   3.306   7.890 -0.1060 -0.4621 -0.5617
   83CHL1  H18A 8576   3.244   3.333   7.791  0.5178 -0.5156 -0.2990
   83CHL1  H18B 8577   3.225   3.384   7.965  1.7231 -1.4699 -0.0622
   83CHL1  H18C 8578   3.249   3.212   7.923 -0.4203 -0.9569 -1.4542
   83CHL1   C12 8579   3.027   3.173   7.760  0.0847 -0.0645 -0.3054
   83CHL1  H12A 8580   3.064   3.076   7.798  1.4728 -0.0497 -1.5242
   83CHL1  H12B 8581   2.918   3.157   7.752  0.2345 -1.7560  0.6347
   83CHL1   C11 8582   3.080   3.215   7.623 -0.1353  0.4361  0.2160
   83CHL1  H11A 8583   3.190   3.218   7.610 -0.1619  3.2511  0.0268
   83CHL1  H11B 8584   3.045   3.135   7.555 -0.3233 -0.5052  1.3891
   83CHL1    C9 8585   3.033   3.357   7.574  0.0953  0.0806  0.4362
   83CHL1    H9 8586   2.926   3.354   7.544  1.2928 -0.3757 -4.7349
   83CHL1   C10 8587   3.096   3.404   7.439 -0.2896 -0.2610 -1.0190
   83CHL1   C19 8588   3.253   3.392   7.444 -0.0454 -1.0122 -0.6249
   83CHL1  H19A 8589   3.283   3.285   7.454  0.1240 -0.8813  0.3960
   83CHL1  H19B 8590   3.288   3.445   7.354  1.3634 -1.4258 -0.3374
   83CHL1  H19C 8591   3.296   3.452   7.527 -0.9821 -1.1119 -0.0505
   83CHL1    C1 8592   3.041   3.302   7.331  0.5123 -0.5506 -0.5666
   83CHL1   H1A 8593   3.087   3.203   7.351  0.5013 -0.4116  0.1749
   83CHL1   H1B 8594   2.933   3.297   7.356  0.3944 -3.0458 -1.3135
   83CHL1    C2 8595   3.074   3.343   7.190 -0.2321 -0.4543 -0.7465
   83CHL1   H2A 8596   3.024   3.278   7.114 -0.0969  1.3938 -2.4947
   83CHL1   H2B 8597   3.182   3.354   7.169 -0.0428 -0.7869  0.0298
   83CHL1   C20 8598   3.020   3.148   8.085 -0.2829 -0.2000 -0.6292
   83CHL1   H20 8599   3.078   3.077   8.023 -0.0083 -0.9476  0.4498
   83CHL1   C21 8600   2.897   3.078   8.147  0.2432 -0.2715 -0.6576
   83CHL1  H21A 8601   2.870   3.142   8.234  0.4293 -1.7789  0.5477
   83CHL1  H21B 8602   2.931   2.982   8.191  1.0237  0.0120 -0.6278
   83CHL1  H21C 8603   2.805   3.058   8.088 -0.7777  0.6219  0.5588
   83CHL1   C22 8604   3.113   3.199   8.198  0.4898  0.1880  0.1977
   83CHL1  H22A 8605   3.196   3.259   8.154  0.0778 -0.1249 -1.0248
   83CHL1  H22B 8606   3.061   3.273   8.263 -0.2428  1.7996 -2.1190
   83CHL1   C23 8607   3.199   3.090   8.271  1.0348  0.3689 -0.3471
   83CHL1  H23A 8608   3.136   3.006   8.308  2.4562 -0.7681 -0.4260
   83CHL1  H23B 8609   3.271   3.048   8.197 -0.4588 -0.9958 -1.1042
   83CHL1   C24 8610   3.294   3.129   8.388  0.0812  0.7450  0.5147
   83CHL1  H24A 8611   3.337   3.027   8.403 -1.6185 -0.6466 -2.9088
   83CHL1  H24B 8612   3.376   3.194   8.350  0.2092  0.1344 -0.3090
   83CHL1   C25 8613   3.229   3.183   8.511 -0.1128 -0.2071 -0.0141
   83CHL1   H25 8614   3.175   3.275   8.479 -2.3493 -2.0020 -1.8159
   83CHL1   C26 8615   3.117   3.093   8.575  0.0141  0.1227 -0.6080
   83CHL1  H26A 8616   3.076   3.145   8.665  1.9122  0.9234 -0.1613
   83CHL1  H26B 8617   3.036   3.074   8.501 -1.8825  0.2896  1.3066
   83CHL1  H26C 8618   3.144   2.993   8.613  0.3172  0.5336  0.2701
   83CHL1   C27 8619   3.339   3.220   8.615 -0.4750  0.4006  0.6307
   83CHL1  H27A 8620   3.418   3.281   8.566  0.8542 -0.7273  1.3104
   83CHL1  H27B 8621   3.295   3.271   8.704  0.4432  1.8551  0.2822
   83CHL1  H27C 8622   3.389   3.132   8.661  0.8364  1.3726  1.1274
   84CHL1    C3 8623   2.584   5.063   6.865  0.0611 -0.0498  0.0918
   84CHL1    H3 8624   2.494   5.011   6.902  1.1858 -2.1630  0.0557
   84CHL1    O3 8625   2.583   5.071   6.725 -0.4946  0.5558 -0.0017
   84CHL1   H3' 8626   2.672   5.099   6.701  0.8408 -2.1188  1.3433
   84CHL1    C4 8627   2.585   5.202   6.926  0.0039  0.1198 -1.0578
   84CHL1   H4A 8628   2.678   5.254   6.895  1.1091 -1.5107 -0.6226
   84CHL1   H4B 8629   2.499   5.260   6.884 -1.2041  0.5301  1.7474
   84CHL1    C5 8630   2.601   5.210   7.075 -0.1231 -0.9096 -0.5057
   84CHL1    C6 8631   2.525   5.290   7.156  0.3005  0.1229 -0.2136
   84CHL1    H6 8632   2.447   5.357   7.118  0.2022 -0.4837 -1.0950
   84CHL1    C7 8633   2.534   5.294   7.302 -0.3796 -0.1101  0.3753
   84CHL1   H7A 8634   2.539   5.396   7.347 -1.2729 -0.6361  1.7200
   84CHL1   H7B 8635   2.440   5.252   7.342 -1.1028 -0.2220 -1.3713
   84CHL1    C8 8636   2.659   5.228   7.363 -0.1003  0.0537 -0.2782
   84CHL1    H8 8637   2.739   5.305   7.352 -3.1619  3.8229  1.2273
   84CHL1   C14 8638   2.648   5.209   7.516 -0.0292  0.0315  0.2865
   84CHL1   H14 8639   2.569   5.132   7.527  0.3643 -0.6618 -1.5157
   84CHL1   C15 8640   2.596   5.327   7.600  0.4844 -0.5791  0.5103
   84CHL1  H15A 8641   2.651   5.419   7.570  3.1224 -1.0980  3.2490
   84CHL1  H15B 8642   2.487   5.342   7.582  0.4204 -0.4517  0.9795
   84CHL1   C16 8643   2.628   5.290   7.744 -0.7221 -0.4244 -0.2182
   84CHL1  H16A 8644   2.683   5.367   7.802  0.2042 -1.9022  0.9448
   84CHL1  H16B 8645   2.537   5.272   7.804 -0.3325 -0.1333  0.4776
   84CHL1   C17 8646   2.722   5.160   7.741 -0.0524  0.1408 -0.2016
   84CHL1   H17 8647   2.653   5.074   7.749  2.2798 -1.7353  1.0564
   84CHL1   C13 8648   2.769   5.151   7.592  0.4795 -0.6360 -0.1577
   84CHL1   C18 8649   2.894   5.232   7.570  0.0712  0.2668 -0.2907
   84CHL1  H18A 8650   2.984   5.191   7.620  1.0482  3.8610  1.1554
   84CHL1  H18B 8651   2.919   5.237   7.462 -0.3046 -1.1005 -0.4696
   84CHL1  H18C 8652   2.877   5.332   7.615  0.4565 -0.1286  0.7769
   84CHL1   C12 8653   2.777   5.005   7.532 -0.4887 -0.0371  0.1347
   84CHL1  H12A 8654   2.866   4.951   7.572 -0.1401  0.1413 -0.3938
   84CHL1  H12B 8655   2.688   4.944   7.559 -0.1695 -0.8392 -0.5617
   84CHL1   C11 8656   2.789   5.010   7.377  0.0640 -0.2736  0.0270
   84CHL1  H11A 8657   2.890   5.048   7.354  1.0176 -0.7322  3.0243
   84CHL1  H11B 8658   2.790   4.906   7.337  0.9443 -1.3072  2.5493
   84CHL1    C9 8659   2.679   5.093   7.298  0.0425 -0.1757  0.2795
   84CHL1    H9 8660   2.583   5.040   7.317  1.4935 -2.1420  2.6747
   84CHL1   C10 8661   2.703   5.108   7.142 -0.1653 -0.5187 -0.2887
   84CHL1   C19 8662   2.853   5.159   7.121 -0.3606 -0.6090  0.1726
   84CHL1  H19A 8663   2.927   5.079   7.141  0.8691  0.4374 -0.0660
   84CHL1  H19B 8664   2.882   5.185   7.017 -0.7755 -1.3753 -0.1425
   84CHL1  H19C 8665   2.875   5.252   7.178  0.4110 -1.0260  0.5761
   84CHL1    C1 8666   2.684   4.978   7.073  0.1389  0.1190  0.0533
   84CHL1   H1A 8667   2.767   4.913   7.106  1.4711  1.1523 -1.1303
   84CHL1   H1B 8668   2.590   4.928   7.104  0.6384  0.3854  2.1551
   84CHL1    C2 8669   2.694   4.980   6.919 -0.0013 -0.1910 -0.3082
   84CHL1   H2A 8670   2.687   4.874   6.885 -1.9239  0.3882 -1.9091
   84CHL1   H2B 8671   2.799   5.016   6.907  0.2814 -0.8996 -0.0610
   84CHL1   C20 8672   2.824   5.139   7.856 -0.4530 -0.4696  0.1423
   84CHL1   H20 8673   2.881   5.233   7.866 -1.2174  0.5152 -3.2850
   84CHL1   C21 8674   2.912   5.018   7.829 -0.1020 -0.2288  0.0713
   84CHL1  H21A 8675   2.846   4.929   7.823 -2.0503  1.1586  0.2357
   84CHL1  H21B 8676   2.984   4.997   7.912 -0.8104 -1.7660  0.3263
   84CHL1  H21C 8677   2.959   5.037   7.731  1.8394  2.1723  1.3447
   84CHL1   C22 8678   2.746   5.121   7.987  0.5169 -0.6716  0.1557
   84CHL1  H22A 8679   2.681   5.210   8.002 -0.0669 -0.6144 -2.3104
   84CHL1  H22B 8680   2.682   5.030   7.983 -2.0369  1.0099 -4.1450
   84CHL1   C23 8681   2.822   5.106   8.119  0.1970 -0.6112 -0.2202
   84CHL1  H23A 8682   2.913   5.044   8.102 -0.0350 -0.3849 -2.6680
   84CHL1  H23B 8683   2.859   5.207   8.148 -1.3076  0.5696 -2.1611
   84CHL1   C24 8684   2.745   5.050   8.239  0.3652  0.1644 -0.4748
   84CHL1  H24A 8685   2.639   5.078   8.250  0.0994 -1.7036  4.4698
   84CHL1  H24B 8686   2.744   4.939   8.232  2.1585 -0.0452  1.6176
   84CHL1   C25 8687   2.820   5.088   8.369 -0.8129  0.1476 -0.1552
   84CHL1   H25 8688   2.806   5.198   8.373 -1.1641  0.2573 -2.7471
   84CHL1   C26 8689   2.756   5.019   8.491 -0.2653  0.6238 -0.1321
   84CHL1  H26A 8690   2.818   5.028   8.584 -0.2251  1.0302 -0.1938
   84CHL1  H26B 8691   2.653   5.054   8.515 -1.1620 -0.8852 -1.5753
   84CHL1  H26C 8692   2.754   4.917   8.448  1.3396  0.2205  0.6518
   84CHL1   C27 8693   2.969   5.072   8.359 -0.2025  0.5100  0.0685
   84CHL1  H27A 8694   3.011   5.130   8.274 -0.4328  1.0642  0.3275
   84CHL1  H27B 8695   3.007   5.095   8.460 -0.7721 -0.9544  0.6574
   84CHL1  H27C 8696   3.004   4.969   8.336  2.2347  1.6490 -1.7846
   85CHL1    C3 8697   5.547   3.508   7.128 -0.0268  0.4822  0.3413
   85CHL1    H3 8698   5.516   3.401   7.119 -1.1744  0.7993  0.3448
   85CHL1    O3 8699   5.547   3.570   6.999 -0.6249 -0.7190  0.4528
   85CHL1   H3' 8700   5.612   3.515   6.954  0.0232  1.7191 -1.8765
   85CHL1    C4 8701   5.456   3.583   7.225 -0.0241 -0.6394 -0.2563
   85CHL1   H4A 8702   5.479   3.692   7.222  0.1606 -0.6490  0.5870
   85CHL1   H4B 8703   5.350   3.578   7.192 -1.5874 -3.0345  4.1969
   85CHL1    C5 8704   5.457   3.519   7.364  0.1058  0.1809 -0.6993
   85CHL1    C6 8705   5.342   3.470   7.417 -0.8375 -0.0188  0.1908
   85CHL1    H6 8706   5.253   3.473   7.352  0.6195  1.4775 -1.8547
   85CHL1    C7 8707   5.331   3.415   7.558 -0.7605  0.1013  0.7417
   85CHL1   H7A 8708   5.234   3.448   7.601 -0.9751 -1.8163  1.8427
   85CHL1   H7B 8709   5.328   3.304   7.556 -0.4140  0.0991 -0.8131
   85CHL1    C8 8710   5.454   3.463   7.641  0.0416  0.8788  0.6053
   85CHL1    H8 8711   5.448   3.573   7.655  0.1446  0.9336  0.2325
   85CHL1   C14 8712   5.469   3.393   7.775  0.5641 -0.2757  0.2845
   85CHL1   H14 8713   5.470   3.284   7.755  2.7423 -0.0920 -0.8358
   85CHL1   C15 8714   5.343   3.410   7.869 -1.0008 -0.2027  0.2816
   85CHL1  H15A 8715   5.318   3.518   7.881  0.9438  0.2460  0.5138
   85CHL1  H15B 8716   5.250   3.358   7.836 -1.7885  2.5950 -2.3889
   85CHL1   C16 8717   5.403   3.355   7.999  0.1828 -0.7176  0.1083
   85CHL1  H16A 8718   5.386   3.429   8.080  1.1123 -0.0721 -0.2567
   85CHL1  H16B 8719   5.362   3.260   8.040 -1.9571 -0.7141 -1.8369
   85CHL1   C17 8720   5.554   3.336   7.981  0.2882 -0.0416  0.0426
   85CHL1   H17 8721   5.559   3.232   7.941 -3.8827 -0.1031 -0.7575
   85CHL1   C13 8722   5.595   3.411   7.856 -0.5086 -0.6429 -0.3470
   85CHL1   C18 8723   5.616   3.564   7.892 -0.5972  0.7869 -0.5523
   85CHL1  H18A 8724   5.530   3.595   7.955 -0.0291  1.0357  0.1119
   85CHL1  H18B 8725   5.705   3.600   7.948 -0.0715 -0.2554 -0.6968
   85CHL1  H18C 8726   5.613   3.621   7.797  0.8262  2.2713  0.2414
   85CHL1   C12 8727   5.698   3.343   7.765 -0.4672  0.4517  0.8034
   85CHL1  H12A 8728   5.798   3.329   7.812 -0.0931 -2.4177 -0.6079
   85CHL1  H12B 8729   5.679   3.234   7.756  0.2704  0.3273  0.6166
   85CHL1   C11 8730   5.713   3.411   7.630 -0.2738 -0.1158  0.1216
   85CHL1  H11A 8731   5.761   3.508   7.658 -0.2816 -0.2078  0.4560
   85CHL1  H11B 8732   5.777   3.353   7.560  0.6900  2.3618 -1.1832
   85CHL1    C9 8733   5.582   3.430   7.556  0.1451 -0.0117 -0.0391
   85CHL1    H9 8734   5.566   3.330   7.510  2.3009 -1.3912  1.9544
   85CHL1   C10 8735   5.597   3.524   7.430  0.5942  0.6350 -0.6223
   85CHL1   C19 8736   5.633   3.665   7.459 -0.3167 -0.3712  0.0950
   85CHL1  H19A 8737   5.546   3.713   7.508  0.7145  1.0131  0.6191
   85CHL1  H19B 8738   5.719   3.669   7.528  1.4386 -0.4603 -1.9770
   85CHL1  H19C 8739   5.663   3.719   7.366  0.6434 -1.1433 -0.0595
   85CHL1    C1 8740   5.707   3.457   7.331  0.4771  0.2610  0.2752
   85CHL1   H1A 8741   5.808   3.458   7.377  1.1335  1.5122 -1.0986
   85CHL1   H1B 8742   5.698   3.347   7.323 -0.2444  0.4079 -1.1279
   85CHL1    C2 8743   5.694   3.514   7.188  0.3036 -0.4423  0.6681
   85CHL1   H2A 8744   5.771   3.472   7.120  1.2113  3.4802 -0.9774
   85CHL1   H2B 8745   5.714   3.623   7.185  0.3380 -0.3560  2.5310
   85CHL1   C20 8746   5.629   3.343   8.116  0.7479  0.5127  0.2280
   85CHL1   H20 8747   5.616   3.443   8.164  0.6404 -0.3709  2.1113
   85CHL1   C21 8748   5.775   3.312   8.088 -0.0545  0.3909 -0.9036
   85CHL1  H21A 8749   5.829   3.306   8.185  3.0742  2.1140 -2.4024
   85CHL1  H21B 8750   5.832   3.389   8.032 -0.7546  1.2638 -0.4554
   85CHL1  H21C 8751   5.768   3.211   8.043 -1.7943 -0.6813  1.5682
   85CHL1   C22 8752   5.580   3.232   8.219  0.0436  0.5164  0.0408
   85CHL1  H22A 8753   5.470   3.237   8.233  0.0706 -2.3906  2.3081
   85CHL1  H22B 8754   5.602   3.136   8.167 -0.5273  1.1085 -1.3499
   85CHL1   C23 8755   5.636   3.233   8.364  0.1077  0.4413 -0.2685
   85CHL1  H23A 8756   5.608   3.142   8.421 -1.6462  2.3211  2.0855
   85CHL1  H23B 8757   5.747   3.238   8.364  0.1104  0.7092  0.8535
   85CHL1   C24 8758   5.585   3.358   8.442  0.7518 -0.6132 -0.6419
   85CHL1  H24A 8759   5.621   3.453   8.398 -2.4034  0.9572 -0.1005
   85CHL1  H24B 8760   5.476   3.378   8.433  0.9422  0.8002  0.0568
   85CHL1   C25 8761   5.623   3.355   8.586  0.3979 -0.5014 -0.1263
   85CHL1   H25 8762   5.621   3.249   8.619 -0.5551 -0.7375 -0.8763
   85CHL1   C26 8763   5.765   3.414   8.605  0.3282  0.1780  0.3237
   85CHL1  H26A 8764   5.808   3.370   8.698  1.2085 -0.8054 -0.5317
   85CHL1  H26B 8765   5.825   3.371   8.522  0.0536  0.1115  0.1573
   85CHL1  H26C 8766   5.783   3.524   8.600  1.0171  0.0487 -0.0683
   85CHL1   C27 8767   5.512   3.434   8.664 -0.1650 -0.2029 -0.5373
   85CHL1  H27A 8768   5.534   3.430   8.773 -2.1699 -1.2484 -0.1184
   85CHL1  H27B 8769   5.513   3.544   8.644  0.1232 -0.1043  0.0041
   85CHL1  H27C 8770   5.405   3.405   8.655 -0.0196 -1.3684  1.0982
   86CHL1    C3 8771   3.750   2.012   7.309  0.0633  0.3743  0.6752
   86CHL1    H3 8772   3.826   2.092   7.322  1.7031 -0.9971 -0.0823
   86CHL1    O3 8773   3.717   2.027   7.166 -0.4668  0.3141  0.4341
   86CHL1   H3' 8774   3.683   2.115   7.151  1.7884  0.8119 -3.1679
   86CHL1    C4 8775   3.805   1.879   7.354 -0.4932 -0.1851  0.4261
   86CHL1   H4A 8776   3.733   1.800   7.324  0.0907  0.3877 -2.7751
   86CHL1   H4B 8777   3.903   1.859   7.305 -1.2138  2.7174 -2.5389
   86CHL1    C5 8778   3.833   1.881   7.506  0.2050  0.1564  0.4879
   86CHL1    C6 8779   3.954   1.870   7.550 -0.6142 -0.0975 -0.4246
   86CHL1    H6 8780   4.023   1.826   7.476  0.4542  0.2014  0.3772
   86CHL1    C7 8781   3.987   1.860   7.700  0.0792 -0.0679 -0.2469
   86CHL1   H7A 8782   4.061   1.778   7.713  0.3670  0.1038 -0.7869
   86CHL1   H7B 8783   4.031   1.959   7.725  0.1839  0.3123 -1.8173
   86CHL1    C8 8784   3.860   1.845   7.793  0.4479 -0.2952 -0.0659
   86CHL1    H8 8785   3.820   1.742   7.790  3.2360 -1.4898  0.8405
   86CHL1   C14 8786   3.887   1.892   7.936 -0.3129 -0.7538 -0.8378
   86CHL1   H14 8787   3.909   1.998   7.913 -0.5072 -0.9085 -1.7825
   86CHL1   C15 8788   4.018   1.836   7.999  0.2383 -0.4090  0.0808
   86CHL1  H15A 8789   4.015   1.725   7.995 -2.1112 -0.3889  0.0765
   86CHL1  H15B 8790   4.113   1.878   7.960  0.4656 -2.8477 -2.2181
   86CHL1   C16 8791   3.987   1.863   8.145  0.4206 -0.1792 -1.1793
   86CHL1  H16A 8792   3.997   1.774   8.211 -0.8664  3.1487  4.1675
   86CHL1  H16B 8793   4.067   1.932   8.179  2.0279 -1.6730 -1.7460
   86CHL1   C17 8794   3.842   1.925   8.159  0.3752  0.2732 -0.2523
   86CHL1   H17 8795   3.862   2.033   8.149 -0.0099  0.2343 -1.8894
   86CHL1   C13 8796   3.766   1.878   8.032  0.7924 -0.9439  0.1445
   86CHL1   C18 8797   3.734   1.727   8.043  0.2000  0.0282 -0.1301
   86CHL1  H18A 8798   3.676   1.706   8.136  1.3390  0.0320  0.6060
   86CHL1  H18B 8799   3.681   1.686   7.955 -0.7020 -1.1210  0.9110
   86CHL1  H18C 8800   3.825   1.663   8.044 -1.3834 -2.4078 -1.5311
   86CHL1   C12 8801   3.655   1.968   7.982  0.1302  0.4350  0.4038
   86CHL1  H12A 8802   3.561   1.953   8.038  0.6149  0.8035  1.3392
   86CHL1  H12B 8803   3.687   2.074   7.982  0.4033  0.3561 -0.0009
   86CHL1   C11 8804   3.621   1.939   7.838  0.2165 -0.4184  0.8605
   86CHL1  H11A 8805   3.579   1.836   7.828 -0.9741  0.1948 -0.9016
   86CHL1  H11B 8806   3.543   2.011   7.805  1.4838  0.7917  0.4330
   86CHL1    C9 8807   3.743   1.935   7.743 -0.3843 -0.3786 -0.2380
   86CHL1    H9 8808   3.786   2.037   7.747 -0.1343 -0.4797 -0.3159
   86CHL1   C10 8809   3.712   1.907   7.593  0.2566  0.2609 -0.2588
   86CHL1   C19 8810   3.617   1.781   7.585 -0.0847 -0.4859  0.4082
   86CHL1  H19A 8811   3.614   1.743   7.481 -3.9730 -0.1015  0.2342
   86CHL1  H19B 8812   3.658   1.705   7.655  0.5081 -1.0585 -0.5449
   86CHL1  H19C 8813   3.519   1.827   7.610 -0.2211  0.0846 -1.0482
   86CHL1    C1 8814   3.646   2.038   7.532  0.3249 -0.6288 -0.4689
   86CHL1   H1A 8815   3.546   2.061   7.575  1.5735  1.3428  1.6656
   86CHL1   H1B 8816   3.702   2.131   7.555 -0.3522  0.1810 -1.9599
   86CHL1    C2 8817   3.628   2.035   7.383  0.4802 -0.9229 -0.7082
   86CHL1   H2A 8818   3.586   2.133   7.354  0.6155 -0.6397  0.0254
   86CHL1   H2B 8819   3.550   1.960   7.359 -0.0017 -0.6133 -0.1190
   86CHL1   C20 8820   3.779   1.891   8.292  0.7205 -0.1281 -0.0777
   86CHL1   H20 8821   3.762   1.781   8.298  0.3473 -0.1481 -1.3195
   86CHL1   C21 8822   3.640   1.963   8.306  0.5538  0.3387 -0.1155
   86CHL1  H21A 8823   3.565   1.924   8.233 -0.6268  3.3922 -0.6823
   86CHL1  H21B 8824   3.652   2.072   8.290  1.1189  0.7516  2.7563
   86CHL1  H21C 8825   3.620   1.941   8.413  0.7106 -1.3685 -0.4060
   86CHL1   C22 8826   3.872   1.920   8.411 -0.3720  0.1359  0.7506
   86CHL1  H22A 8827   3.813   1.904   8.504 -0.0166  0.9299  1.1318
   86CHL1  H22B 8828   3.951   1.844   8.397  0.1450  0.8568 -0.4518
   86CHL1   C23 8829   3.927   2.063   8.427 -0.7392  0.2898 -0.2596
   86CHL1  H23A 8830   3.971   2.098   8.331 -1.0398  0.9918 -0.1483
   86CHL1  H23B 8831   3.833   2.121   8.437 -1.5294 -0.8280 -0.9605
   86CHL1   C24 8832   4.012   2.077   8.555 -0.7358  0.5246  0.3971
   86CHL1  H24A 8833   4.034   2.180   8.588 -2.3773  1.0333 -0.0068
   86CHL1  H24B 8834   3.937   2.041   8.628 -1.3649 -0.7468 -0.8109
   86CHL1   C25 8835   4.139   1.984   8.558  0.0371 -0.8702  0.2779
   86CHL1   H25 8836   4.098   1.881   8.550 -1.7553 -0.1137 -1.0283
   86CHL1   C26 8837   4.243   2.018   8.446  1.0033 -0.3295  0.1418
   86CHL1  H26A 8838   4.188   2.045   8.354  0.1852 -0.1190  0.6757
   86CHL1  H26B 8839   4.301   2.110   8.471  0.8776 -0.0481 -0.5833
   86CHL1  H26C 8840   4.316   1.939   8.418  1.3555  0.9685 -2.9711
   86CHL1   C27 8841   4.202   1.998   8.698  1.2626  0.4376  0.0067
   86CHL1  H27A 8842   4.203   2.103   8.736  2.8569 -0.3645  2.4168
   86CHL1  H27B 8843   4.150   1.923   8.762  2.4907 -0.7503 -0.3236
   86CHL1  H27C 8844   4.311   1.975   8.706  1.8287  3.2806  2.4156
   87CHL1    C3 8845   5.845   4.770   7.306 -0.1558 -0.2565 -0.3346
   87CHL1    H3 8846   5.941   4.818   7.336 -0.5805  1.4467 -1.5693
   87CHL1    O3 8847   5.833   4.758   7.167  0.3118  0.1598 -0.3741
   87CHL1   H3' 8848   5.739   4.738   7.164  0.6592 -2.6231  2.0202
   87CHL1    C4 8849   5.818   4.636   7.379 -0.0980 -0.2160 -0.4263
   87CHL1   H4A 8850   5.723   4.595   7.338 -0.1154 -0.4841 -0.1180
   87CHL1   H4B 8851   5.898   4.571   7.337 -1.1869 -1.0576 -1.2626
   87CHL1    C5 8852   5.807   4.650   7.530  0.6525  0.7491  0.5095
   87CHL1    C6 8853   5.888   4.575   7.609 -0.2598 -0.0128 -0.0279
   87CHL1    H6 8854   5.976   4.521   7.570  0.3609  1.9589 -1.4971
   87CHL1    C7 8855   5.890   4.573   7.760  0.4799 -0.6820  0.4611
   87CHL1   H7A 8856   5.874   4.466   7.786  0.4465 -0.7647  0.1068
   87CHL1   H7B 8857   5.979   4.616   7.810 -1.1916  0.5017  2.5778
   87CHL1    C8 8858   5.761   4.655   7.808  0.2806 -0.3337  0.2428
   87CHL1    H8 8859   5.674   4.594   7.775 -0.6986  2.0142 -1.8769
   87CHL1   C14 8860   5.765   4.674   7.957 -0.0331  0.9478  0.7029
   87CHL1   H14 8861   5.854   4.740   7.958  0.1163  0.7875 -0.5095
   87CHL1   C15 8862   5.803   4.550   8.047  0.0275 -0.0276  0.0487
   87CHL1  H15A 8863   5.735   4.472   8.008  0.5891  0.1359 -1.3002
   87CHL1  H15B 8864   5.907   4.513   8.042 -0.7697 -2.3466 -0.6866
   87CHL1   C16 8865   5.756   4.591   8.186 -0.8818  0.7696 -1.2264
   87CHL1  H16A 8866   5.676   4.524   8.224 -0.8111  0.5244 -1.5123
   87CHL1  H16B 8867   5.842   4.587   8.257  0.2858  3.1252 -2.3788
   87CHL1   C17 8868   5.702   4.737   8.169  0.6179  1.3975 -0.0200
   87CHL1   H17 8869   5.787   4.807   8.183  0.7133  2.3033 -3.8256
   87CHL1   C13 8870   5.651   4.740   8.023 -0.1252 -0.2349 -0.0009
   87CHL1   C18 8871   5.525   4.658   8.006 -0.0786  0.2818 -0.4488
   87CHL1  H18A 8872   5.435   4.703   8.053 -1.1962 -1.3201 -1.0005
   87CHL1  H18B 8873   5.505   4.651   7.897 -0.6764  3.1106 -0.6012
   87CHL1  H18C 8874   5.552   4.557   8.044  3.0416  0.8695 -0.8010
   87CHL1   C12 8875   5.631   4.875   7.952  0.7549 -0.1854  0.8184
   87CHL1  H12A 8876   5.533   4.918   7.982  0.4560  1.0339 -1.6104
   87CHL1  H12B 8877   5.719   4.937   7.977  0.1547  0.7972  0.5802
   87CHL1   C11 8878   5.616   4.858   7.802  0.8498 -0.1124  0.1589
   87CHL1  H11A 8879   5.517   4.816   7.775 -0.1343  0.5994  2.3868
   87CHL1  H11B 8880   5.604   4.958   7.756 -1.3062 -0.3380  0.1544
   87CHL1    C9 8881   5.729   4.789   7.732  0.6211 -0.5432  0.4455
   87CHL1    H9 8882   5.823   4.848   7.741 -0.0014  0.5197  0.1790
   87CHL1   C10 8883   5.714   4.761   7.582  0.1330  0.2523  0.4830
   87CHL1   C19 8884   5.566   4.709   7.548  0.6505  0.6334  0.7146
   87CHL1  H19A 8885   5.542   4.618   7.608 -0.5483 -0.9059 -1.9409
   87CHL1  H19B 8886   5.500   4.795   7.572  0.6347  1.1760 -1.1644
   87CHL1  H19C 8887   5.557   4.678   7.442 -3.0144 -1.0829  1.3611
   87CHL1    C1 8888   5.747   4.889   7.510 -1.0257  0.3452 -0.5475
   87CHL1   H1A 8889   5.672   4.963   7.543 -1.6013 -0.2003 -0.6065
   87CHL1   H1B 8890   5.849   4.922   7.539 -0.8422 -0.9036  0.3447
   87CHL1    C2 8891   5.753   4.877   7.360 -0.0833  0.3036 -0.5241
   87CHL1   H2A 8892   5.805   4.970   7.329 -0.7025  1.4034  1.5832
   87CHL1   H2B 8893   5.652   4.874   7.315 -0.7857  0.2349  0.9965
   87CHL1   C20 8894   5.596   4.781   8.280 -0.6751 -0.5881 -0.2509
   87CHL1   H20 8895   5.503   4.725   8.258  0.9254 -3.1814 -0.7897
   87CHL1   C21 8896   5.565   4.935   8.263 -0.6801  0.7070  0.5038
   87CHL1  H21A 8897   5.653   4.996   8.235 -1.2890  0.5324 -2.0250
   87CHL1  H21B 8898   5.530   4.969   8.363 -0.6084  3.2556 -0.2700
   87CHL1  H21C 8899   5.483   4.935   8.188 -0.3985  0.8205  0.1964
   87CHL1   C22 8900   5.633   4.754   8.431  0.7241  1.0805 -0.0131
   87CHL1  H22A 8901   5.542   4.786   8.486 -0.5617 -0.1679 -1.3508
   87CHL1  H22B 8902   5.639   4.643   8.436  0.3244  1.0192 -0.8691
   87CHL1   C23 8903   5.757   4.828   8.474  0.3567 -0.7610  0.1337
   87CHL1  H23A 8904   5.838   4.800   8.403  1.3498  2.7355 -0.3293
   87CHL1  H23B 8905   5.758   4.937   8.452  0.8636 -1.1515 -2.0080
   87CHL1   C24 8906   5.802   4.803   8.622  0.0708 -0.2338  0.7675
   87CHL1  H24A 8907   5.853   4.706   8.636  3.2129  1.5964  3.7371
   87CHL1  H24B 8908   5.883   4.875   8.646 -1.0565  2.4220 -2.4960
   87CHL1   C25 8909   5.687   4.816   8.727 -0.5913  0.2566 -0.3559
   87CHL1   H25 8910   5.609   4.745   8.692  0.1668 -0.7848  0.0138
   87CHL1   C26 8911   5.734   4.772   8.866  0.0916  0.0175  0.8420
   87CHL1  H26A 8912   5.789   4.857   8.910  0.4520 -0.4217  1.2450
   87CHL1  H26B 8913   5.642   4.751   8.924 -1.3023  0.1024 -1.2224
   87CHL1  H26C 8914   5.802   4.685   8.871 -0.2497 -0.3490 -0.5317
   87CHL1   C27 8915   5.634   4.959   8.724 -0.2708  0.9052 -0.0045
   87CHL1  H27A 8916   5.703   5.031   8.772 -0.4800 -0.1180  1.9503
   87CHL1  H27B 8917   5.622   4.996   8.620 -0.4480  0.2737 -0.2138
   87CHL1  H27C 8918   5.531   4.969   8.766 -0.8039  1.2138 -1.3250
   88CHL1    C3 8919   1.012   5.749   7.276 -0.0621  0.1814 -0.8716
   88CHL1    H3 8920   0.938   5.802   7.339  0.7040  0.8072 -0.4714
   88CHL1    O3 8921   1.002   5.811   7.154  0.1436  0.0198  0.2864
   88CHL1   H3' 8922   0.924   5.775   7.112 -0.6068  1.8140  0.0470
   88CHL1    C4 8923   1.146   5.760   7.338  0.5649  0.2002 -0.7437
   88CHL1   H4A 8924   1.215   5.716   7.262  0.0848  1.6849 -2.1037
   88CHL1   H4B 8925   1.185   5.864   7.333  0.6007  0.1521 -3.7440
   88CHL1    C5 8926   1.160   5.689   7.475  0.1281 -0.2514  0.0729
   88CHL1    C6 8927   1.200   5.751   7.587  0.2044 -0.6777 -0.8827
   88CHL1    H6 8928   1.246   5.851   7.584 -1.3090  0.0932  0.1883
   88CHL1    C7 8929   1.211   5.685   7.722  0.6581  0.3198 -0.3364
   88CHL1   H7A 8930   1.300   5.718   7.779 -0.0598  2.8516 -0.5505
   88CHL1   H7B 8931   1.121   5.690   7.787  1.4407 -1.3658  0.9654
   88CHL1    C8 8932   1.217   5.532   7.706  0.1219 -0.2526 -0.0036
   88CHL1    H8 8933   1.313   5.494   7.665  2.0318  1.6636  2.4148
   88CHL1   C14 8934   1.189   5.469   7.842 -0.0261 -0.1720  0.1510
   88CHL1   H14 8935   1.084   5.486   7.874  0.0352 -0.4389  0.5092
   88CHL1   C15 8936   1.274   5.516   7.959 -0.0952  0.4592 -0.3834
   88CHL1  H15A 8937   1.379   5.525   7.925 -0.4694  1.0779 -1.4350
   88CHL1  H15B 8938   1.232   5.612   7.995 -1.6196 -0.0225 -0.7978
   88CHL1   C16 8939   1.250   5.406   8.063 -0.8959 -0.0683  0.7031
   88CHL1  H16A 8940   1.349   5.388   8.109 -0.5144  0.6210  0.1687
   88CHL1  H16B 8941   1.188   5.445   8.147 -0.7796 -0.1731  0.8388
   88CHL1   C17 8942   1.179   5.284   7.996 -1.0066  0.0179  0.6888
   88CHL1   H17 8943   1.069   5.298   8.009 -0.9040  0.7635  0.7583
   88CHL1   C13 8944   1.200   5.314   7.845 -0.8331  0.1020 -0.6096
   88CHL1   C18 8945   1.346   5.264   7.803 -0.3680  1.0082 -0.1503
   88CHL1  H18A 8946   1.352   5.154   7.815 -0.6227  1.1954  2.1569
   88CHL1  H18B 8947   1.380   5.295   7.701  0.7683  0.5641  0.0812
   88CHL1  H18C 8948   1.420   5.310   7.871  0.2292 -0.2156  0.0470
   88CHL1   C12 8949   1.087   5.263   7.748  0.1895  0.2439 -0.1339
   88CHL1  H12A 8950   1.090   5.152   7.741 -0.1321  0.2117  0.2022
   88CHL1  H12B 8951   0.987   5.285   7.792 -0.8333  0.1417 -2.2735
   88CHL1   C11 8952   1.095   5.324   7.606 -0.5426 -0.3204 -0.4458
   88CHL1  H11A 8953   1.190   5.281   7.569  1.4742  1.0467  2.7774
   88CHL1  H11B 8954   1.007   5.286   7.549  1.0756 -1.6558 -2.1887
   88CHL1    C9 8955   1.108   5.477   7.606  0.4682 -0.2538 -1.4003
   88CHL1    H9 8956   1.011   5.510   7.648  0.2443 -0.0512 -2.0642
   88CHL1   C10 8957   1.120   5.539   7.470 -1.2558  0.2642  0.3183
   88CHL1   C19 8958   1.222   5.461   7.383 -0.2938 -0.1215 -0.0686
   88CHL1  H19A 8959   1.212   5.497   7.279  0.9808 -0.6911 -0.4152
   88CHL1  H19B 8960   1.329   5.475   7.409 -0.3125 -1.4222  0.8278
   88CHL1  H19C 8961   1.215   5.350   7.377  4.5401 -0.7292  0.9857
   88CHL1    C1 8962   0.976   5.528   7.402 -0.3883  0.3987 -0.0672
   88CHL1   H1A 8963   0.962   5.420   7.379 -0.9793  0.1353  1.3974
   88CHL1   H1B 8964   0.896   5.559   7.473 -1.7846 -3.1346  0.1241
   88CHL1    C2 8965   0.968   5.601   7.261 -0.4871  0.1657 -0.7557
   88CHL1   H2A 8966   0.866   5.591   7.219 -0.6616  0.2402 -0.3502
   88CHL1   H2B 8967   1.039   5.556   7.187  0.0329 -0.2116 -0.0409
   88CHL1   C20 8968   1.226   5.150   8.059 -0.2722 -0.5732  0.0841
   88CHL1   H20 8969   1.334   5.129   8.048 -0.1497  0.5360 -1.0765
   88CHL1   C21 8970   1.158   5.038   7.983 -0.5849  0.0864 -0.3832
   88CHL1  H21A 8971   1.209   5.030   7.885  1.3973  1.2091  0.4940
   88CHL1  H21B 8972   1.048   5.051   7.976 -0.9165  2.2930  4.6153
   88CHL1  H21C 8973   1.178   4.939   8.030  1.0591 -0.0921 -1.3961
   88CHL1   C22 8974   1.182   5.141   8.208 -0.8550 -0.6709  0.1797
   88CHL1  H22A 8975   1.194   5.243   8.252 -1.9785  0.2051 -1.4291
   88CHL1  H22B 8976   1.071   5.132   8.211 -1.0203  0.8745 -0.2652
   88CHL1   C23 8977   1.253   5.037   8.287 -0.2756  0.1768  0.3056
   88CHL1  H23A 8978   1.235   4.939   8.237 -0.0908  0.1921  0.2054
   88CHL1  H23B 8979   1.363   5.043   8.298  0.0113  0.0012 -1.9182
   88CHL1   C24 8980   1.196   5.015   8.424  0.9718  0.0480  0.4046
   88CHL1  H24A 8981   1.189   5.102   8.493  0.9246 -0.0594  0.5370
   88CHL1  H24B 8982   1.092   4.977   8.414  1.5282 -1.1693 -1.3500
   88CHL1   C25 8983   1.260   4.903   8.508 -0.1524  0.4294 -0.3911
   88CHL1   H25 8984   1.268   4.810   8.448 -2.4037 -0.2910  0.3323
   88CHL1   C26 8985   1.404   4.943   8.559 -0.4682  0.2493  0.2437
   88CHL1  H26A 8986   1.443   4.879   8.640  2.5438 -0.2349 -1.4543
   88CHL1  H26B 8987   1.464   4.924   8.468 -2.0323 -0.9913 -0.5819
   88CHL1  H26C 8988   1.411   5.051   8.584 -0.5787  0.2169  0.4119
   88CHL1   C27 8989   1.175   4.857   8.625  0.3938 -0.0243 -0.1208
   88CHL1  H27A 8990   1.161   4.939   8.699 -1.2165  1.0208 -1.4794
   88CHL1  H27B 8991   1.073   4.819   8.599  0.7771 -2.0139  1.0675
   88CHL1  H27C 8992   1.226   4.773   8.676 -2.4669 -1.0229  1.2897
   89CHL1    C3 8993   3.743   5.700   7.285  0.3663 -0.3067 -0.0602
   89CHL1    H3 8994   3.760   5.600   7.329 -1.2642 -0.3361  0.5819
   89CHL1    O3 8995   3.762   5.715   7.144  0.0587 -0.0815 -1.0221
   89CHL1   H3' 8996   3.855   5.739   7.146 -0.1150  0.5816 -0.0859
   89CHL1    C4 8997   3.612   5.757   7.323  0.6252 -0.0919  0.0143
   89CHL1   H4A 8998   3.593   5.862   7.293  0.4622  0.2390  1.2055
   89CHL1   H4B 8999   3.535   5.696   7.271  0.0869  0.5468  0.0489
   89CHL1    C5 9000   3.593   5.754   7.480 -0.0046  0.5687  0.8780
   89CHL1    C6 9001   3.489   5.686   7.540 -0.8996 -0.8513  0.7425
   89CHL1    H6 9002   3.408   5.634   7.487 -0.4125 -0.2899 -0.6059
   89CHL1    C7 9003   3.468   5.671   7.688 -0.3062 -0.3412 -0.0477
   89CHL1   H7A 9004   3.365   5.701   7.715  0.0970 -0.1576  1.3336
   89CHL1   H7B 9005   3.480   5.568   7.726 -0.2397 -0.7618 -1.1521
   89CHL1    C8 9006   3.561   5.770   7.762 -0.3029 -0.8333 -0.3785
   89CHL1    H8 9007   3.513   5.868   7.742  0.7376 -0.1966  0.1607
   89CHL1   C14 9008   3.552   5.736   7.915  0.0650  0.5836 -0.1296
   89CHL1   H14 9009   3.611   5.643   7.932  0.7439  0.8273 -1.0870
   89CHL1   C15 9010   3.414   5.708   7.982 -0.8126 -0.0942 -0.3955
   89CHL1  H15A 9011   3.342   5.788   7.956  0.1626  0.6129 -0.9988
   89CHL1  H15B 9012   3.383   5.608   7.945 -0.3287  0.0277 -1.1669
   89CHL1   C16 9013   3.457   5.710   8.133 -0.2124  0.0934  0.3190
   89CHL1  H16A 9014   3.381   5.770   8.187 -0.4638  0.6463 -0.6289
   89CHL1  H16B 9015   3.448   5.608   8.176 -0.2365 -0.3180 -0.6211
   89CHL1   C17 9016   3.596   5.772   8.149  0.9371 -0.2706  0.2237
   89CHL1   H17 9017   3.668   5.689   8.154  0.5902 -0.5539  0.6180
   89CHL1   C13 9018   3.620   5.839   8.006 -0.5957  0.3150 -0.2590
   89CHL1   C18 9019   3.550   5.972   7.993 -0.7338  0.0396 -0.1686
   89CHL1  H18A 9020   3.443   5.963   8.021 -0.6706 -0.4592 -0.0909
   89CHL1  H18B 9021   3.598   6.053   8.054  1.4884  0.2045 -2.0138
   89CHL1  H18C 9022   3.544   6.012   7.890  0.1899  1.9108  0.4372
   89CHL1   C12 9023   3.771   5.839   7.956  0.4233  0.0110 -0.0093
   89CHL1  H12A 9024   3.830   5.913   8.015  0.5343  0.1175 -0.2503
   89CHL1  H12B 9025   3.806   5.737   7.980 -1.2705 -0.2637  1.5228
   89CHL1   C11 9026   3.790   5.860   7.806 -0.0806  0.3783 -0.0684
   89CHL1  H11A 9027   3.767   5.967   7.786  0.7112  0.4307 -0.7832
   89CHL1  H11B 9028   3.898   5.858   7.777 -0.4426  2.9568 -1.9918
   89CHL1    C9 9029   3.699   5.775   7.711 -0.6223 -0.6451  0.0881
   89CHL1    H9 9030   3.735   5.670   7.718  1.1568  0.0130  2.0200
   89CHL1   C10 9031   3.709   5.817   7.561 -0.8672 -0.2963 -0.0615
   89CHL1   C19 9032   3.701   5.972   7.540 -0.1120  0.1907 -0.3505
   89CHL1  H19A 9033   3.793   6.027   7.571 -0.6353  0.6493  0.4382
   89CHL1  H19B 9034   3.676   5.989   7.433 -0.6992  0.1233 -0.2253
   89CHL1  H19C 9035   3.615   6.011   7.599  1.1462 -0.6508  2.1726
   89CHL1    C1 9036   3.845   5.774   7.500  0.5950  1.3827 -0.3310
   89CHL1   H1A 9037   3.922   5.835   7.552 -0.1292  2.7913 -0.8721
   89CHL1   H1B 9038   3.861   5.672   7.542  0.1828  1.9156  1.1866
   89CHL1    C2 9039   3.858   5.779   7.350 -0.0239 -0.5268 -0.4154
   89CHL1   H2A 9040   3.956   5.743   7.311  0.7844 -0.4772  1.4411
   89CHL1   H2B 9041   3.856   5.882   7.309  4.0294 -0.2647 -0.3641
   89CHL1   C20 9042   3.618   5.851   8.279 -0.6137 -0.1225 -0.0762
   89CHL1   H20 9043   3.551   5.939   8.291 -1.1533 -0.7162  1.3986
   89CHL1   C21 9044   3.766   5.890   8.287 -0.0485 -0.2193 -0.2204
   89CHL1  H21A 9045   3.837   5.805   8.272 -0.6502 -0.8209  0.2573
   89CHL1  H21B 9046   3.806   5.929   8.384 -1.0749 -0.1128  0.1659
   89CHL1  H21C 9047   3.782   5.975   8.217 -0.9183 -0.1612 -0.3533
   89CHL1   C22 9048   3.583   5.763   8.401 -0.4587  0.3327  0.7977
   89CHL1  H22A 9049   3.477   5.729   8.391 -0.2391 -0.2619  0.4267
   89CHL1  H22B 9050   3.649   5.674   8.402 -1.3114 -0.3218  0.6927
   89CHL1   C23 9051   3.590   5.843   8.536  0.7919 -1.2154 -0.4049
   89CHL1  H23A 9052   3.676   5.913   8.541  0.4081 -0.8621  2.7047
   89CHL1  H23B 9053   3.502   5.910   8.535  0.2828 -1.8113  1.5544
   89CHL1   C24 9054   3.578   5.761   8.661  0.2379 -0.5997  0.5809
   89CHL1  H24A 9055   3.494   5.691   8.645  0.0522 -0.5087  1.1393
   89CHL1  H24B 9056   3.676   5.711   8.677  0.8258  0.3989  0.2132
   89CHL1   C25 9057   3.542   5.848   8.779  0.0262  0.5853 -0.6906
   89CHL1   H25 9058   3.454   5.906   8.743  0.5535  1.1605 -1.0579
   89CHL1   C26 9059   3.497   5.761   8.896  0.0931  0.1515 -0.0627
   89CHL1  H26A 9060   3.566   5.674   8.893  1.4794  1.2281 -1.9258
   89CHL1  H26B 9061   3.503   5.813   8.994  0.1279 -1.1469  0.6371
   89CHL1  H26C 9062   3.392   5.729   8.882 -0.5721  1.2385  2.0834
   89CHL1   C27 9063   3.637   5.953   8.827  0.8058 -0.4173 -0.3578
   89CHL1  H27A 9064   3.671   6.020   8.745  4.0866  0.4140  1.5085
   89CHL1  H27B 9065   3.600   6.024   8.904  1.3506 -0.9272  0.3901
   89CHL1  H27C 9066   3.737   5.911   8.850  0.7002 -2.4254 -3.0566
   90CHL1    C3 9067   0.837   3.336   7.092  0.6281  0.2543 -0.4633
   90CHL1    H3 9068   0.751   3.266   7.090 -2.9630  4.2943 -0.7217
   90CHL1    O3 9069   0.855   3.373   6.961 -0.2193 -0.2305 -0.0736
   90CHL1   H3' 9070   0.935   3.425   6.961 -0.6498  0.5475 -2.3938
   90CHL1    C4 9071   0.794   3.465   7.169 -0.1857 -0.0099 -0.6278
   90CHL1   H4A 9072   0.884   3.530   7.169 -0.9344  1.2698  2.8068
   90CHL1   H4B 9073   0.716   3.519   7.110  1.1132  1.8174 -0.7482
   90CHL1    C5 9074   0.776   3.430   7.316 -0.4100 -0.0611 -0.5579
   90CHL1    C6 9075   0.667   3.466   7.389  0.0033 -0.2199 -0.3275
   90CHL1    H6 9076   0.587   3.517   7.334 -1.4865 -2.2853 -0.1967
   90CHL1    C7 9077   0.655   3.441   7.537  0.1604  0.2032 -0.2900
   90CHL1   H7A 9078   0.616   3.534   7.584 -1.6229 -0.1247 -1.0363
   90CHL1   H7B 9079   0.589   3.353   7.556 -0.1230  0.3598 -0.5402
   90CHL1    C8 9080   0.790   3.405   7.605  0.0612 -0.1101  0.2099
   90CHL1    H8 9081   0.852   3.497   7.607  1.7822 -1.2264  0.6687
   90CHL1   C14 9082   0.758   3.346   7.747 -0.3616  0.2121 -0.0851
   90CHL1   H14 9083   0.701   3.253   7.723 -0.5478  0.7594 -1.9741
   90CHL1   C15 9084   0.670   3.435   7.838 -0.0902  0.2590 -0.1473
   90CHL1  H15A 9085   0.706   3.540   7.831  2.4795 -0.5100  0.2733
   90CHL1  H15B 9086   0.569   3.424   7.794  0.3233 -0.4513 -0.9403
   90CHL1   C16 9087   0.699   3.379   7.979  0.1316  0.1569  0.1247
   90CHL1  H16A 9088   0.747   3.462   8.034 -1.3636  0.4358  1.0821
   90CHL1  H16B 9089   0.613   3.348   8.043  0.0513  0.3991  0.1342
   90CHL1   C17 9090   0.797   3.249   7.949  0.4832 -0.4935  0.4836
   90CHL1   H17 9091   0.740   3.157   7.925 -1.2728  0.6955 -0.0891
   90CHL1   C13 9092   0.876   3.288   7.824 -0.6400  0.1780  0.6371
   90CHL1   C18 9093   0.980   3.406   7.855  0.6713  0.2571  0.1393
   90CHL1  H18A 9094   1.076   3.355   7.878  0.4426 -0.2525 -0.0202
   90CHL1  H18B 9095   0.985   3.467   7.762 -0.0180  0.6146  0.3293
   90CHL1  H18C 9096   0.952   3.473   7.939  0.4338 -1.1088  1.1811
   90CHL1   C12 9097   0.937   3.176   7.740 -0.2612 -0.0102  0.7145
   90CHL1  H12A 9098   1.032   3.154   7.793 -0.8415 -2.6641  0.8124
   90CHL1  H12B 9099   0.877   3.083   7.724 -0.7529  0.4515 -0.2500
   90CHL1   C11 9100   0.986   3.234   7.603  0.0816 -0.3102 -0.0694
   90CHL1  H11A 9101   1.064   3.310   7.621  1.6129 -2.1708  1.6833
   90CHL1  H11B 9102   1.039   3.148   7.557  0.6296 -1.0953  1.9171
   90CHL1    C9 9103   0.865   3.292   7.521  0.0677 -0.1877 -0.3069
   90CHL1    H9 9104   0.793   3.208   7.506  0.8006 -1.2370  1.7072
   90CHL1   C10 9105   0.897   3.345   7.379 -0.7232 -0.8498 -0.2360
   90CHL1   C19 9106   1.027   3.438   7.388 -1.0562  0.7998  0.2387
   90CHL1  H19A 9107   1.000   3.530   7.444 -2.6307 -0.4747  1.6414
   90CHL1  H19B 9108   1.108   3.370   7.422 -0.8392 -0.7894 -3.0636
   90CHL1  H19C 9109   1.072   3.484   7.297 -1.0140  1.5990  0.6546
   90CHL1    C1 9110   0.932   3.223   7.278 -0.1595 -0.6806  0.8036
   90CHL1   H1A 9111   1.023   3.169   7.313  0.7675 -0.6237 -1.3493
   90CHL1   H1B 9112   0.850   3.148   7.276 -0.4152 -0.3942  0.4887
   90CHL1    C2 9113   0.957   3.269   7.134 -0.1693 -0.4935  0.2080
   90CHL1   H2A 9114   0.978   3.186   7.065 -1.9293  0.1942 -1.2403
   90CHL1   H2B 9115   1.047   3.333   7.118 -0.8651  0.8253  1.2995
   90CHL1   C20 9116   0.871   3.219   8.081  0.1612  0.8464 -0.0055
   90CHL1   H20 9117   0.940   3.305   8.096  1.0057  0.4632 -1.4987
   90CHL1   C21 9118   0.967   3.096   8.067  0.0128 -0.5739  0.0250
   90CHL1  H21A 9119   1.044   3.115   8.145 -0.1410 -1.2389  0.3444
   90CHL1  H21B 9120   1.011   3.086   7.966 -0.6485  1.0608 -0.4647
   90CHL1  H21C 9121   0.908   3.010   8.106  1.7807 -1.8909 -0.0663
   90CHL1   C22 9122   0.772   3.201   8.200  0.4458 -0.0543  0.3739
   90CHL1  H22A 9123   0.705   3.290   8.209  1.2876  0.6591 -0.2286
   90CHL1  H22B 9124   0.712   3.115   8.165  2.2316 -1.4220  0.5546
   90CHL1   C23 9125   0.843   3.173   8.334  0.2496 -0.5242  0.2517
   90CHL1  H23A 9126   0.905   3.082   8.349  4.0592  1.9294  0.7243
   90CHL1  H23B 9127   0.913   3.259   8.343  0.5582 -0.7700  0.2139
   90CHL1   C24 9128   0.731   3.185   8.444 -0.5027 -0.4530  0.3847
   90CHL1  H24A 9129   0.669   3.276   8.432 -1.3711 -1.0094  0.5935
   90CHL1  H24B 9130   0.668   3.094   8.440  0.0889 -0.8324 -1.6870
   90CHL1   C25 9131   0.780   3.210   8.591  0.1984  0.0003 -0.3309
   90CHL1   H25 9132   0.700   3.171   8.657 -0.3007 -1.5128 -1.7535
   90CHL1   C26 9133   0.900   3.114   8.636  0.5606 -0.4325  1.1100
   90CHL1  H26A 9134   0.984   3.152   8.574 -2.5916  1.2841 -2.5362
   90CHL1  H26B 9135   0.924   3.129   8.743 -1.7318 -0.2606  1.6425
   90CHL1  H26C 9136   0.866   3.010   8.617 -1.2776 -0.0119  1.9126
   90CHL1   C27 9137   0.820   3.354   8.608 -0.3455 -0.6622  0.0222
   90CHL1  H27A 9138   0.903   3.378   8.538 -0.6110 -0.9061 -0.3832
   90CHL1  H27B 9139   0.732   3.420   8.596 -0.3958 -0.1559  2.6107
   90CHL1  H27C 9140   0.853   3.367   8.713  1.0720 -1.0919 -0.3535
   91CHL1    C3 9141   4.751   4.163   7.397  0.4228  0.6471 -0.5575
   91CHL1    H3 9142   4.665   4.232   7.412  0.6974  1.2135 -1.4862
   91CHL1    O3 9143   4.795   4.190   7.260 -0.2339 -0.0596 -0.4039
   91CHL1   H3' 9144   4.750   4.125   7.205 -0.5197  1.0497 -1.5401
   91CHL1    C4 9145   4.865   4.203   7.494  0.1328 -0.0167  0.9173
   91CHL1   H4A 9146   4.957   4.141   7.480  0.6943  1.0532 -0.3079
   91CHL1   H4B 9147   4.880   4.310   7.470 -2.6377  0.3745  0.6217
   91CHL1    C5 9148   4.819   4.179   7.632 -1.0483  0.6095  0.3338
   91CHL1    C6 9149   4.816   4.282   7.709 -0.2076  0.2393 -0.0250
   91CHL1    H6 9150   4.857   4.377   7.671 -1.0388 -0.2766 -2.3711
   91CHL1    C7 9151   4.770   4.282   7.857  0.3569  0.6163  0.7002
   91CHL1   H7A 9152   4.835   4.341   7.924 -1.0934  2.4595  0.5617
   91CHL1   H7B 9153   4.667   4.324   7.861 -0.5124 -0.7838 -2.9596
   91CHL1    C8 9154   4.754   4.130   7.903 -0.5348  0.0740  0.0510
   91CHL1    H8 9155   4.856   4.090   7.920 -0.8548 -0.5066  0.6532
   91CHL1   C14 9156   4.680   4.132   8.040  0.9487 -0.0208 -0.0674
   91CHL1   H14 9157   4.581   4.173   8.013  2.1546  1.3363 -2.8335
   91CHL1   C15 9158   4.739   4.214   8.154  0.1339 -0.3207  0.5225
   91CHL1  H15A 9159   4.843   4.176   8.165 -0.2697 -1.3400  1.0146
   91CHL1  H15B 9160   4.725   4.322   8.132  0.1128 -0.9455 -3.1879
   91CHL1   C16 9161   4.659   4.165   8.281 -0.7303  0.2010  0.6751
   91CHL1  H16A 9162   4.730   4.131   8.359  0.1038  0.5469  0.0736
   91CHL1  H16B 9163   4.585   4.233   8.330 -1.3380  0.1266 -0.1249
   91CHL1   C17 9164   4.589   4.032   8.232 -0.1129 -0.0194 -0.2849
   91CHL1   H17 9165   4.488   4.063   8.199  0.3989  0.7175 -1.1959
   91CHL1   C13 9166   4.657   3.992   8.098 -0.1333  0.5549 -0.1643
   91CHL1   C18 9167   4.790   3.921   8.136  0.1988 -0.2722 -0.4378
   91CHL1  H18A 9168   4.760   3.825   8.184 -0.3738  1.0592  2.0240
   91CHL1  H18B 9169   4.847   3.895   8.045  2.7801  0.2530  0.9230
   91CHL1  H18C 9170   4.856   3.970   8.212  0.2960  1.6398 -1.7029
   91CHL1   C12 9171   4.587   3.906   7.984 -0.3084  0.3325  0.3593
   91CHL1  H12A 9172   4.572   3.806   8.030 -1.7901  1.2538  1.9943
   91CHL1  H12B 9173   4.488   3.957   7.981  0.1048  1.1072 -1.2829
   91CHL1   C11 9174   4.658   3.896   7.849 -0.4181  0.1973 -0.8953
   91CHL1  H11A 9175   4.751   3.842   7.874  0.7420  1.6432 -1.8787
   91CHL1  H11B 9176   4.591   3.849   7.774 -0.1902  0.9325 -1.5827
   91CHL1    C9 9177   4.686   4.039   7.803 -0.8428 -0.4525  0.2216
   91CHL1    H9 9178   4.587   4.078   7.771  0.2078  0.3148 -2.2972
   91CHL1   C10 9179   4.761   4.041   7.664  0.7131  0.2137 -0.1400
   91CHL1   C19 9180   4.871   3.934   7.665 -0.0738  0.2821  0.6601
   91CHL1  H19A 9181   4.927   3.965   7.756  0.2386  1.5444  0.0602
   91CHL1  H19B 9182   4.826   3.832   7.658 -0.5924  0.4893  0.9237
   91CHL1  H19C 9183   4.947   3.945   7.585  1.4660 -1.6912  1.7395
   91CHL1    C1 9184   4.653   3.996   7.557 -0.0099 -0.4020  0.2160
   91CHL1   H1A 9185   4.629   3.888   7.565  1.3272 -0.6442  1.2808
   91CHL1   H1B 9186   4.563   4.061   7.568 -1.0414 -1.6706 -0.4871
   91CHL1    C2 9187   4.705   4.017   7.420 -0.8379  0.8409  0.0249
   91CHL1   H2A 9188   4.625   3.988   7.349  0.3905  0.9767 -1.4679
   91CHL1   H2B 9189   4.788   3.944   7.404  0.8556  2.5841  0.4777
   91CHL1   C20 9190   4.579   3.930   8.346  0.1159  0.0735  0.1355
   91CHL1   H20 9191   4.679   3.892   8.375  0.5650  1.0701 -0.0599
   91CHL1   C21 9192   4.496   3.806   8.298 -0.5965 -0.2800  0.7151
   91CHL1  H21A 9193   4.461   3.733   8.374  0.3918 -0.1363  1.3328
   91CHL1  H21B 9194   4.569   3.753   8.233 -0.2396  0.1700  0.7436
   91CHL1  H21C 9195   4.423   3.847   8.226 -1.2356  1.3584  2.2287
   91CHL1   C22 9196   4.511   3.986   8.471 -0.2218 -0.5132  0.5305
   91CHL1  H22A 9197   4.565   4.078   8.500  1.5009 -0.5985 -2.1168
   91CHL1  H22B 9198   4.404   4.007   8.450 -0.7955 -1.8642  1.9066
   91CHL1   C23 9199   4.512   3.900   8.600 -0.4373  0.6128 -0.6258
   91CHL1  H23A 9200   4.440   3.816   8.592  0.0294  0.1996 -0.5397
   91CHL1  H23B 9201   4.611   3.852   8.618 -1.0275  0.1551  1.6451
   91CHL1   C24 9202   4.497   3.996   8.720  0.2252 -0.1951 -0.2587
   91CHL1  H24A 9203   4.587   4.061   8.723  0.1056 -0.0146 -0.5507
   91CHL1  H24B 9204   4.408   4.058   8.696  0.1605  0.2535  1.0131
   91CHL1   C25 9205   4.471   3.930   8.860 -0.2408 -0.2261 -0.8913
   91CHL1   H25 9206   4.450   4.016   8.928  1.0091 -0.9243  0.4489
   91CHL1   C26 9207   4.345   3.846   8.868  0.2332 -0.3681 -0.2675
   91CHL1  H26A 9208   4.323   3.800   8.966 -0.8639 -1.8764 -1.1854
   91CHL1  H26B 9209   4.255   3.904   8.841 -2.1738 -2.2006  3.0743
   91CHL1  H26C 9210   4.348   3.747   8.817  3.6299 -0.0207 -0.9906
   91CHL1   C27 9211   4.593   3.849   8.904 -0.8820 -0.1287  0.4919
   91CHL1  H27A 9212   4.689   3.901   8.923 -0.0311 -1.8545  1.1105
   91CHL1  H27B 9213   4.578   3.795   8.999  0.2561  0.1718  0.8570
   91CHL1  H27C 9214   4.616   3.771   8.828  0.1483 -1.3686  2.0290
   92CHL1    C3 9215   2.220   0.174   7.016  0.0518 -0.0639 -0.3411
   92CHL1    H3 9216   2.142   0.245   7.050 -0.3225 -0.9550  0.6968
   92CHL1    O3 9217   2.215   0.164   6.876  0.4751  0.3613 -0.1667
   92CHL1   H3' 9218   2.293   0.113   6.854  0.2987  0.9962 -2.4804
   92CHL1    C4 9219   2.362   0.205   7.061 -0.6706 -0.3638 -0.2703
   92CHL1   H4A 9220   2.436   0.129   7.029 -0.3989 -0.1439 -0.1614
   92CHL1   H4B 9221   2.380   0.303   7.011  1.0064  0.1285  1.2340
   92CHL1    C5 9222   2.353   0.214   7.210 -0.2910  0.0300  0.1307
   92CHL1    C6 9223   2.382   0.327   7.277 -0.3992  0.0455  0.7391
   92CHL1    H6 9224   2.390   0.419   7.217  0.3285 -1.4716 -1.6601
   92CHL1    C7 9225   2.373   0.351   7.420 -0.6563 -0.4847  0.1392
   92CHL1   H7A 9226   2.452   0.426   7.441 -1.1394  0.5171 -1.3945
   92CHL1   H7B 9227   2.285   0.405   7.461  0.0133 -2.4641  4.9173
   92CHL1    C8 9228   2.379   0.216   7.501  0.4326 -0.6071 -0.1599
   92CHL1    H8 9229   2.484   0.180   7.500  0.5869 -0.3217  1.9901
   92CHL1   C14 9230   2.331   0.235   7.641  0.9667 -0.0137  0.0843
   92CHL1   H14 9231   2.226   0.272   7.639  1.7429  2.4010 -2.0932
   92CHL1   C15 9232   2.387   0.349   7.730 -0.7370  0.3752 -0.1343
   92CHL1  H15A 9233   2.496   0.363   7.712 -0.9790 -0.2163 -2.4073
   92CHL1  H15B 9234   2.344   0.449   7.706  3.0783  2.1497 -0.3314
   92CHL1   C16 9235   2.365   0.307   7.880  0.3619  0.8187  0.1422
   92CHL1  H16A 9236   2.461   0.306   7.934 -0.3394  2.9703  1.5295
   92CHL1  H16B 9237   2.296   0.377   7.931  0.0389 -1.1056  2.5008
   92CHL1   C17 9238   2.291   0.168   7.869 -1.0859 -0.2728 -0.4689
   92CHL1   H17 9239   2.182   0.185   7.855 -1.1475 -0.6035 -0.3927
   92CHL1   C13 9240   2.345   0.115   7.736  0.5023  0.7363  0.0573
   92CHL1   C18 9241   2.483   0.064   7.757 -0.0502 -0.2645  0.2300
   92CHL1  H18A 9242   2.500   0.004   7.849  0.6027  1.5830  1.3872
   92CHL1  H18B 9243   2.519   0.016   7.664  1.4827  2.5434 -0.7497
   92CHL1  H18C 9244   2.550   0.149   7.780  0.5500 -0.3815 -1.0113
   92CHL1   C12 9245   2.250   0.006   7.684  0.3901  0.6059 -0.2799
   92CHL1  H12A 9246   2.254  -0.083   7.750  0.7530 -0.2947 -1.4788
   92CHL1  H12B 9247   2.148   0.050   7.699  0.4677  0.0732  2.2131
   92CHL1   C11 9248   2.278  -0.017   7.535  0.0257 -0.2534 -0.7692
   92CHL1  H11A 9249   2.375  -0.071   7.533 -0.6309 -1.7542  2.2199
   92CHL1  H11B 9250   2.207  -0.091   7.492 -0.0291  0.5170 -2.0840
   92CHL1    C9 9251   2.289   0.110   7.440 -0.2008  0.3009  0.0250
   92CHL1    H9 9252   2.183   0.144   7.448 -0.7657 -0.4187 -3.0255
   92CHL1   C10 9253   2.310   0.087   7.283 -0.2029 -0.3961 -0.2251
   92CHL1   C19 9254   2.423  -0.016   7.277 -0.2894 -0.1337 -0.4961
   92CHL1  H19A 9255   2.430  -0.053   7.173 -2.0636 -2.8466  0.2469
   92CHL1  H19B 9256   2.522   0.033   7.292 -1.0674  1.5586 -0.7008
   92CHL1  H19C 9257   2.424  -0.106   7.343 -1.6650  0.3888  0.2688
   92CHL1    C1 9258   2.181   0.026   7.220 -0.3051 -0.4129 -0.0918
   92CHL1   H1A 9259   2.166  -0.079   7.253  0.8403 -0.6369 -0.2428
   92CHL1   H1B 9260   2.104   0.084   7.275 -1.2428 -1.8630  0.1840
   92CHL1    C2 9261   2.170   0.033   7.061  0.1425  0.5525 -0.3134
   92CHL1   H2A 9262   2.073   0.006   7.015 -0.3226 -2.4373  2.1134
   92CHL1   H2B 9263   2.240  -0.051   7.039  2.0502  1.4947  1.7263
   92CHL1   C20 9264   2.290   0.084   8.001  0.5053  0.4215 -0.2523
   92CHL1   H20 9265   2.378   0.016   7.993  2.1831  2.5607 -0.7692
   92CHL1   C21 9266   2.165  -0.012   7.998  0.3383 -0.6031 -0.1222
   92CHL1  H21A 9267   2.129  -0.053   7.901 -1.7978  1.5946 -0.3433
   92CHL1  H21B 9268   2.078   0.040   8.043  0.9811 -0.1312  0.5929
   92CHL1  H21C 9269   2.186  -0.102   8.060  2.8335 -0.5331 -0.7537
   92CHL1   C22 9270   2.303   0.169   8.132  0.1414 -0.2364  0.2726
   92CHL1  H22A 9271   2.402   0.219   8.135  0.7388 -0.9645 -2.8115
   92CHL1  H22B 9272   2.233   0.254   8.136  0.5294  0.0390  1.4549
   92CHL1   C23 9273   2.303   0.089   8.266  0.7073 -0.3253  0.4232
   92CHL1  H23A 9274   2.211   0.030   8.287  0.0817  0.3109 -0.4691
   92CHL1  H23B 9275   2.392   0.023   8.276 -1.3490 -3.5303 -0.8148
   92CHL1   C24 9276   2.302   0.199   8.374 -0.4115 -0.1526 -0.1888
   92CHL1  H24A 9277   2.363   0.288   8.347  0.9944 -0.8387  0.6083
   92CHL1  H24B 9278   2.202   0.246   8.382  0.0776  0.6767  1.6069
   92CHL1   C25 9279   2.353   0.147   8.509 -0.0448 -0.1264 -0.2207
   92CHL1   H25 9280   2.430   0.068   8.495  1.0060  0.2569  2.6849
   92CHL1   C26 9281   2.419   0.265   8.590  0.1538 -0.3970  0.4979
   92CHL1  H26A 9282   2.347   0.340   8.631  1.4146  0.1332  1.8434
   92CHL1  H26B 9283   2.454   0.211   8.680  0.4412 -2.6679 -0.9200
   92CHL1  H26C 9284   2.496   0.316   8.528 -0.9811  0.3152 -0.3634
   92CHL1   C27 9285   2.244   0.076   8.594 -0.1686  0.7058 -0.3088
   92CHL1  H27A 9286   2.158   0.141   8.621  0.5783  0.7854  2.1610
   92CHL1  H27B 9287   2.200  -0.017   8.550  2.0441 -0.6665  0.2152
   92CHL1  H27C 9288   2.279   0.027   8.688 -2.0392 -0.4129 -0.1390
   93CHL1    C3 9289   3.545   3.025   7.182  0.2209 -0.4916  0.7732
   93CHL1    H3 9290   3.521   2.919   7.163 -1.6654 -0.0748  0.6631
   93CHL1    O3 9291   3.545   3.093   7.053 -0.5473  0.4748  0.6164
   93CHL1   H3' 9292   3.621   3.058   7.006 -0.0228  1.2828  0.8390
   93CHL1    C4 9293   3.440   3.093   7.272 -0.0351 -0.0568  0.2487
   93CHL1   H4A 9294   3.450   3.204   7.272 -0.0868 -0.0451 -0.6896
   93CHL1   H4B 9295   3.345   3.076   7.218  1.1489  0.0649 -2.0215
   93CHL1    C5 9296   3.424   3.032   7.409 -0.0753 -0.3470  0.1497
   93CHL1    C6 9297   3.312   2.980   7.457  0.3790 -0.8262  0.5041
   93CHL1    H6 9298   3.228   2.968   7.387  1.9752 -1.6843 -1.3524
   93CHL1    C7 9299   3.288   2.926   7.595  1.2320 -0.4862 -0.2961
   93CHL1   H7A 9300   3.191   2.961   7.637  2.8486  1.0736  2.4392
   93CHL1   H7B 9301   3.292   2.815   7.599  1.6228 -0.4364  1.4377
   93CHL1    C8 9302   3.413   2.957   7.689  0.9063 -0.0516  0.1885
   93CHL1    H8 9303   3.403   3.059   7.731 -0.3732  0.0216 -0.2699
   93CHL1   C14 9304   3.419   2.852   7.803 -0.2273  0.4528  0.0023
   93CHL1   H14 9305   3.448   2.755   7.758 -4.1785 -1.6616  1.4809
   93CHL1   C15 9306   3.293   2.824   7.890  0.0612  0.2417 -0.1490
   93CHL1  H15A 9307   3.259   2.925   7.922  1.7028  0.9532 -0.5402
   93CHL1  H15B 9308   3.214   2.766   7.838  1.0302 -3.1230  1.7863
   93CHL1   C16 9309   3.342   2.746   8.017  0.3292  0.1340  0.6374
   93CHL1  H16A 9310   3.315   2.813   8.101 -0.1941  1.0813 -0.2602
   93CHL1  H16B 9311   3.297   2.645   8.025  1.6186 -0.7089 -1.6760
   93CHL1   C17 9312   3.493   2.748   8.001 -0.3436 -0.3062  0.1072
   93CHL1   H17 9313   3.516   2.660   7.937  0.3701 -0.8737  1.1001
   93CHL1   C13 9314   3.535   2.869   7.903  0.4964  0.1058  0.2639
   93CHL1   C18 9315   3.540   3.006   7.983 -0.0708 -0.0001  0.1667
   93CHL1  H18A 9316   3.534   3.098   7.921  1.9663 -0.6542 -1.0869
   93CHL1  H18B 9317   3.449   3.011   8.048 -0.1577  0.1545  0.0338
   93CHL1  H18C 9318   3.622   3.020   8.055 -1.0363  2.2421  0.9175
   93CHL1   C12 9319   3.668   2.864   7.819  0.8412  0.3933 -0.3610
   93CHL1  H12A 9320   3.753   2.884   7.888  1.5520 -0.5394 -0.9463
   93CHL1  H12B 9321   3.679   2.760   7.781 -0.9587 -0.1378  0.4157
   93CHL1   C11 9322   3.668   2.974   7.709 -0.0434 -0.3177 -0.0901
   93CHL1  H11A 9323   3.675   3.070   7.765 -1.1287  0.4358 -1.2118
   93CHL1  H11B 9324   3.765   2.955   7.660 -0.5468  0.3692 -1.3884
   93CHL1    C9 9325   3.550   2.955   7.612  0.7466 -0.6183  0.1962
   93CHL1    H9 9326   3.563   2.847   7.586  0.8898 -1.7064  4.1063
   93CHL1   C10 9327   3.565   3.041   7.480  0.6495 -0.2146  0.2778
   93CHL1   C19 9328   3.599   3.184   7.519 -0.2040 -0.3295 -0.2859
   93CHL1  H19A 9329   3.704   3.183   7.555 -0.2708 -2.1660 -0.0522
   93CHL1  H19B 9330   3.595   3.247   7.428  0.7498 -1.6579 -1.2823
   93CHL1  H19C 9331   3.521   3.218   7.591 -0.9383 -0.6535 -0.9061
   93CHL1    C1 9332   3.674   2.980   7.386 -0.3545 -0.5531 -0.2753
   93CHL1   H1A 9333   3.778   2.987   7.425 -0.2317 -0.8636 -0.5417
   93CHL1   H1B 9334   3.652   2.873   7.370  2.3007 -0.9807 -1.5169
   93CHL1    C2 9335   3.681   3.042   7.241  0.8148 -0.2487 -0.5813
   93CHL1   H2A 9336   3.754   2.986   7.179  0.5740 -0.9058 -0.2751
   93CHL1   H2B 9337   3.714   3.148   7.240  1.0920 -0.3352 -0.5685
   93CHL1   C20 9338   3.572   2.722   8.131 -0.5680 -0.2576  0.6674
   93CHL1   H20 9339   3.680   2.731   8.109 -0.2093  0.4335  2.5283
   93CHL1   C21 9340   3.549   2.569   8.166  0.1097 -0.2941  0.3414
   93CHL1  H21A 9341   3.576   2.504   8.080 -2.2182  0.0068 -0.6984
   93CHL1  H21B 9342   3.439   2.553   8.179 -0.2717  1.8696  0.2067
   93CHL1  H21C 9343   3.608   2.545   8.257  1.0180 -0.0335 -0.1683
   93CHL1   C22 9344   3.538   2.809   8.249 -0.3187 -0.3590 -0.1280
   93CHL1  H22A 9345   3.507   2.913   8.223  0.4446 -0.3025 -0.8580
   93CHL1  H22B 9346   3.457   2.748   8.294  0.1131 -2.6426 -2.2852
   93CHL1   C23 9347   3.645   2.811   8.347 -0.3079  0.4329 -0.9305
   93CHL1  H23A 9348   3.677   2.711   8.384  0.3784  1.1691  0.5651
   93CHL1  H23B 9349   3.734   2.870   8.314 -0.1180  1.1099  0.6785
   93CHL1   C24 9350   3.586   2.889   8.467 -0.9961 -0.4248  0.0032
   93CHL1  H24A 9351   3.560   2.994   8.443  0.2769  0.9130  3.7752
   93CHL1  H24B 9352   3.492   2.837   8.492 -1.3564  0.9658  1.6926
   93CHL1   C25 9353   3.682   2.909   8.595 -0.3226 -0.6097  0.1943
   93CHL1   H25 9354   3.734   2.815   8.623  0.1208 -0.3394  0.2970
   93CHL1   C26 9355   3.779   3.024   8.575  0.4749 -0.1699 -0.3595
   93CHL1  H26A 9356   3.725   3.121   8.567 -1.1112 -1.1320 -1.8372
   93CHL1  H26B 9357   3.838   3.029   8.669  0.1863 -4.0334  0.1924
   93CHL1  H26C 9358   3.840   3.001   8.485  0.2405 -2.5770  0.0318
   93CHL1   C27 9359   3.596   2.940   8.720 -0.3077 -0.6010 -0.6768
   93CHL1  H27A 9360   3.566   3.047   8.715 -3.2280 -1.2978 -0.0695
   93CHL1  H27B 9361   3.507   2.874   8.722 -1.7912  1.1540 -3.1912
   93CHL1  H27C 9362   3.661   2.919   8.808 -1.8202 -1.6304  0.2411
   94CHL1    C3 9363   3.418   4.419   7.349 -0.1161 -0.8093  0.5442
   94CHL1    H3 9364   3.328   4.481   7.371  1.8459  2.0053  1.1196
   94CHL1    O3 9365   3.422   4.408   7.209  0.4204 -0.3451  0.0233
   94CHL1   H3' 9366   3.468   4.326   7.190  1.1252 -0.5246  2.1974
   94CHL1    C4 9367   3.541   4.500   7.392  0.4791 -0.3486  0.3777
   94CHL1   H4A 9368   3.635   4.458   7.352  0.1930  0.7039 -1.5376
   94CHL1   H4B 9369   3.537   4.604   7.352 -0.9626 -0.5267 -0.0128
   94CHL1    C5 9370   3.547   4.508   7.543 -0.5176 -0.1015  0.7744
   94CHL1    C6 9371   3.579   4.622   7.598 -0.3940 -0.3660 -1.3503
   94CHL1    H6 9372   3.590   4.714   7.538  2.2596  1.4350  1.5684
   94CHL1    C7 9373   3.598   4.634   7.739  0.5557 -0.2599  0.1686
   94CHL1   H7A 9374   3.668   4.718   7.757 -1.1990  1.6860 -1.5514
   94CHL1   H7B 9375   3.506   4.671   7.790  2.5466  0.0035  3.9259
   94CHL1    C8 9376   3.637   4.499   7.805  0.1243 -0.6808  0.5573
   94CHL1    H8 9377   3.739   4.462   7.780  0.6773 -0.2999  2.1253
   94CHL1   C14 9378   3.625   4.511   7.949 -0.0347  0.0438  0.3116
   94CHL1   H14 9379   3.518   4.532   7.969 -0.0809 -0.7746  0.9831
   94CHL1   C15 9380   3.701   4.622   8.011 -0.4412 -0.4250 -0.9474
   94CHL1  H15A 9381   3.802   4.634   7.965 -1.3193 -2.4735 -3.6598
   94CHL1  H15B 9382   3.646   4.718   8.014 -0.0698 -0.2273  0.1439
   94CHL1   C16 9383   3.724   4.580   8.152  0.4958  0.1303 -0.2750
   94CHL1  H16A 9384   3.834   4.589   8.163  0.4439 -0.1493  0.4967
   94CHL1  H16B 9385   3.670   4.652   8.218  0.9035  3.7187 -3.4921
   94CHL1   C17 9386   3.666   4.437   8.167  0.5362 -0.3089  0.8496
   94CHL1   H17 9387   3.559   4.450   8.193 -0.4489 -0.5138 -2.5582
   94CHL1   C13 9388   3.663   4.384   8.021 -0.3286 -0.2375 -0.3615
   94CHL1   C18 9389   3.800   4.325   7.985  0.0810  0.1884  0.2121
   94CHL1  H18A 9390   3.830   4.234   8.043 -0.2022  0.5290  0.9064
   94CHL1  H18B 9391   3.813   4.294   7.879  0.4009  0.5546  0.1403
   94CHL1  H18C 9392   3.872   4.408   8.001  0.8527 -0.5667  0.7680
   94CHL1   C12 9393   3.553   4.282   7.995  0.7582 -0.3597 -0.4936
   94CHL1  H12A 9394   3.574   4.189   8.050 -2.6752  0.5524  2.7514
   94CHL1  H12B 9395   3.456   4.325   8.029  2.2837  1.5622  1.7186
   94CHL1   C11 9396   3.543   4.260   7.843  0.6445  0.3912 -0.1202
   94CHL1  H11A 9397   3.625   4.189   7.821 -0.2156 -0.7203  0.1830
   94CHL1  H11B 9398   3.455   4.193   7.835  1.0945 -0.5381  1.9464
   94CHL1    C9 9399   3.534   4.396   7.757 -0.0946  0.0456 -0.2131
   94CHL1    H9 9400   3.435   4.439   7.784  0.7803  1.1249  1.4701
   94CHL1   C10 9401   3.530   4.373   7.612 -0.0667  0.7319  0.2329
   94CHL1   C19 9402   3.652   4.290   7.586 -0.4408  0.3129  0.2895
   94CHL1  H19A 9403   3.631   4.187   7.619  3.6558 -0.5621  0.7381
   94CHL1  H19B 9404   3.679   4.284   7.479 -0.8877  0.9912  0.1289
   94CHL1  H19C 9405   3.740   4.330   7.641  0.7732 -1.4958 -0.2676
   94CHL1    C1 9406   3.408   4.293   7.562 -0.3845  0.2591  0.0471
   94CHL1   H1A 9407   3.409   4.190   7.604  0.7050  0.0493 -0.4605
   94CHL1   H1B 9408   3.321   4.346   7.606  0.5103  1.0675  0.8804
   94CHL1    C2 9409   3.401   4.286   7.413 -0.4363  0.3901  0.0040
   94CHL1   H2A 9410   3.309   4.243   7.368 -0.8998  1.8262 -0.4690
   94CHL1   H2B 9411   3.484   4.220   7.379  0.3875  1.0978  0.5906
   94CHL1   C20 9412   3.728   4.356   8.280 -0.4237 -0.1336  0.1974
   94CHL1   H20 9413   3.835   4.346   8.251 -0.7922 -4.0657 -0.2416
   94CHL1   C21 9414   3.674   4.219   8.285  0.1418  0.3279 -0.2602
   94CHL1  H21A 9415   3.710   4.167   8.194 -0.6948  1.6288 -1.3693
   94CHL1  H21B 9416   3.563   4.213   8.291  0.1877 -4.2033 -0.4731
   94CHL1  H21C 9417   3.722   4.157   8.365  2.4575 -1.2094 -2.6713
   94CHL1   C22 9418   3.717   4.427   8.414  0.0081  0.4826  0.6511
   94CHL1  H22A 9419   3.720   4.536   8.392  0.2422 -0.0358 -2.2283
   94CHL1  H22B 9420   3.619   4.397   8.458 -0.6256  1.4586 -0.0526
   94CHL1   C23 9421   3.823   4.392   8.517 -0.4593  0.1553  0.8999
   94CHL1  H23A 9422   3.829   4.283   8.538  1.5939  0.2098  0.7284
   94CHL1  H23B 9423   3.924   4.411   8.476  1.2598 -2.6546  3.4696
   94CHL1   C24 9424   3.798   4.454   8.646  0.4192 -0.6997 -0.5080
   94CHL1  H24A 9425   3.792   4.564   8.629 -0.8944 -0.6621  0.0706
   94CHL1  H24B 9426   3.693   4.435   8.675 -0.1164  2.4564 -0.0291
   94CHL1   C25 9427   3.893   4.423   8.770  1.3338 -0.6051  0.6555
   94CHL1   H25 9428   3.861   4.487   8.856  1.3643 -0.2535  0.4067
   94CHL1   C26 9429   3.885   4.276   8.821 -0.1532  0.6241 -0.4379
   94CHL1  H26A 9430   3.787   4.258   8.870  0.3257  1.7750  1.0441
   94CHL1  H26B 9431   3.898   4.211   8.732 -1.7332 -1.0197  0.4799
   94CHL1  H26C 9432   3.972   4.258   8.888 -0.4930  1.7189  0.3351
   94CHL1   C27 9433   4.050   4.442   8.744  0.5883 -0.0889  0.3225
   94CHL1  H27A 9434   4.110   4.404   8.829 -2.2000 -1.5002  1.7687
   94CHL1  H27B 9435   4.085   4.384   8.656 -0.4188 -0.1328 -0.0691
   94CHL1  H27C 9436   4.091   4.544   8.724  2.6599 -1.1498 -1.1996
   95CHL1    C3 9437   1.603   0.083   6.919 -0.2960 -0.1011 -0.4756
   95CHL1    H3 9438   1.544   0.149   6.986  0.2738 -1.0682  1.0289
   95CHL1    O3 9439   1.605   0.110   6.778  0.0418 -0.5750 -0.1125
   95CHL1   H3' 9440   1.669   0.179   6.760 -0.8432 -0.0378 -1.3923
   95CHL1    C4 9441   1.746   0.100   6.969  0.2404  0.1213  0.1916
   95CHL1   H4A 9442   1.798   0.024   6.908  1.7753  1.3888 -0.1412
   95CHL1   H4B 9443   1.791   0.194   6.931  0.9734 -0.4743 -0.4458
   95CHL1    C5 9444   1.758   0.077   7.122  0.0275  0.6778  1.1967
   95CHL1    C6 9445   1.803   0.175   7.194 -0.1377 -0.6811 -0.5086
   95CHL1    H6 9446   1.821   0.272   7.147  1.0309 -1.0914 -0.9294
   95CHL1    C7 9447   1.821   0.158   7.344 -0.2716 -0.0852  0.6379
   95CHL1   H7A 9448   1.914   0.209   7.378  0.3767  0.6075 -1.9914
   95CHL1   H7B 9449   1.731   0.197   7.398  0.1124 -1.2272  2.1624
   95CHL1    C8 9450   1.821   0.004   7.382 -0.7316  0.1941  0.6531
   95CHL1    H8 9451   1.924  -0.035   7.364  0.3073  2.7112  0.7624
   95CHL1   C14 9452   1.784  -0.012   7.526  0.2036  0.3244  0.8193
   95CHL1   H14 9453   1.675   0.009   7.531 -0.4585 -2.8635  1.5071
   95CHL1   C15 9454   1.852   0.084   7.625  0.2638  0.0602  0.2243
   95CHL1  H15A 9455   1.959   0.086   7.593  0.6681  0.4635  1.5308
   95CHL1  H15B 9456   1.806   0.185   7.618 -1.7185 -0.8560 -0.7400
   95CHL1   C16 9457   1.843   0.022   7.756 -0.2174 -0.2759 -0.0155
   95CHL1  H16A 9458   1.946   0.003   7.793 -0.8371 -1.8035  1.0201
   95CHL1  H16B 9459   1.784   0.089   7.822 -2.2174 -0.1930 -1.7727
   95CHL1   C17 9460   1.768  -0.117   7.736 -0.0419 -0.5846  0.2672
   95CHL1   H17 9461   1.661  -0.087   7.740 -0.0219 -0.6608  1.7584
   95CHL1   C13 9462   1.800  -0.152   7.589 -0.4729  0.2735  0.1224
   95CHL1   C18 9463   1.942  -0.217   7.576 -0.2342  0.1625  0.4813
   95CHL1  H18A 9464   1.946  -0.314   7.631 -3.0539  0.5416  1.5105
   95CHL1  H18B 9465   1.980  -0.249   7.476  2.4290  1.1651  1.0885
   95CHL1  H18C 9466   2.028  -0.161   7.619  0.2665 -0.7793  0.7467
   95CHL1   C12 9467   1.701  -0.246   7.514 -0.5626 -0.4045 -1.2003
   95CHL1  H12A 9468   1.716  -0.344   7.563  0.9895  1.0561  1.4883
   95CHL1  H12B 9469   1.598  -0.219   7.544  0.2720  0.9964  0.6303
   95CHL1   C11 9470   1.714  -0.227   7.361  0.2257 -0.3200  0.4777
   95CHL1  H11A 9471   1.814  -0.273   7.345  0.3120  0.1927 -0.5511
   95CHL1  H11B 9472   1.624  -0.272   7.315 -0.5923  0.7975  0.9356
   95CHL1    C9 9473   1.715  -0.078   7.310  0.1528 -0.0284 -0.3916
   95CHL1    H9 9474   1.615  -0.039   7.339  0.0411  1.6528 -2.6900
   95CHL1   C10 9475   1.715  -0.063   7.167  0.2926 -0.1256  0.7015
   95CHL1   C19 9476   1.819  -0.162   7.113  0.3788 -0.5049  0.2329
   95CHL1  H19A 9477   1.913  -0.144   7.170  0.3678  0.6487 -0.0911
   95CHL1  H19B 9478   1.778  -0.262   7.140 -1.5277  0.0985 -0.3231
   95CHL1  H19C 9479   1.845  -0.155   7.005 -0.0715 -0.1989  0.1422
   95CHL1    C1 9480   1.572  -0.074   7.108 -0.3276  0.4054  0.5703
   95CHL1   H1A 9481   1.537  -0.176   7.134  0.1533  0.3051  0.8441
   95CHL1   H1B 9482   1.495  -0.016   7.163  0.5445 -0.4036  2.7540
   95CHL1    C2 9483   1.554  -0.055   6.948 -0.1443  0.4270 -0.4901
   95CHL1   H2A 9484   1.444  -0.064   6.930 -0.5009 -1.0792  1.9960
   95CHL1   H2B 9485   1.611  -0.129   6.888 -1.3945 -0.0269 -1.1684
   95CHL1   C20 9486   1.792  -0.218   7.847 -0.0985  0.0041 -0.0485
   95CHL1   H20 9487   1.877  -0.285   7.820 -0.4738 -0.9943  1.1342
   95CHL1   C21 9488   1.663  -0.307   7.851  0.8266 -0.0155  0.5077
   95CHL1  H21A 9489   1.668  -0.380   7.935 -0.4919 -0.2902  0.3590
   95CHL1  H21B 9490   1.654  -0.357   7.753  0.6748 -0.0965  0.5634
   95CHL1  H21C 9491   1.579  -0.237   7.873 -0.2724 -0.3557 -2.1948
   95CHL1   C22 9492   1.817  -0.153   7.988  0.1045  0.4391  0.7437
   95CHL1  H22A 9493   1.899  -0.080   7.978  1.2388 -1.0284 -1.7341
   95CHL1  H22B 9494   1.719  -0.117   8.026  0.2791  1.6223  0.1284
   95CHL1   C23 9495   1.866  -0.260   8.090  0.1940  0.5524  0.2262
   95CHL1  H23A 9496   1.791  -0.342   8.100  0.4183  0.2647 -0.3927
   95CHL1  H23B 9497   1.961  -0.310   8.063  1.4040  0.9788  3.3458
   95CHL1   C24 9498   1.896  -0.189   8.226 -0.2032  0.0417 -0.3579
   95CHL1  H24A 9499   1.984  -0.126   8.199  0.3398 -0.6385 -0.2075
   95CHL1  H24B 9500   1.807  -0.128   8.255  0.6349  1.1125  0.0631
   95CHL1   C25 9501   1.931  -0.286   8.339  0.0314 -0.2964  0.5296
   95CHL1   H25 9502   1.986  -0.367   8.285  1.4439  1.0085 -0.0730
   95CHL1   C26 9503   2.028  -0.234   8.441  0.5962 -0.6071 -0.1768
   95CHL1  H26A 9504   2.124  -0.213   8.389  0.1319  2.2706 -0.0649
   95CHL1  H26B 9505   1.997  -0.136   8.484  1.9807  0.4622 -1.5058
   95CHL1  H26C 9506   2.038  -0.310   8.521 -1.0560 -0.8939 -0.1988
   95CHL1   C27 9507   1.796  -0.342   8.398 -0.3894 -0.1872  0.0998
   95CHL1  H27A 9508   1.824  -0.409   8.482  0.4472  0.6940  0.5366
   95CHL1  H27B 9509   1.736  -0.260   8.445  1.6424  0.0866  2.4068
   95CHL1  H27C 9510   1.745  -0.400   8.318 -2.5813  1.7222 -0.0075
   96CHL1    C3 9511   1.116   2.617   7.121 -0.0605 -0.6331  0.7109
   96CHL1    H3 9512   1.008   2.636   7.136 -0.7609 -1.9461 -2.0325
   96CHL1    O3 9513   1.133   2.622   6.980 -0.7057  0.3790 -1.0935
   96CHL1   H3' 9514   1.204   2.559   6.965  1.1250  1.8892  0.7478
   96CHL1    C4 9515   1.200   2.732   7.185  0.0349  0.1700  0.1910
   96CHL1   H4A 9516   1.308   2.706   7.177  0.0791 -0.0831  1.4493
   96CHL1   H4B 9517   1.169   2.829   7.141 -3.6866 -0.8610  0.1489
   96CHL1    C5 9518   1.183   2.715   7.333  0.5801 -0.2947 -0.9168
   96CHL1    C6 9519   1.150   2.824   7.410  0.1984  0.1894 -0.7646
   96CHL1    H6 9520   1.126   2.922   7.366 -1.0381  1.3126  2.1943
   96CHL1    C7 9521   1.145   2.833   7.560  0.4753  0.2283 -0.2039
   96CHL1   H7A 9522   1.224   2.909   7.580  0.3717  0.3831 -0.3834
   96CHL1   H7B 9523   1.043   2.861   7.593  0.5302 -1.3629  1.4889
   96CHL1    C8 9524   1.195   2.705   7.631  0.1175  0.0545 -0.3563
   96CHL1    H8 9525   1.305   2.720   7.632  0.1475 -0.0065 -1.4771
   96CHL1   C14 9526   1.136   2.688   7.773  0.3071 -1.0046  0.0826
   96CHL1   H14 9527   1.026   2.682   7.757  0.2159  1.0554 -0.3262
   96CHL1   C15 9528   1.144   2.807   7.871 -0.3282 -0.5360  0.5229
   96CHL1  H15A 9529   1.246   2.850   7.866 -0.0911 -1.2346 -1.2882
   96CHL1  H15B 9530   1.066   2.886   7.862 -0.5281 -0.9013 -1.2655
   96CHL1   C16 9531   1.121   2.738   8.009 -0.3680 -0.1581 -0.6586
   96CHL1  H16A 9532   1.214   2.742   8.070 -0.8262 -2.2733  0.2683
   96CHL1  H16B 9533   1.029   2.776   8.058 -0.5561 -0.9925 -0.3405
   96CHL1   C17 9534   1.100   2.589   7.980 -0.1241 -0.3455  0.3095
   96CHL1   H17 9535   0.994   2.571   7.954 -0.3391  1.2162 -0.0214
   96CHL1   C13 9536   1.171   2.559   7.854  0.9435  0.4063  0.8197
   96CHL1   C18 9537   1.325   2.542   7.877 -0.6401 -0.1746 -0.6502
   96CHL1  H18A 9538   1.391   2.535   7.789  1.6804  1.4260  0.8427
   96CHL1  H18B 9539   1.368   2.628   7.933  0.6700  1.0835 -3.3900
   96CHL1  H18C 9540   1.345   2.448   7.933  0.7753 -0.0488 -0.9094
   96CHL1   C12 9541   1.127   2.441   7.771  0.1903  0.3248  0.0985
   96CHL1  H12A 9542   1.174   2.349   7.812 -2.8845 -1.2729  0.2471
   96CHL1  H12B 9543   1.018   2.426   7.756 -0.0226  1.8822 -0.0480
   96CHL1   C11 9544   1.177   2.450   7.625 -0.3902  0.1645  0.1605
   96CHL1  H11A 9545   1.285   2.422   7.632 -0.1215  0.8859 -0.9220
   96CHL1  H11B 9546   1.135   2.370   7.560  1.6389 -1.1020  0.2892
   96CHL1    C9 9547   1.158   2.579   7.551  0.5095 -0.0472 -0.1884
   96CHL1    H9 9548   1.048   2.584   7.539  0.6961 -0.1480 -2.4448
   96CHL1   C10 9549   1.215   2.580   7.401  0.1776 -0.8646  0.3332
   96CHL1   C19 9550   1.362   2.551   7.409 -0.0435 -0.1116  0.6230
   96CHL1  H19A 9551   1.408   2.618   7.485 -1.5120  0.4156  1.0824
   96CHL1  H19B 9552   1.383   2.445   7.435  0.2439 -0.4997 -1.1024
   96CHL1  H19C 9553   1.400   2.568   7.306 -1.6582  0.1198  0.0435
   96CHL1    C1 9554   1.145   2.475   7.317 -0.2455 -0.0770  0.6911
   96CHL1   H1A 9555   1.191   2.376   7.339  2.9094  0.8273 -1.1267
   96CHL1   H1B 9556   1.038   2.480   7.344 -1.0605  4.2409 -2.3909
   96CHL1    C2 9557   1.149   2.484   7.171 -0.3399  0.2615  0.3219
   96CHL1   H2A 9558   1.081   2.410   7.126 -0.2056 -1.0689  2.1916
   96CHL1   H2B 9559   1.248   2.457   7.128 -2.0334 -1.9992 -2.4341
   96CHL1   C20 9560   1.117   2.502   8.097 -0.4771  0.8951  0.0858
   96CHL1   H20 9561   1.225   2.486   8.120 -0.4825  0.7132 -0.0103
   96CHL1   C21 9562   1.076   2.350   8.076  0.0435 -0.0620 -0.5866
   96CHL1  H21A 9563   0.979   2.349   8.021  0.4416  3.8702 -1.7042
   96CHL1  H21B 9564   1.069   2.299   8.174 -0.0682  3.6231  1.5008
   96CHL1  H21C 9565   1.156   2.304   8.014 -0.0608 -0.4858 -0.4056
   96CHL1   C22 9566   1.087   2.566   8.232  0.5850 -1.2929  0.9440
   96CHL1  H22A 9567   1.140   2.502   8.306  0.6772 -2.3032  0.0345
   96CHL1  H22B 9568   1.138   2.664   8.244 -1.1393 -0.3385  0.9335
   96CHL1   C23 9569   0.934   2.588   8.264  0.1783 -0.6723  1.0999
   96CHL1  H23A 9570   0.890   2.655   8.187  2.9255  1.3832  1.1829
   96CHL1  H23B 9571   0.892   2.485   8.268  1.3802 -1.1959  0.5714
   96CHL1   C24 9572   0.908   2.648   8.404 -0.2456  0.3233  0.1287
   96CHL1  H24A 9573   0.943   2.569   8.474 -1.4563 -0.5591 -0.2322
   96CHL1  H24B 9574   0.975   2.736   8.418  0.4884 -0.1268 -0.4650
   96CHL1   C25 9575   0.758   2.681   8.416  0.1858 -0.6578 -0.5945
   96CHL1   H25 9576   0.701   2.606   8.357  2.2096 -2.3056 -0.5669
   96CHL1   C26 9577   0.699   2.657   8.559 -0.1757  0.1122  0.2542
   96CHL1  H26A 9578   0.735   2.561   8.600  1.4861  0.8632  0.6542
   96CHL1  H26B 9579   0.720   2.746   8.623 -0.3970  0.4811 -0.1771
   96CHL1  H26C 9580   0.588   2.661   8.559 -0.2165 -0.5096  1.9216
   96CHL1   C27 9581   0.724   2.820   8.364 -0.2001  0.3587 -0.5214
   96CHL1  H27A 9582   0.753   2.832   8.257  0.7441  4.4614  0.0316
   96CHL1  H27B 9583   0.618   2.849   8.380 -0.5690 -0.1822 -1.8476
   96CHL1  H27C 9584   0.792   2.889   8.418  0.3790  1.7038 -2.8355
   97OSM      N 9585   4.588   4.098  11.472  0.1878 -0.1889  0.4204
   97OSM    C15 9586   4.567   4.003  11.580 -0.3415 -0.6548  0.0916
   97OSM   H15A 9587   4.640   4.018  11.659 -1.8730 -3.3023  2.1490
   97OSM   H15B 9588   4.580   3.903  11.542 -1.8902 -0.5772 -0.7088
   97OSM   H15C 9589   4.472   4.007  11.630 -0.1893 -0.6526  0.3847
   97OSM    C14 9590   4.453   4.117  11.411  0.2931 -0.0140 -0.4483
   97OSM   H14A 9591   4.385   4.140  11.491 -0.2278  0.1514 -0.9388
   97OSM   H14B 9592   4.428   4.017  11.378  2.2352 -1.1160  1.1611
   97OSM   H14C 9593   4.462   4.186  11.328 -1.4668  4.9026  3.0285
   97OSM    C13 9594   4.627   4.238  11.518 -0.5507  0.5284  0.3002
   97OSM   H13A 9595   4.621   4.305  11.434  0.4936  0.5200  0.2084
   97OSM   H13B 9596   4.719   4.228  11.574 -1.3643  1.0788  1.7754
   97OSM   H13C 9597   4.555   4.271  11.591 -2.2329  3.8072 -2.5689
   97OSM    C12 9598   4.686   4.049  11.368 -0.4875 -0.2522 -0.2583
   97OSM   H12A 9599   4.782   4.025  11.413 -0.5611 -1.1562 -0.5713
   97OSM   H12B 9600   4.712   4.124  11.295  1.0408 -1.0794 -0.6016
   97OSM    C11 9601   4.641   3.922  11.296  0.6217  0.2471 -0.4917
   97OSM   H11A 9602   4.696   3.902  11.202 -0.1766 -0.1313 -0.8960
   97OSM   H11B 9603   4.539   3.933  11.252  1.0862  0.0669 -1.6586
   97OSM      P 9604   4.782   3.740  11.422  0.5158  0.2370  0.0175
   97OSM    O13 9605   4.875   3.839  11.480 -0.2065  0.8693 -0.2083
   97OSM    O14 9606   4.761   3.615  11.499 -0.1310 -0.1249  0.6392
   97OSM    O11 9607   4.847   3.690  11.288  0.6479 -0.6496  0.1484
   97OSM    O12 9608   4.642   3.807  11.386  0.1820 -0.4170  0.2050
   97OSM    C1S 9609   4.783   3.607  11.194  0.3869  0.0408 -0.3352
   97OSM    H1S 9610   4.673   3.599  11.206  0.5783 -0.5744  1.2740
   97OSM    H1T 9611   4.822   3.503  11.203  1.0411  0.3875  1.1091
   97OSM     NF 9612   4.730   3.578  10.952 -0.2596 -0.3560 -0.4419
   97OSM    HNF 9613   4.784   3.529  10.884  2.9642  1.5298  0.5586
   97OSM    C2S 9614   4.807   3.657  11.044 -0.3106 -0.1948  0.1408
   97OSM    H2S 9615   4.776   3.763  11.038 -0.2188 -0.0833  1.4127
   97OSM    C3S 9616   4.958   3.650  11.015 -0.6530  0.6456 -0.2286
   97OSM    H3S 9617   4.987   3.543  11.023 -1.4283  0.1672 -2.8138
   97OSM     O3 9618   5.037   3.715  11.113 -0.6075 -0.2183  0.2738
   97OSM    HO3 9619   4.968   3.731  11.179 -1.2206  0.3982 -0.4974
   97OSM    C4S 9620   5.002   3.702  10.873 -0.0099  0.5670  0.5566
   97OSM    H4S 9621   4.997   3.630  10.790 -1.0414  1.4324 -0.1588
   97OSM    C5S 9622   5.035   3.831  10.839  0.5472  0.5233  0.3775
   97OSM    H5S 9623   5.030   3.903  10.922 -0.2743 -0.8652  1.5930
   97OSM    C6S 9624   5.079   3.874  10.701  0.0417 -0.3360 -0.4109
   97OSM    H6S 9625   5.190   3.868  10.700  0.1031  0.6056 -0.3309
   97OSM    H6T 9626   5.056   3.982  10.689 -0.3332 -0.6037 -2.6056
   97OSM    C7S 9627   5.028   3.792  10.583  0.7580 -0.2044  0.2766
   97OSM    H7S 9628   4.924   3.828  10.568  0.5851 -1.1420 -0.9069
   97OSM    H7T 9629   5.036   3.683  10.599  0.7999 -0.0095  1.7523
   97OSM    C8S 9630   5.115   3.827  10.465 -0.7355  0.1327 -0.0932
   97OSM    H8S 9631   5.225   3.817  10.478 -0.5011  2.6480  0.4091
   97OSM    H8T 9632   5.092   3.935  10.446 -0.6273  0.8333  3.1405
   97OSM    C9S 9633   5.061   3.755  10.341 -0.8320  0.4173 -0.2792
   97OSM    H9S 9634   4.958   3.786  10.314 -0.3998  2.2609  0.0499
   97OSM    H9T 9635   5.037   3.648  10.359 -1.5661  0.3256 -1.6596
   97OSM   C10S 9636   5.151   3.783  10.216  0.1991  0.8271  0.1577
   97OSM   H10S 9637   5.259   3.768  10.237  1.0894  2.5713 -2.7275
   97OSM   H10T 9638   5.144   3.892  10.194  1.2044  0.3808 -2.7015
   97OSM   C11S 9639   5.097   3.719  10.089  0.0750 -0.4166  0.1708
   97OSM   H11S 9640   4.990   3.740  10.069 -0.1705 -1.2884  0.5469
   97OSM   H11T 9641   5.105   3.613  10.119 -1.0156 -0.1150  1.6339
   97OSM   C12S 9642   5.182   3.754   9.966 -0.9386  0.5136  0.5896
   97OSM   H12S 9643   5.289   3.744   9.993 -0.2253 -0.9054 -2.3883
   97OSM   H12T 9644   5.162   3.860   9.939  0.4086  1.4277  2.8769
   97OSM   C13S 9645   5.148   3.662   9.849 -0.1147 -0.6220 -0.0981
   97OSM   H13S 9646   5.039   3.640   9.853 -0.4605  1.0989  0.5094
   97OSM   H13T 9647   5.213   3.572   9.848  0.8244  0.0098 -2.3878
   97OSM   C14S 9648   5.180   3.727   9.711 -0.0289  0.4081 -0.0973
   97OSM   H14S 9649   5.290   3.739   9.699 -0.0692 -0.1962 -1.1845
   97OSM   H14T 9650   5.140   3.830   9.718  0.4472  0.6557 -0.8788
   97OSM   C15S 9651   5.118   3.644   9.599  0.3852  0.5642  0.3482
   97OSM   H15S 9652   5.010   3.643   9.626  0.0895  2.1464 -0.6534
   97OSM   H15T 9653   5.164   3.544   9.587  1.9582  1.2750  0.2491
   97OSM   C16S 9654   5.141   3.720   9.470  0.4497  0.3266  0.6753
   97OSM   H16S 9655   5.101   3.822   9.488 -1.2698 -0.2001  0.0700
   97OSM   H16T 9656   5.084   3.672   9.387  2.8229 -0.7816 -0.4406
   97OSM   C17S 9657   5.280   3.710   9.407  0.3057  0.2276  0.6554
   97OSM   H17S 9658   5.299   3.617   9.348  0.8563  0.0711  1.0660
   97OSM   H17T 9659   5.363   3.724   9.480  0.2395 -1.0153  1.0015
   97OSM   C18S 9660   5.275   3.828   9.301 -0.4342  0.3605 -0.7931
   97OSM   H18S 9661   5.189   3.816   9.231  0.1850 -0.3138 -1.4420
   97OSM   H18T 9662   5.372   3.827   9.247 -0.6716 -0.7787 -1.2178
   97OSM   H18U 9663   5.259   3.921   9.361 -2.8530  0.0918 -0.9020
   97OSM    C1F 9664   4.597   3.560  10.954  0.3395  0.0588 -0.1458
   97OSM     OF 9665   4.526   3.639  11.016  0.4952  0.9241  0.0734
   97OSM    C2F 9666   4.551   3.441  10.884  0.0867  0.6475  0.2876
   97OSM    H2F 9667   4.591   3.356  10.945  0.9398  1.8495  1.4502
   97OSM    H2G 9668   4.592   3.431  10.782  1.4301 -1.3421  0.9490
   97OSM    C3F 9669   4.396   3.431  10.878  0.3640  0.7521 -0.0302
   97OSM    H3F 9670   4.340   3.426  10.974 -0.6268 -0.5078 -0.6394
   97OSM    H3G 9671   4.378   3.323  10.856  2.9007  0.3866 -0.5346
   97OSM    C4F 9672   4.318   3.523  10.779 -0.2217  0.1185  0.2764
   97OSM    H4F 9673   4.341   3.630  10.793  1.1196 -0.0772 -0.1772
   97OSM    H4G 9674   4.208   3.509  10.784 -0.2547 -0.6007 -1.5951
   97OSM    C5F 9675   4.360   3.480  10.626  0.3236 -0.0244 -0.5328
   97OSM    H5F 9676   4.336   3.373  10.610  1.8905 -0.7367  1.4716
   97OSM    H5G 9677   4.469   3.481  10.609  0.7223 -1.4655  1.5767
   97OSM    C6F 9678   4.288   3.562  10.521 -0.2188  0.1882  0.5220
   97OSM    H6F 9679   4.327   3.666  10.513 -0.2525  0.0225 -3.1375
   97OSM    H6G 9680   4.182   3.580  10.549 -0.1219  0.6185  0.6217
   97OSM    C7F 9681   4.298   3.491  10.386  0.5752  0.2974  0.1896
   97OSM    H7F 9682   4.242   3.395  10.384 -0.0141  0.6435 -0.6497
   97OSM    H7G 9683   4.406   3.467  10.381  0.2249 -1.1997 -1.0080
   97OSM    C8F 9684   4.251   3.573  10.268 -0.3270 -0.2155 -0.1253
   97OSM    H8F 9685   4.251   3.518  10.172 -3.9477  0.9163 -0.9404
   97OSM    H8G 9686   4.318   3.661  10.263  1.2722 -1.3759  0.1781
   97OSM    C9F 9687   4.104   3.622  10.276 -0.2147 -0.1742 -0.3446
   97OSM    H9F 9688   4.038   3.593  10.358  1.0138 -0.1942  0.6684
   97OSM   C10F 9689   4.050   3.700  10.177 -0.0262 -1.1211  0.0967
   97OSM   H10F 9690   3.947   3.737  10.189  0.2119 -0.3192 -0.2450
   97OSM   C11F 9691   4.126   3.759  10.054  0.5896 -0.5341  0.1523
   97OSM   H11F 9692   4.237   3.754  10.065  1.0753  2.1230 -2.3896
   97OSM   H11G 9693   4.116   3.870  10.052  0.8295 -0.4996  0.6628
   97OSM   C12F 9694   4.091   3.696   9.919  0.2906  0.3933 -0.3864
   97OSM   H12F 9695   3.982   3.707   9.900 -0.0687 -1.6622  0.2302
   97OSM   H12G 9696   4.108   3.586   9.925 -0.6171  0.3358  3.1654
   97OSM   C13F 9697   4.152   3.766   9.799 -0.0183 -0.1560  0.0511
   97OSM   H13F 9698   4.257   3.794   9.825  0.7123  0.3923 -3.1538
   97OSM   H13G 9699   4.110   3.866   9.778  0.8375  0.6239  1.7941
   97OSM   C14F 9700   4.163   3.689   9.667 -0.1397  0.1576 -0.0720
   97OSM   H14F 9701   4.069   3.641   9.630  0.5790  0.1379 -1.9735
   97OSM   H14G 9702   4.218   3.598   9.701  0.7974  1.8256  3.3885
   97OSM   C15F 9703   4.233   3.755   9.549  0.1459 -0.3752 -0.1485
   97OSM   H15F 9704   4.322   3.814   9.582  0.2265 -0.7725  0.3472
   97OSM   H15G 9705   4.170   3.833   9.502  0.2243  1.3090  2.3592
   97OSM   C16F 9706   4.289   3.653   9.456  0.1112 -0.3708  0.5979
   97OSM   H16F 9707   4.211   3.580   9.425  2.3051 -2.2458 -0.8382
   97OSM   H16G 9708   4.369   3.590   9.503  3.1230  1.2948 -1.9134
   97OSM   C17F 9709   4.345   3.716   9.324 -0.0211 -0.8588  0.8326
   97OSM   H17F 9710   4.427   3.773   9.371 -2.3319  1.4473  2.3579
   97OSM   H17G 9711   4.275   3.787   9.276  1.8873  1.9308  1.9524
   97OSM   C18F 9712   4.421   3.628   9.223  0.5830 -0.1374  0.3561
   97OSM   H18F 9713   4.370   3.550   9.163 -0.3422  1.3392 -0.8499
   97OSM   H18G 9714   4.508   3.579   9.271  1.5885  1.2396  0.0015
   97OSM   H18H 9715   4.485   3.684   9.152  2.0805  0.5513  2.1473
   98OSM      N 9716   4.248   2.408  11.352 -0.0047  0.4086  0.0940
   98OSM    C15 9717   4.234   2.340  11.222  0.2959 -0.6157  0.1603
   98OSM   H15A 9718   4.252   2.234  11.229  0.5368 -0.6090 -0.3139
   98OSM   H15B 9719   4.299   2.378  11.144  0.3999  0.7087  0.8707
   98OSM   H15C 9720   4.135   2.367  11.189  0.8290  1.0207 -0.1808
   98OSM    C14 9721   4.131   2.375  11.436 -0.8541 -0.3346  0.0720
   98OSM   H14A 9722   4.122   2.268  11.449 -0.0159 -0.4613 -0.3621
   98OSM   H14B 9723   4.052   2.412  11.372 -0.7718  0.0202  0.1726
   98OSM   H14C 9724   4.128   2.427  11.531 -0.9888  2.6700 -1.4743
   98OSM    C13 9725   4.369   2.364  11.416 -0.7931  0.2369  0.3712
   98OSM   H13A 9726   4.375   2.257  11.431  1.5896  0.2099 -0.3927
   98OSM   H13B 9727   4.388   2.408  11.513  2.3284  1.8141 -0.8118
   98OSM   H13C 9728   4.456   2.394  11.360 -2.1608  0.8711 -1.4861
   98OSM    C12 9729   4.249   2.561  11.326 -0.2353  0.3789 -0.1552
   98OSM   H12A 9730   4.155   2.605  11.298 -0.3017  1.1604  1.2335
   98OSM   H12B 9731   4.317   2.581  11.244  0.7634  0.3997  0.6609
   98OSM    C11 9732   4.306   2.643  11.443  0.1659 -0.2452 -0.5571
   98OSM   H11A 9733   4.253   2.626  11.540  1.1463 -1.7207 -0.2436
   98OSM   H11B 9734   4.269   2.747  11.429 -0.2529  0.3801  3.6372
   98OSM      P 9735   4.552   2.703  11.359 -0.2434 -0.1966 -0.1575
   98OSM    O13 9736   4.571   2.848  11.401  0.6569 -0.1346  0.5665
   98OSM    O14 9737   4.673   2.618  11.351  0.6456  0.2751  0.0252
   98OSM    O11 9738   4.483   2.714  11.218 -0.0587  0.1486 -0.1511
   98OSM    O12 9739   4.449   2.633  11.467  0.5540  0.2154  0.3086
   98OSM    C1S 9740   4.549   2.686  11.099  0.5217 -0.1465 -0.6828
   98OSM    H1S 9741   4.567   2.577  11.094 -0.1710 -0.5684  3.2246
   98OSM    H1T 9742   4.650   2.734  11.103 -0.0481  1.0227  2.5322
   98OSM     NF 9743   4.551   2.710  10.841  0.1901 -0.1702  0.0051
   98OSM    HNF 9744   4.592   2.790  10.798 -0.2122  0.0598  0.0454
   98OSM    C2S 9745   4.486   2.745  10.968  0.8526  0.1904  0.0183
   98OSM    H2S 9746   4.385   2.698  10.965  0.9837 -0.5994  3.7987
   98OSM    C3S 9747   4.461   2.897  10.986  0.2737 -0.1606 -0.0171
   98OSM    H3S 9748   4.554   2.953  11.009 -0.8721  3.1364 -2.7430
   98OSM     O3 9749   4.381   2.925  11.101  0.4640 -0.1418 -0.3106
   98OSM    HO3 9750   4.355   2.842  11.142  1.8057 -0.4927 -0.1131
   98OSM    C4S 9751   4.398   2.948  10.867 -0.7094  0.0133  0.8496
   98OSM    H4S 9752   4.288   2.951  10.868 -0.7576 -1.2851  2.3959
   98OSM    C5S 9753   4.465   3.017  10.765  0.5056  1.0233  0.5768
   98OSM    H5S 9754   4.570   3.044  10.787  0.8989 -0.8969  1.2178
   98OSM    C6S 9755   4.412   3.076  10.636  0.2524 -0.4236 -0.3637
   98OSM    H6S 9756   4.397   3.185  10.650 -0.7906 -0.5422 -0.4687
   98OSM    H6T 9757   4.305   3.051  10.621  0.1176 -0.2745  0.3330
   98OSM    C7S 9758   4.491   3.039  10.511  0.0297 -0.4427  0.8817
   98OSM    H7S 9759   4.495   2.928  10.501  0.3320 -0.3701  0.1739
   98OSM    H7T 9760   4.597   3.073  10.512  0.1940 -0.5615 -2.4916
   98OSM    C8S 9761   4.424   3.108  10.390  0.1950  0.2057 -0.9395
   98OSM    H8S 9762   4.436   3.218  10.388  1.0104  0.1243 -1.0952
   98OSM    H8T 9763   4.315   3.089  10.388  0.2375 -0.0197 -2.5032
   98OSM    C9S 9764   4.485   3.064  10.261 -0.3146  0.1653 -0.1528
   98OSM    H9S 9765   4.453   2.958  10.260  0.9142 -0.2407  0.6313
   98OSM    H9T 9766   4.595   3.078  10.260 -0.3180  0.3216  0.5861
   98OSM   C10S 9767   4.417   3.125  10.134 -0.0223 -0.1146 -0.5046
   98OSM   H10S 9768   4.444   3.233  10.126  2.1918 -0.7137 -1.9423
   98OSM   H10T 9769   4.306   3.124  10.141 -0.1458  0.5519 -2.0096
   98OSM   C11S 9770   4.468   3.059  10.004 -0.7884  0.2578  0.3947
   98OSM   H11S 9771   4.456   2.948  10.012  0.0514  0.0874 -0.4685
   98OSM   H11T 9772   4.579   3.060   9.997 -0.8282 -1.5467 -1.7847
   98OSM   C12S 9773   4.404   3.128   9.879  0.7756 -0.3890 -0.1858
   98OSM   H12S 9774   4.403   3.238   9.895 -1.0352 -0.1311 -1.6336
   98OSM   H12T 9775   4.296   3.101   9.884  0.8381 -0.4343  1.1857
   98OSM   C13S 9776   4.457   3.086   9.748 -0.2075 -0.3307  0.3974
   98OSM   H13S 9777   4.446   2.976   9.741 -0.1915 -0.2893 -0.4387
   98OSM   H13T 9778   4.564   3.116   9.745 -0.5795  1.0388  0.2693
   98OSM   C14S 9779   4.392   3.126   9.613  0.9121 -0.3914 -1.3113
   98OSM   H14S 9780   4.352   3.230   9.623  0.7536 -0.4178 -1.6439
   98OSM   H14T 9781   4.306   3.058   9.596  1.1441 -0.4206 -2.4665
   98OSM   C15S 9782   4.491   3.139   9.504  0.2796  0.7886  0.1341
   98OSM   H15S 9783   4.540   3.042   9.483 -1.1896  0.4205 -1.8317
   98OSM   H15T 9784   4.565   3.219   9.528 -1.7595  2.8509 -0.0576
   98OSM   C16S 9785   4.427   3.181   9.369 -0.0087 -0.0066 -0.9669
   98OSM   H16S 9786   4.364   3.271   9.387  1.4972  1.1175 -1.1083
   98OSM   H16T 9787   4.361   3.104   9.325 -0.5023  0.8145 -1.6888
   98OSM   C17S 9788   4.536   3.234   9.272  0.0970  0.1212  0.4059
   98OSM   H17S 9789   4.580   3.321   9.326  1.8155 -0.9188  0.7810
   98OSM   H17T 9790   4.478   3.266   9.183 -1.3292 -0.0611  1.2352
   98OSM   C18S 9791   4.654   3.144   9.239 -0.3308 -0.1622 -0.7806
   98OSM   H18S 9792   4.738   3.209   9.208  0.9771 -2.1742 -1.7003
   98OSM   H18T 9793   4.633   3.066   9.162  2.3060 -2.1334  0.3340
   98OSM   H18U 9794   4.701   3.087   9.322 -1.1848 -1.7093 -1.2952
   98OSM    C1F 9795   4.532   2.594  10.776 -0.4847 -0.8027  0.0110
   98OSM     OF 9796   4.464   2.505  10.828 -0.0614 -0.3112  0.0652
   98OSM    C2F 9797   4.590   2.601  10.641  0.4654 -0.2216  0.2762
   98OSM    H2F 9798   4.699   2.575  10.641  0.8091  0.8104 -2.9695
   98OSM    H2G 9799   4.586   2.707  10.608  0.0036  0.4329  2.2694
   98OSM    C3F 9800   4.521   2.516  10.532  0.4120  0.1577  0.1243
   98OSM    H3F 9801   4.412   2.536  10.525  0.4129 -0.2257 -1.1373
   98OSM    H3G 9802   4.535   2.407  10.549 -2.4947 -0.3103 -0.0515
   98OSM    C4F 9803   4.571   2.536  10.389 -0.0856 -0.2250 -0.0947
   98OSM    H4F 9804   4.670   2.490  10.371  0.5843  1.3092 -0.4635
   98OSM    H4G 9805   4.579   2.646  10.375  1.6523  0.2749  3.4892
   98OSM    C5F 9806   4.496   2.466  10.280  0.3461  0.5314 -0.0529
   98OSM    H5F 9807   4.387   2.487  10.285 -0.4341 -2.7730 -0.4842
   98OSM    H5G 9808   4.504   2.359  10.307 -2.0286  0.5335  0.8899
   98OSM    C6F 9809   4.538   2.491  10.134 -0.2083  0.1885 -0.4839
   98OSM    H6F 9810   4.649   2.484  10.129 -0.0656 -0.1771  2.0635
   98OSM    H6G 9811   4.509   2.597  10.115 -0.3330  0.2706  0.1593
   98OSM    C7F 9812   4.465   2.416  10.020  0.0406  0.3982  0.4362
   98OSM    H7F 9813   4.356   2.422  10.039 -0.2500 -2.2515  0.0058
   98OSM    H7G 9814   4.496   2.309  10.028  2.1482  0.9911  0.9248
   98OSM    C8F 9815   4.509   2.456   9.879  0.1447  0.3732  0.2174
   98OSM    H8F 9816   4.618   2.435   9.875 -0.2095 -1.7413  0.8633
   98OSM    H8G 9817   4.501   2.566   9.863  0.1483  0.3131 -0.1846
   98OSM    C9F 9818   4.431   2.377   9.778  0.1215 -0.2855 -0.3744
   98OSM    H9F 9819   4.327   2.350   9.804  1.0748 -3.2040  0.8000
   98OSM   C10F 9820   4.476   2.325   9.662 -0.6903 -0.0764 -0.6379
   98OSM   H10F 9821   4.419   2.256   9.599  1.3150 -1.1294 -1.3821
   98OSM   C11F 9822   4.615   2.354   9.617  0.1233  0.6585  0.2809
   98OSM   H11F 9823   4.687   2.296   9.678 -0.3250  0.6550  0.8212
   98OSM   H11G 9824   4.655   2.456   9.634  0.4978  0.6200 -0.3665
   98OSM   C12F 9825   4.640   2.319   9.474  0.0808 -0.5103  0.3790
   98OSM   H12F 9826   4.561   2.363   9.410 -0.2714 -1.4866  0.1160
   98OSM   H12G 9827   4.628   2.208   9.475  0.0978 -0.5112  0.8714
   98OSM   C13F 9828   4.780   2.362   9.427  0.3592  0.6865  0.4621
   98OSM   H13F 9829   4.852   2.335   9.507  0.0528  1.8139  1.1423
   98OSM   H13G 9830   4.781   2.473   9.422  3.2906  0.7390 -0.0369
   98OSM   C14F 9831   4.810   2.302   9.289 -0.6242 -0.3783  0.1286
   98OSM   H14F 9832   4.761   2.369   9.216 -1.3286 -0.9648  0.0490
   98OSM   H14G 9833   4.770   2.199   9.277  1.0580 -1.2575  1.6051
   98OSM   C15F 9834   4.961   2.292   9.242 -0.5394  0.4717 -0.6945
   98OSM   H15F 9835   5.016   2.222   9.309  0.5228  1.4815 -0.4879
   98OSM   H15G 9836   5.017   2.384   9.269  0.1685 -0.2401  0.3780
   98OSM   C16F 9837   4.987   2.260   9.090  0.2067  0.5445  0.7145
   98OSM   H16F 9838   4.952   2.349   9.032  1.7269 -1.3879 -3.5825
   98OSM   H16G 9839   4.926   2.177   9.049 -1.0897  1.7833  0.0390
   98OSM   C17F 9840   5.134   2.254   9.065  0.3916 -0.3342 -0.1419
   98OSM   H17F 9841   5.174   2.178   9.136  2.5838 -0.7151 -1.6914
   98OSM   H17G 9842   5.179   2.349   9.101  0.1664  0.8837 -2.8313
   98OSM   C18F 9843   5.178   2.211   8.925 -0.1729  0.8029 -0.0685
   98OSM   H18F 9844   5.287   2.218   8.904  0.0769 -0.0254  0.8726
   98OSM   H18G 9845   5.134   2.291   8.862  0.5300  0.0089 -1.6393
   98OSM   H18H 9846   5.136   2.111   8.902  0.7157  0.2133  0.8059
   99OSM      N 9847   6.537   4.014  10.847  0.0232 -0.4914 -0.3590
   99OSM    C15 9848   6.536   4.160  10.826 -0.8423 -0.6558 -0.2193
   99OSM   H15A 9849   6.630   4.201  10.791 -1.2286  1.5459  1.1074
   99OSM   H15B 9850   6.521   4.227  10.910  0.2327 -0.4641 -0.1644
   99OSM   H15C 9851   6.453   4.177  10.760  0.3345 -1.8730 -2.0910
   99OSM    C14 9852   6.394   3.969  10.858 -0.1706  0.5977 -0.2901
   99OSM   H14A 9853   6.340   4.019  10.937 -0.7491  2.1527 -1.6131
   99OSM   H14B 9854   6.386   3.863  10.875  0.5475  0.7204  0.8946
   99OSM   H14C 9855   6.333   3.989  10.771  0.7551  0.9278 -0.8857
   99OSM    C13 9856   6.605   3.961  10.720  0.4789  0.2094  0.2080
   99OSM   H13A 9857   6.685   4.031  10.701 -1.0547  1.6562 -1.3072
   99OSM   H13B 9858   6.532   3.970  10.641 -0.2960 -1.0440  0.7592
   99OSM   H13C 9859   6.640   3.860  10.737 -1.5802 -0.3845  1.2685
   99OSM    C12 9860   6.617   3.976  10.971  0.2242  0.5733  0.3255
   99OSM   H12A 9861   6.578   4.016  11.064 -1.4522  1.0647 -0.5645
   99OSM   H12B 9862   6.714   4.024  10.969  0.0464  0.9424  0.5193
   99OSM    C11 9863   6.648   3.817  10.986  0.2180 -0.4617  0.2350
   99OSM   H11A 9864   6.553   3.764  10.962  1.2127 -1.4477 -1.8497
   99OSM   H11B 9865   6.673   3.785  11.089 -1.2368  1.4220  1.2411
   99OSM      P 9866   6.906   3.793  10.948 -0.0666  0.3343  0.6261
   99OSM    O13 9867   6.935   3.932  10.974 -0.0306  0.3213 -0.3550
   99OSM    O14 9868   6.929   3.700  11.060  0.3408 -0.5309  0.5292
   99OSM    O11 9869   6.992   3.751  10.819  0.5724  0.5333 -0.3565
   99OSM    O12 9870   6.753   3.782  10.897  0.4074 -0.2244  0.0213
   99OSM    C1S 9871   6.924   3.709  10.699 -0.4776 -0.0664 -0.6424
   99OSM    H1S 9872   6.878   3.795  10.646 -1.1870 -0.3509 -0.5077
   99OSM    H1T 9873   6.838   3.640  10.717  0.3966 -0.8617  0.6646
   99OSM     NF 9874   6.923   3.575  10.499 -0.6036  0.1202  0.7448
   99OSM    HNF 9875   6.904   3.477  10.505  0.0648  0.0356  1.7057
   99OSM    C2S 9876   7.010   3.622  10.603 -0.6953 -0.1511  0.1114
   99OSM    H2S 9877   7.084   3.691  10.556 -0.9193  1.6678  2.2438
   99OSM    C3S 9878   7.083   3.507  10.681  1.1552 -0.0726  0.4074
   99OSM    H3S 9879   7.010   3.443  10.735 -0.7195  2.4879  1.1033
   99OSM     O3 9880   7.174   3.553  10.776  0.1470 -0.2647 -0.5159
   99OSM    HO3 9881   7.136   3.639  10.795 -2.0279 -0.9947 -1.2662
   99OSM    C4S 9882   7.157   3.417  10.580 -0.5692 -0.2442 -0.3729
   99OSM    H4S 9883   7.091   3.343  10.531  1.1998 -1.9373 -0.3290
   99OSM    C5S 9884   7.283   3.406  10.551  0.2426 -0.5211 -0.1164
   99OSM    H5S 9885   7.352   3.472  10.605 -0.5232  1.2994 -1.2632
   99OSM    C6S 9886   7.339   3.306  10.452  0.0361 -0.7236  0.8985
   99OSM    H6S 9887   7.328   3.199  10.479  0.6962 -1.0383 -0.0561
   99OSM    H6T 9888   7.448   3.324  10.440 -0.3088 -0.2187 -2.3681
   99OSM    C7S 9889   7.274   3.326  10.311 -0.6024  0.4873  0.3210
   99OSM    H7S 9890   7.269   3.435  10.292 -2.8911  0.5112  0.7786
   99OSM    H7T 9891   7.179   3.269  10.316  0.2591 -0.8979  1.8001
   99OSM    C8S 9892   7.366   3.251  10.207  0.3025 -0.6539 -0.3474
   99OSM    H8S 9893   7.353   3.143  10.228 -0.9069 -0.2599  1.0893
   99OSM    H8T 9894   7.474   3.268  10.227  0.2616  0.2048 -0.7902
   99OSM    C9S 9895   7.338   3.304  10.063  0.7798 -0.2572  0.3152
   99OSM    H9S 9896   7.334   3.415  10.063 -0.8991 -0.2915  1.1964
   99OSM    H9T 9897   7.241   3.266  10.024 -0.1826 -0.0758  2.4172
   99OSM   C10S 9898   7.449   3.265   9.963 -1.1345 -0.4896 -0.6432
   99OSM   H10S 9899   7.447   3.155   9.946 -0.6491 -0.6096  0.0663
   99OSM   H10T 9900   7.549   3.291  10.003 -1.8975  0.7501  0.5728
   99OSM   C11S 9901   7.432   3.340   9.825 -0.7095  0.6364 -0.1739
   99OSM   H11S 9902   7.447   3.449   9.842  0.9966  0.5489 -0.9593
   99OSM   H11T 9903   7.328   3.316   9.794 -0.3415 -1.0394 -0.1941
   99OSM   C12S 9904   7.544   3.313   9.719  0.6273  0.2867  0.3949
   99OSM   H12S 9905   7.629   3.368   9.765 -1.7872  2.9209  2.0915
   99OSM   H12T 9906   7.567   3.206   9.704 -1.2195 -0.0960  0.0988
   99OSM   C13S 9907   7.490   3.370   9.594  0.3827 -0.0117  1.0443
   99OSM   H13S 9908   7.456   3.474   9.617 -0.0593  0.0447  0.1556
   99OSM   H13T 9909   7.397   3.322   9.558  2.1045 -2.0607 -1.0308
   99OSM   C14S 9910   7.597   3.374   9.486 -0.5036 -0.1923 -0.6053
   99OSM   H14S 9911   7.631   3.273   9.455  2.0168  1.0852 -2.3619
   99OSM   H14T 9912   7.683   3.432   9.526  0.5374 -0.4725 -2.3604
   99OSM   C15S 9913   7.552   3.441   9.356 -0.3953 -0.9529 -0.0045
   99OSM   H15S 9914   7.536   3.551   9.363  0.7340 -0.5754 -2.4490
   99OSM   H15T 9915   7.455   3.404   9.317 -1.0035  0.5279  0.0172
   99OSM   C16S 9916   7.654   3.417   9.241 -0.0690  0.1078  0.3430
   99OSM   H16S 9917   7.682   3.310   9.252  1.0810  0.4256  0.5826
   99OSM   H16T 9918   7.744   3.473   9.272  2.0615 -0.3649 -4.1641
   99OSM   C17S 9919   7.603   3.467   9.104 -0.0982 -0.1174  0.3451
   99OSM   H17S 9920   7.563   3.570   9.118  0.3192 -0.0356  0.9786
   99OSM   H17T 9921   7.523   3.394   9.082 -0.6962  0.7734 -0.5030
   99OSM   C18S 9922   7.716   3.453   8.999  0.7946 -0.1182 -0.9667
   99OSM   H18S 9923   7.754   3.348   9.004  0.9318  0.0043  1.1308
   99OSM   H18T 9924   7.806   3.507   9.034  0.2971  1.7249 -2.4083
   99OSM   H18U 9925   7.684   3.469   8.894 -0.3895 -0.8506 -0.7345
   99OSM    C1F 9926   6.867   3.657  10.405 -0.5319  0.7756  1.0508
   99OSM     OF 9927   6.878   3.774  10.410  0.3574  0.3172 -0.0590
   99OSM    C2F 9928   6.799   3.592  10.283  0.3475 -0.0563 -0.0036
   99OSM    H2F 9929   6.730   3.515  10.322 -0.5965  0.9694  0.4054
   99OSM    H2G 9930   6.881   3.536  10.233 -0.3170 -0.1246 -1.0400
   99OSM    C3F 9931   6.745   3.693  10.190  0.0562  0.0067 -0.4289
   99OSM    H3F 9932   6.685   3.776  10.233 -2.9672 -1.8667 -0.7850
   99OSM    H3G 9933   6.826   3.742  10.132  1.2876 -0.7275  0.6181
   99OSM    C4F 9934   6.671   3.609  10.084  0.3532 -0.5215  0.4573
   99OSM    H4F 9935   6.583   3.561  10.132 -0.9615  0.8597 -0.4823
   99OSM    H4G 9936   6.740   3.533  10.041 -1.7819 -0.4227 -3.6232
   99OSM    C5F 9937   6.612   3.685   9.969 -0.4200 -0.1006  0.1773
   99OSM    H5F 9938   6.681   3.765   9.935 -0.6034  1.3225  2.8908
   99OSM    H5G 9939   6.525   3.743  10.005  0.0528 -0.1127  1.3842
   99OSM    C6F 9940   6.596   3.610   9.832 -0.8663 -0.4348 -0.6662
   99OSM    H6F 9941   6.694   3.566   9.806  1.5004  3.0381  1.4500
   99OSM    H6G 9942   6.578   3.687   9.754 -1.2027  1.2001  0.9453
   99OSM    C7F 9943   6.478   3.512   9.824  0.0273 -0.7132 -0.0942
   99OSM    H7F 9944   6.488   3.434   9.903 -0.2764 -2.0112 -1.2991
   99OSM    H7G 9945   6.489   3.457   9.728  1.2793 -0.6265 -0.0067
   99OSM    C8F 9946   6.345   3.588   9.838 -0.5934 -0.5142  0.3388
   99OSM    H8F 9947   6.332   3.666   9.760 -0.5620 -1.1297 -0.2839
   99OSM    H8G 9948   6.354   3.628   9.941 -0.7299 -2.0002  0.9429
   99OSM    C9F 9949   6.235   3.487   9.822  0.7818  0.2281  0.3954
   99OSM    H9F 9950   6.202   3.450   9.920  1.4288  0.2378  0.6224
   99OSM   C10F 9951   6.158   3.455   9.713 -0.1480  0.1609 -0.0560
   99OSM   H10F 9952   6.074   3.385   9.727  0.2034 -0.0107  1.3592
   99OSM   C11F 9953   6.183   3.522   9.576 -0.2529  0.1951 -0.1853
   99OSM   H11F 9954   6.199   3.439   9.503 -0.7593  2.0390 -2.5274
   99OSM   H11G 9955   6.266   3.596   9.575 -0.9718  1.0584 -2.1458
   99OSM   C12F 9956   6.059   3.610   9.520 -0.4404  0.1790  0.4520
   99OSM   H12F 9957   5.974   3.546   9.549 -0.4178  0.5428  1.3467
   99OSM   H12G 9958   6.070   3.630   9.411  0.8872  0.3909  0.6056
   99OSM   C13F 9959   6.035   3.742   9.591 -0.5351  0.4885 -0.0888
   99OSM   H13F 9960   6.051   3.728   9.700 -0.4050  2.9231  0.2716
   99OSM   H13G 9961   5.930   3.773   9.571 -0.7541 -0.8147 -1.0873
   99OSM   C14F 9962   6.120   3.858   9.529 -0.1092 -0.1800  0.2729
   99OSM   H14F 9963   6.089   3.877   9.424 -0.6583  0.0300  0.4717
   99OSM   H14G 9964   6.230   3.841   9.530 -0.0008  0.4666  0.6427
   99OSM   C15F 9965   6.110   3.975   9.622 -0.5400 -0.2487  0.6305
   99OSM   H15F 9966   6.144   3.943   9.723  0.4476  0.7544  0.6277
   99OSM   H15G 9967   6.006   4.013   9.628 -0.8103 -1.1175  2.1971
   99OSM   C16F 9968   6.205   4.091   9.588  0.1529 -0.4526  0.6355
   99OSM   H16F 9969   6.311   4.057   9.589 -0.0930 -1.2772 -0.5493
   99OSM   H16G 9970   6.202   4.157   9.678 -0.1708  1.0914 -0.4804
   99OSM   C17F 9971   6.164   4.162   9.461  0.2934  0.2832 -0.1502
   99OSM   H17F 9972   6.055   4.183   9.465  0.5002  1.3676  0.1856
   99OSM   H17G 9973   6.173   4.095   9.372  0.5256 -0.4617  0.4269
   99OSM   C18F 9974   6.249   4.289   9.438  0.1860  0.0861  0.8979
   99OSM   H18F 9975   6.358   4.276   9.450  0.0356 -1.4866  0.7756
   99OSM   H18G 9976   6.234   4.371   9.510  3.6957 -0.1375  2.0646
   99OSM   H18H 9977   6.237   4.337   9.338  1.1257  1.6903  1.5248
  100OSM      N 9978   6.499   6.680  10.951  0.1440 -0.2074  0.4560
  100OSM    C15 9979   6.387   6.747  10.884 -0.1405 -0.1672 -0.0103
  100OSM   H15A 9980   6.295   6.741  10.940 -0.5675 -2.1827 -0.8408
  100OSM   H15B 9981   6.367   6.706  10.786 -3.4999 -0.6302  0.7729
  100OSM   H15C 9982   6.408   6.850  10.860 -1.0247  0.0328  0.0493
  100OSM    C14 9983   6.468   6.534  10.960  0.3252  0.1395  0.6441
  100OSM   H14A 9984   6.378   6.520  11.017 -0.2184 -0.0696 -0.2458
  100OSM   H14B 9985   6.551   6.479  11.003  0.1751 -0.4471  0.1949
  100OSM   H14C 9986   6.453   6.488  10.863 -0.0588 -1.2018  1.3207
  100OSM    C13 9987   6.628   6.696  10.872 -0.7501  0.6105  0.1892
  100OSM   H13A 9988   6.619   6.632  10.785 -2.0187 -0.0642  0.7971
  100OSM   H13B 9989   6.708   6.658  10.935  0.2307  1.3421 -0.5760
  100OSM   H13C 9990   6.652   6.801  10.868 -0.8869  0.6833  1.2227
  100OSM    C12 9991   6.525   6.747  11.091  0.2341  0.1730  1.0048
  100OSM   H12A 9992   6.426   6.770  11.127 -0.0638 -0.7552  0.8005
  100OSM   H12B 9993   6.553   6.847  11.062  0.1767 -0.5124 -1.7216
  100OSM    C11 9994   6.625   6.700  11.197  0.1111 -0.0350 -0.2586
  100OSM   H11A 9995   6.576   6.614  11.249  0.0146 -0.7680 -1.5173
  100OSM   H11B 9996   6.644   6.780  11.271 -2.0861  0.2954 -0.0069
  100OSM      P 9997   6.798   6.506  11.134 -0.4152  0.0218  0.2807
  100OSM    O13 9998   6.908   6.496  11.235  0.2276 -0.0284 -0.2982
  100OSM    O14 9999   6.682   6.409  11.145 -0.2067 -0.6304 -0.0704
  100OSM    O1110000   6.874   6.504  10.993  0.1419  0.2386 -0.8854
  100OSM    O1210001   6.743   6.655  11.128 -0.3885  0.4498  0.4569
  100OSM    C1S10002   6.834   6.425  10.880  0.1234  0.2688 -0.3754
  100OSM    H1S10003   6.748   6.469  10.825 -1.4667 -1.0374  0.9559
  100OSM    H1T10004   6.817   6.319  10.908 -0.0051 -0.0147 -1.5084
  100OSM     NF10005   6.919   6.331  10.666  0.0763 -0.5805  0.4111
  100OSM    HNF10006   6.947   6.235  10.660  1.0924 -0.4173  1.8959
  100OSM    C2S10007   6.958   6.408  10.786  0.1413  0.1808 -0.4066
  100OSM    H2S10008   6.994   6.506  10.750  3.2548 -0.5295  0.4851
  100OSM    C3S10009   7.077   6.345  10.870 -0.0250  0.3348 -0.5006
  100OSM    H3S10010   7.050   6.250  10.920  3.3283 -0.4857  0.0354
  100OSM     O310011   7.125   6.432  10.969 -0.4486  0.1658  0.2346
  100OSM    HO310012   7.051   6.489  10.992 -1.9770 -1.3186 -0.7472
  100OSM    C4S10013   7.181   6.321  10.773 -0.3073 -0.0410 -0.2315
  100OSM    H4S10014   7.193   6.411  10.711 -1.3252  1.9867  2.3081
  100OSM    C5S10015   7.244   6.207  10.746 -0.0612  0.2441  0.9154
  100OSM    H5S10016   7.232   6.121  10.813 -1.0179  0.5137  1.0997
  100OSM    C6S10017   7.356   6.192  10.643 -0.1856 -0.6201  0.2412
  100OSM    H6S10018   7.373   6.082  10.637 -2.3611 -1.0934  1.7244
  100OSM    H6T10019   7.455   6.232  10.675 -0.0967 -1.8726  1.7028
  100OSM    C7S10020   7.316   6.245  10.502 -0.4523 -0.3356 -0.1576
  100OSM    H7S10021   7.414   6.246  10.448  0.4828  1.5627  1.4504
  100OSM    H7T10022   7.292   6.354  10.494 -1.3288 -0.6274 -2.6689
  100OSM    C8S10023   7.204   6.165  10.439 -0.1823 -0.0805  0.2114
  100OSM    H8S10024   7.113   6.150  10.501 -1.0548 -1.4394 -1.3329
  100OSM    H8T10025   7.240   6.060  10.434 -0.5263 -0.1451 -1.4941
  100OSM    C9S10026   7.159   6.208  10.297 -0.1028 -0.2631 -0.1185
  100OSM    H9S10027   7.105   6.305  10.300 -1.2210 -0.8716  2.7042
  100OSM    H9T10028   7.089   6.130  10.260 -1.0015  0.0564  0.8606
  100OSM   C10S10029   7.272   6.216  10.198 -0.7382 -0.1382  0.2151
  100OSM   H10S10030   7.330   6.122  10.202 -0.6488 -0.0544  1.3239
  100OSM   H10T10031   7.334   6.305  10.225 -2.4188  0.8077  1.1565
  100OSM   C11S10032   7.219   6.229  10.056  0.2977  0.1487 -0.1687
  100OSM   H11S10033   7.138   6.303  10.047 -1.4216 -1.7089 -0.8085
  100OSM   H11T10034   7.165   6.134  10.035 -1.1007  0.7209  0.7549
  100OSM   C12S10035   7.324   6.237   9.935  0.0141  0.2145  0.1274
  100OSM   H12S10036   7.396   6.153   9.953 -2.8058 -2.2279  0.7538
  100OSM   H12T10037   7.375   6.335   9.949 -1.0788  1.2453 -2.5651
  100OSM   C13S10038   7.255   6.223   9.800  0.4305  0.1802  0.7952
  100OSM   H13S10039   7.183   6.307   9.796  0.0895 -0.1125  0.6688
  100OSM   H13T10040   7.197   6.129   9.786 -0.3968  1.0385 -2.2497
  100OSM   C14S10041   7.347   6.249   9.676 -0.4703  0.4749 -0.3285
  100OSM   H14S10042   7.426   6.171   9.683  0.0134  1.0642  1.4619
  100OSM   H14T10043   7.404   6.342   9.694  0.4098 -0.5734  3.1627
  100OSM   C15S10044   7.264   6.230   9.554 -0.0680 -0.5359  0.2964
  100OSM   H15S10045   7.163   6.274   9.570  0.1948  0.6970 -1.2183
  100OSM   H15T10046   7.257   6.121   9.531  1.5855 -0.8454  1.0362
  100OSM   C16S10047   7.321   6.304   9.428  0.4387  0.0551 -0.5191
  100OSM   H16S10048   7.432   6.305   9.421  0.4341  0.8794 -0.5447
  100OSM   H16T10049   7.282   6.407   9.434 -0.9834 -0.3959 -1.4877
  100OSM   C17S10050   7.266   6.243   9.296  0.8355 -0.3358 -0.0952
  100OSM   H17S10051   7.287   6.134   9.295  0.7922 -0.3577  0.5279
  100OSM   H17T10052   7.305   6.305   9.213 -0.2047  0.6481  0.1226
  100OSM   C18S10053   7.114   6.255   9.283 -0.4665  0.0934 -0.5020
  100OSM   H18S10054   7.083   6.212   9.185 -0.4815 -2.7641  0.6726
  100OSM   H18T10055   7.070   6.357   9.277 -0.8208  0.0183  0.6994
  100OSM   H18U10056   7.059   6.208   9.367 -2.6110 -0.0272 -1.8915
  100OSM    C1F10057   6.839   6.386  10.570  0.2639 -0.1738 -0.9239
  100OSM     OF10058   6.786   6.495  10.590 -0.0759  0.2119  0.2541
  100OSM    C2F10059   6.823   6.307  10.443  0.0309  0.0971 -1.4297
  100OSM    H2F10060   6.732   6.243  10.442  0.7086 -0.8877 -2.5708
  100OSM    H2G10061   6.908   6.236  10.434  0.3108  0.3244 -0.6854
  100OSM    C3F10062   6.822   6.391  10.311  0.5248 -0.3694  0.1716
  100OSM    H3F10063   6.906   6.463  10.317  0.8250 -0.8109  1.8759
  100OSM    H3G10064   6.728   6.450  10.308  0.3118 -0.7080  0.1357
  100OSM    C4F10065   6.827   6.315  10.178  0.7897 -1.2828  0.2704
  100OSM    H4F10066   6.728   6.265  10.183  0.4338 -0.4694  2.4044
  100OSM    H4G10067   6.906   6.237  10.176  2.4263  0.3232 -0.3815
  100OSM    C5F10068   6.843   6.409  10.058 -0.1586 -1.0365 -0.4157
  100OSM    H5F10069   6.947   6.445  10.073 -0.5751  0.0333  0.0247
  100OSM    H5G10070   6.776   6.498  10.066 -0.6665 -1.1723 -2.5221
  100OSM    C6F10071   6.831   6.343   9.924  0.1482 -0.1797  0.1671
  100OSM    H6F10072   6.735   6.287   9.927 -0.3350  0.6645  0.9755
  100OSM    H6G10073   6.910   6.265   9.918 -1.1469 -1.4792 -0.7703
  100OSM    C7F10074   6.858   6.440   9.808  0.3262 -0.3385 -0.0661
  100OSM    H7F10075   6.956   6.492   9.814  0.2596 -0.1787 -0.3661
  100OSM    H7G10076   6.780   6.519   9.804  1.2920  0.6644  0.2671
  100OSM    C8F10077   6.850   6.361   9.670  0.3499  0.2103  0.6428
  100OSM    H8F10078   6.744   6.334   9.653  0.8009 -0.9072 -0.6479
  100OSM    H8G10079   6.907   6.268   9.690  0.7672  0.2085 -0.4479
  100OSM    C9F10080   6.922   6.438   9.560 -0.1214  0.0329  0.2250
  100OSM    H9F10081   7.021   6.471   9.597  0.8261 -2.7615  0.4276
  100OSM   C10F10082   6.872   6.473   9.439  0.1015 -0.0169  0.2480
  100OSM   H10F10083   6.935   6.511   9.358 -1.4391  0.3938 -0.7833
  100OSM   C11F10084   6.729   6.438   9.410  0.8012  0.1793 -0.4510
  100OSM   H11F10085   6.659   6.521   9.432  0.2319 -0.3101 -0.3911
  100OSM   H11G10086   6.699   6.344   9.462 -2.4858  0.8654 -0.9074
  100OSM   C12F10087   6.705   6.406   9.260  0.4303 -0.2166  0.3639
  100OSM   H12F10088   6.785   6.337   9.228 -0.9886 -2.0452  0.5989
  100OSM   H12G10089   6.717   6.496   9.195  2.7217 -1.2409 -0.7442
  100OSM   C13F10090   6.569   6.351   9.223 -0.1057  0.1678 -0.1113
  100OSM   H13F10091   6.483   6.408   9.265  1.3093  1.4728  1.1147
  100OSM   H13G10092   6.545   6.255   9.274 -0.7492 -0.5757 -1.7488
  100OSM   C14F10093   6.555   6.328   9.072  1.4134  0.1394  0.5697
  100OSM   H14F10094   6.459   6.273   9.066  1.5763 -0.1640  0.7356
  100OSM   H14G10095   6.638   6.267   9.029  0.1499  0.5261 -2.6468
  100OSM   C15F10096   6.532   6.455   8.985  0.7817  0.2556  0.1408
  100OSM   H15F10097   6.629   6.508   8.995  0.6434  0.4218  0.5942
  100OSM   H15G10098   6.456   6.531   9.011  1.5586  0.8864  0.5916
  100OSM   C16F10099   6.517   6.399   8.838  0.8753 -0.1747 -0.2047
  100OSM   H16F10100   6.416   6.353   8.829 -0.0383  1.6704  0.2014
  100OSM   H16G10101   6.584   6.310   8.828 -0.6932 -1.5035  0.5855
  100OSM   C17F10102   6.526   6.507   8.729  0.6167  0.3416  0.7803
  100OSM   H17F10103   6.492   6.449   8.641  0.5953 -0.5080  1.3338
  100OSM   H17G10104   6.628   6.533   8.692  0.4356 -1.1728 -0.9131
  100OSM   C18F10105   6.436   6.634   8.744  0.6138  0.7340  0.4766
  100OSM   H18F10106   6.417   6.689   8.649  1.4867 -0.9839 -0.7484
  100OSM   H18G10107   6.462   6.703   8.827 -1.7140  1.2989  0.8222
  100OSM   H18H10108   6.336   6.599   8.777  2.1124 -2.0637  2.4747
  101OSM      N10109   4.270   4.618  11.190  0.2742 -0.5503  0.1884
  101OSM    C1510110   4.263   4.642  11.042  0.1217  0.3091 -0.6087
  101OSM   H15A10111   4.173   4.700  11.027  0.8036  1.4249 -0.3961
  101OSM   H15B10112   4.258   4.554  10.978 -0.7310  0.5661 -0.9104
  101OSM   H15C10113   4.344   4.702  11.003  0.2835 -0.1729 -1.0348
  101OSM    C1410114   4.256   4.747  11.263 -0.2773 -0.2340 -0.5917
  101OSM   H14A10115   4.333   4.812  11.226  1.2818 -1.6442  0.0536
  101OSM   H14B10116   4.284   4.742  11.367 -0.2343  0.0207 -0.5911
  101OSM   H14C10117   4.161   4.796  11.247 -0.0601 -0.1729 -1.7408
  101OSM    C1310118   4.149   4.530  11.216 -0.5559 -0.4096 -0.2171
  101OSM   H13A10119   4.127   4.512  11.320 -2.0446 -0.3931 -0.5054
  101OSM   H13B10120   4.171   4.433  11.175  0.4429 -0.3639  0.1819
  101OSM   H13C10121   4.058   4.567  11.172  0.6863  2.8575 -0.3009
  101OSM    C1210122   4.402   4.553  11.233  0.2417 -0.5672 -0.0536
  101OSM   H12A10123   4.404   4.560  11.341  1.6533 -0.7241 -0.0407
  101OSM   H12B10124   4.486   4.613  11.201  0.6555  1.2652  3.8487
  101OSM    C1110125   4.426   4.408  11.191  0.2936 -0.2521  0.1003
  101OSM   H11A10126   4.402   4.396  11.084 -1.6495  0.7325  0.3754
  101OSM   H11B10127   4.357   4.346  11.252 -0.1009  0.3798  0.3086
  101OSM      P10128   4.671   4.364  11.120 -0.1662 -0.3197 -0.1948
  101OSM    O1310129   4.721   4.499  11.069 -0.4753  0.6555 -0.6174
  101OSM    O1410130   4.770   4.263  11.168  0.5342 -0.1752 -0.0782
  101OSM    O1110131   4.602   4.292  10.999  0.5912 -0.3216  0.6183
  101OSM    O1210132   4.566   4.379  11.225  0.1491 -0.0720 -0.3477
  101OSM    C1S10133   4.546   4.164  11.020  0.3619 -0.4947 -0.3026
  101OSM    H1S10134   4.442   4.175  11.059  0.1566  1.7063 -1.2985
  101OSM    H1T10135   4.613   4.100  11.080 -0.4885  0.0971  1.3474
  101OSM     NF10136   4.444   3.965  10.906 -0.2502 -0.2417 -0.3071
  101OSM    HNF10137   4.484   3.874  10.900  0.1224 -0.0155 -1.5118
  101OSM    C2S10138   4.534   4.083  10.883 -0.3798  0.2281 -0.4845
  101OSM    H2S10139   4.484   4.155  10.815  1.6902  0.2522 -2.0892
  101OSM    C3S10140   4.671   4.042  10.816 -0.1571 -0.0389  0.6705
  101OSM    H3S10141   4.721   3.968  10.883 -0.7449 -0.0414  1.1144
  101OSM     O310142   4.758   4.156  10.789  0.6625  0.9779  0.1372
  101OSM    HO310143   4.747   4.207  10.869 -0.3264 -0.5214  1.0128
  101OSM    C4S10144   4.639   3.973  10.689  0.1430 -0.5796 -0.3139
  101OSM    H4S10145   4.605   4.043  10.611 -0.5671 -0.9348 -0.3243
  101OSM    C5S10146   4.649   3.840  10.666  0.1993  0.2373  0.3087
  101OSM    H5S10147   4.690   3.775  10.744  1.3374 -0.3253 -0.7163
  101OSM    C6S10148   4.607   3.773  10.537 -0.3937  0.5069  0.1495
  101OSM    H6S10149   4.515   3.713  10.553  0.4656 -0.2799  2.4064
  101OSM    H6T10150   4.689   3.698  10.533 -3.8190 -3.7047  1.2156
  101OSM    C7S10151   4.594   3.856  10.412 -0.4450 -0.1741 -0.0954
  101OSM    H7S10152   4.674   3.933  10.406 -2.0650  1.6168  0.5835
  101OSM    H7T10153   4.497   3.908  10.419 -0.7006 -0.5995 -0.4000
  101OSM    C8S10154   4.598   3.770  10.292  0.1148 -0.0755 -0.2761
  101OSM    H8S10155   4.518   3.693  10.283 -0.2841  0.2397  0.4928
  101OSM    H8T10156   4.695   3.716  10.294  0.3525  0.3556  1.6963
  101OSM    C9S10157   4.581   3.855  10.161 -0.4360 -0.1816 -0.4667
  101OSM    H9S10158   4.651   3.942  10.161  3.3535 -2.9416 -0.5624
  101OSM    H9T10159   4.478   3.894  10.152 -1.6734 -3.1595 -0.2424
  101OSM   C10S10160   4.613   3.766  10.043 -0.0413  0.2181  0.6679
  101OSM   H10S10161   4.554   3.672  10.047 -0.0730  0.1556 -0.7237
  101OSM   H10T10162   4.722   3.750  10.052  0.1625  0.8339 -0.5025
  101OSM   C11S10163   4.600   3.839   9.905 -0.0616  0.0127 -0.4417
  101OSM   H11S10164   4.670   3.925   9.914 -1.4327  1.1508 -0.4780
  101OSM   H11T10165   4.494   3.870   9.894 -0.6415 -1.8781 -0.5035
  101OSM   C12S10166   4.644   3.761   9.774  0.0184  0.2442  0.2425
  101OSM   H12S10167   4.585   3.668   9.762 -0.0291  0.3818 -0.6693
  101OSM   H12T10168   4.749   3.728   9.789 -0.0898  0.3878  1.3856
  101OSM   C13S10169   4.644   3.847   9.647  0.0186  0.7188 -0.5217
  101OSM   H13S10170   4.686   3.947   9.671 -0.1101 -0.2126  4.6514
  101OSM   H13T10171   4.539   3.866   9.616 -0.4176  0.6796  0.8537
  101OSM   C14S10172   4.722   3.788   9.529 -0.2195 -0.5359  0.1807
  101OSM   H14S10173   4.686   3.685   9.509  0.2100 -0.4332 -1.1885
  101OSM   H14T10174   4.829   3.772   9.553 -0.0460  0.4126  0.0844
  101OSM   C15S10175   4.721   3.886   9.411  0.3761 -0.5706  0.0357
  101OSM   H15S10176   4.752   3.988   9.444  0.2115 -0.3023 -0.6111
  101OSM   H15T10177   4.618   3.881   9.371 -0.3856 -1.3112  1.9945
  101OSM   C16S10178   4.813   3.829   9.310 -0.6775  0.1036 -0.0191
  101OSM   H16S10179   4.779   3.725   9.294  0.2300  0.0205 -1.6037
  101OSM   H16T10180   4.916   3.823   9.353 -0.4590 -1.7158 -0.7416
  101OSM   C17S10181   4.812   3.904   9.179  0.2110  0.1635  0.4455
  101OSM   H17S10182   4.708   3.898   9.142 -0.0510 -2.3719  1.3458
  101OSM   H17T10183   4.876   3.840   9.114 -1.2479 -0.4768 -0.4016
  101OSM   C18S10184   4.868   4.050   9.175  0.0001  1.1984  0.0816
  101OSM   H18S10185   4.979   4.051   9.178  0.0693 -0.9840 -0.0791
  101OSM   H18T10186   4.820   4.099   9.262 -2.5276 -0.3314 -0.3606
  101OSM   H18U10187   4.839   4.092   9.076  0.0877  1.1676  0.0422
  101OSM    C1F10188   4.311   3.993  10.916 -0.2869  0.0335  0.6316
  101OSM     OF10189   4.260   4.103  10.902  0.3740  0.0356  0.0117
  101OSM    C2F10190   4.227   3.876  10.933 -0.4583 -0.1457  0.0704
  101OSM    H2F10191   4.170   3.874  11.029  0.3538 -2.5462  0.5772
  101OSM    H2G10192   4.289   3.784  10.935 -1.2887 -0.7345 -0.3580
  101OSM    C3F10193   4.114   3.878  10.827 -1.0190 -0.3091  0.0225
  101OSM    H3F10194   4.069   3.979  10.827  3.0523  1.7262 -0.1412
  101OSM    H3G10195   4.036   3.804  10.854 -2.4248  1.1990  0.2929
  101OSM    C4F10196   4.161   3.867  10.678  0.3431  0.7191  0.4490
  101OSM    H4F10197   4.218   3.772  10.670  1.3307  1.3452 -0.1401
  101OSM    H4G10198   4.235   3.948  10.658  1.1534  0.0994  0.8907
  101OSM    C5F10199   4.039   3.868  10.583  1.6253  0.4574 -0.2746
  101OSM    H5F10200   3.985   3.775  10.610  2.1946  0.3144  0.3970
  101OSM    H5G10201   4.076   3.869  10.479 -0.6024  1.1854 -1.1257
  101OSM    C6F10202   3.940   3.977  10.609 -0.8358  0.1621 -0.1383
  101OSM    H6F10203   3.896   3.962  10.710 -2.0225 -0.5007 -0.7338
  101OSM    H6G10204   3.994   4.072  10.588 -0.4634  0.1733  0.8153
  101OSM    C7F10205   3.808   3.960  10.528 -0.1261 -0.1346  0.3021
  101OSM    H7F10206   3.734   4.027  10.577 -0.1725 -0.8180  1.1995
  101OSM    H7G10207   3.755   3.863  10.533 -1.0486  0.3888  1.1040
  101OSM    C8F10208   3.835   3.990  10.382 -0.0244  0.4867  0.3578
  101OSM    H8F10209   3.890   3.899  10.350 -1.9660 -1.3546  1.9635
  101OSM    H8G10210   3.894   4.083  10.372  0.5511  0.0188 -0.7862
  101OSM    C9F10211   3.702   3.990  10.312  0.4066  0.3847  0.1261
  101OSM    H9F10212   3.635   3.907  10.341  0.4950 -0.0637 -0.9178
  101OSM   C10F10213   3.664   4.088  10.226 -0.2495 -0.6775 -0.0238
  101OSM   H10F10214   3.562   4.094  10.186  0.1330  0.4261 -0.9181
  101OSM   C11F10215   3.742   4.215  10.190 -0.3332 -0.9569 -0.1679
  101OSM   H11F10216   3.842   4.219  10.239 -0.1978 -0.7808 -0.4527
  101OSM   H11G10217   3.685   4.306  10.217  0.4485 -0.3261 -0.5751
  101OSM   C12F10218   3.774   4.221  10.041  0.2013  0.1604  0.2939
  101OSM   H12F10219   3.846   4.138  10.026 -0.5102 -0.6324  1.1941
  101OSM   H12G10220   3.834   4.314  10.028 -0.1290  0.1068 -2.0862
  101OSM   C13F10221   3.655   4.216   9.948  0.9647 -0.3680 -0.0322
  101OSM   H13F10222   3.575   4.290   9.972  0.8661  0.6005 -2.9394
  101OSM   H13G10223   3.592   4.127   9.968 -2.3928  2.2951  2.4088
  101OSM   C14F10224   3.696   4.218   9.799 -0.1753  0.1574 -0.1294
  101OSM   H14F10225   3.763   4.305   9.785 -0.6365  1.1475  3.0372
  101OSM   H14G10226   3.607   4.234   9.735 -0.2256 -0.3839 -0.1989
  101OSM   C15F10227   3.777   4.096   9.741  0.0099 -0.0725  0.7854
  101OSM   H15F10228   3.702   4.019   9.714 -0.3117  0.0579  1.3103
  101OSM   H15G10229   3.843   4.062   9.823  0.0655 -0.7399  0.4707
  101OSM   C16F10230   3.855   4.144   9.614 -0.7396 -0.3343 -0.1083
  101OSM   H16F10231   3.937   4.205   9.657  0.4806 -1.9036 -0.1173
  101OSM   H16G10232   3.785   4.196   9.545 -0.3256  0.9073  0.3869
  101OSM   C17F10233   3.915   4.032   9.526 -1.0714 -0.6809  0.0999
  101OSM   H17F10234   3.835   3.980   9.469 -1.7045 -0.1967  0.5301
  101OSM   H17G10235   3.972   3.959   9.586 -0.1240  0.3476  0.4958
  101OSM   C18F10236   4.008   4.103   9.422  0.3742  0.0139 -0.0129
  101OSM   H18F10237   4.033   4.024   9.349  0.5659  2.8322 -3.2429
  101OSM   H18G10238   4.099   4.136   9.477  1.1035 -0.2244 -1.0652
  101OSM   H18H10239   3.966   4.191   9.369  1.1438  1.3859  1.5422
  102OSM      N10240   0.529   0.204  11.051  0.0324 -0.1774 -0.1581
  102OSM    C1510241   0.573   0.199  11.191 -0.1395 -0.1509 -0.2649
  102OSM   H15A10242   0.491   0.168  11.254  0.9257 -1.8926  0.3146
  102OSM   H15B10243   0.614   0.295  11.219  1.9908 -1.4852  1.4977
  102OSM   H15C10244   0.644   0.119  11.206  0.0683  0.1836  0.5869
  102OSM    C1410245   0.477   0.068  11.013 -0.3427  0.1461  0.3066
  102OSM   H14A10246   0.396   0.035  11.076  0.3008  0.9885  1.6420
  102OSM   H14B10247   0.562   0.001  11.012 -0.1555  0.3722 -1.4482
  102OSM   H14C10248   0.438   0.077  10.913 -1.6993 -2.7407  0.4643
  102OSM    C1310249   0.418   0.300  11.018 -0.2828  0.4923 -0.6668
  102OSM   H13A10250   0.377   0.276  10.921  1.0727 -1.6439 -0.7773
  102OSM   H13B10251   0.451   0.402  11.029 -2.3135  1.0349  1.0018
  102OSM   H13C10252   0.342   0.285  11.093  1.1878  1.4281  1.0777
  102OSM    C1210253   0.630   0.240  10.950 -0.3121  0.4213  0.0164
  102OSM   H12A10254   0.587   0.270  10.856  0.1093  1.4881  0.1517
  102OSM   H12B10255   0.693   0.153  10.939  0.0693  0.6496  0.3559
  102OSM    C1110256   0.730   0.350  10.994 -0.2267 -0.0006  0.8113
  102OSM   H11A10257   0.822   0.351  10.931  0.3746 -1.0475  1.6331
  102OSM   H11B10258   0.783   0.329  11.089 -2.0034  0.0251  1.8408
  102OSM      P10259   0.648   0.571  10.896 -0.0081  0.0873  0.1407
  102OSM    O1310260   0.538   0.663  10.933  0.4222  0.1931 -0.0405
  102OSM    O1410261   0.781   0.633  10.876  0.7407  0.2558  0.8956
  102OSM    O1110262   0.610   0.475  10.775 -0.4194  0.3019 -0.4552
  102OSM    O1210263   0.674   0.473  11.018  0.3189 -0.6698 -0.0804
  102OSM    C1S10264   0.562   0.517  10.642  0.8381  1.2845 -0.5963
  102OSM    H1S10265   0.552   0.627  10.629  0.9161  1.3287 -0.3054
  102OSM    H1T10266   0.463   0.471  10.621  1.1590  0.4088 -0.2618
  102OSM     NF10267   0.616   0.543  10.400 -0.2017  0.5609 -0.2998
  102OSM    HNF10268   0.567   0.477  10.344 -0.5256  0.6247 -0.0921
  102OSM    C2S10269   0.667   0.489  10.531  0.2059 -0.0301 -0.6350
  102OSM    H2S10270   0.757   0.551  10.550  0.9507 -0.9713 -1.0638
  102OSM    C3S10271   0.709   0.336  10.534  0.0384 -0.0030  0.4248
  102OSM    H3S10272   0.632   0.274  10.484  1.5213 -2.5238  1.0646
  102OSM     O310273   0.732   0.273  10.664 -0.2477 -0.1024  0.4561
  102OSM    HO310274   0.699   0.341  10.724  0.3387  0.2893  0.3442
  102OSM    C4S10275   0.836   0.327  10.451  0.2771 -0.6323 -0.6636
  102OSM    H4S10276   0.909   0.401  10.486  0.3932 -1.1191  0.1312
  102OSM    C5S10277   0.853   0.240  10.352 -0.0997  0.4752 -0.1742
  102OSM    H5S10278   0.770   0.168  10.344 -1.4080  1.7596  1.0164
  102OSM    C6S10279   0.973   0.219  10.253  0.3084  0.9692 -0.0945
  102OSM    H6S10280   0.922   0.237  10.156 -1.3410  0.5660  0.6608
  102OSM    H6T10281   1.011   0.117  10.270  0.1568  0.4782 -2.4300
  102OSM    C7S10282   1.099   0.308  10.257 -0.3630 -0.3814  0.6117
  102OSM    H7S10283   1.173   0.268  10.330  0.2056  0.4418  0.4984
  102OSM    H7T10284   1.064   0.404  10.299  0.8833  0.2520  0.2248
  102OSM    C8S10285   1.170   0.329  10.120 -0.2139  0.6166  0.6271
  102OSM    H8S10286   1.248   0.408  10.129  0.0290  0.5257 -0.6095
  102OSM    H8T10287   1.099   0.375  10.049  2.9658  2.1756 -1.8425
  102OSM    C9S10288   1.226   0.205  10.053  0.1787  0.1641  1.2346
  102OSM    H9S10289   1.143   0.134  10.034 -1.1509  2.4752 -2.8331
  102OSM    H9T10290   1.293   0.151  10.124  3.0186  2.0683  0.1667
  102OSM   C10S10291   1.291   0.231   9.917 -0.0058  0.0770 -0.1142
  102OSM   H10S10292   1.324   0.127   9.898 -3.0584 -1.5395  2.5091
  102OSM   H10T10293   1.379   0.296   9.935  0.1462  0.0125 -0.5876
  102OSM   C11S10294   1.203   0.288   9.806  0.8466 -0.0246  0.0002
  102OSM   H11S10295   1.167   0.391   9.830 -0.6531 -0.5719  0.2303
  102OSM   H11T10296   1.111   0.230   9.782 -0.7116  2.9586 -1.8050
  102OSM   C12S10297   1.265   0.302   9.672 -0.5050 -1.4603  0.4243
  102OSM   H12S10298   1.303   0.203   9.639  3.5808  0.1353 -0.3105
  102OSM   H12T10299   1.357   0.362   9.693 -0.1098 -2.0466  0.3898
  102OSM   C13S10300   1.181   0.381   9.570 -0.6499 -0.3239  0.4990
  102OSM   H13S10301   1.169   0.484   9.611  2.1402 -0.8785  3.1299
  102OSM   H13T10302   1.082   0.334   9.549 -0.2022  0.2627 -3.7219
  102OSM   C14S10303   1.258   0.402   9.438  0.6313 -0.2669  0.4596
  102OSM   H14S10304   1.285   0.298   9.409 -0.7104 -0.7030  0.7149
  102OSM   H14T10305   1.359   0.449   9.434  0.3306  0.3463 -0.0338
  102OSM   C15S10306   1.175   0.456   9.322 -0.0108  0.1497  0.2105
  102OSM   H15S10307   1.147   0.562   9.337  0.3390  0.5252 -1.5629
  102OSM   H15T10308   1.083   0.397   9.302  0.2387 -0.4898  0.9037
  102OSM   C16S10309   1.251   0.459   9.194 -0.4327 -0.3955  0.1417
  102OSM   H16S10310   1.281   0.356   9.166 -1.2548 -0.9491  1.2044
  102OSM   H16T10311   1.344   0.519   9.198 -1.4401  1.1661  1.2366
  102OSM   C17S10312   1.169   0.528   9.076 -0.3717  0.5632  0.1031
  102OSM   H17S10313   1.157   0.637   9.095  3.1850  0.6709  2.8899
  102OSM   H17T10314   1.067   0.484   9.080 -1.1131  1.4948 -4.0614
  102OSM   C18S10315   1.235   0.511   8.940 -0.1447 -0.5730 -0.0917
  102OSM   H18S10316   1.171   0.576   8.877 -0.0166  0.3211  0.6769
  102OSM   H18T10317   1.219   0.406   8.909  2.1135 -1.0538  0.2100
  102OSM   H18U10318   1.342   0.542   8.950 -0.1854  0.1543 -1.6892
  102OSM    C1F10319   0.603   0.665  10.370  0.0257  0.1702  0.2122
  102OSM     OF10320   0.699   0.738  10.396  0.2488 -0.2808 -0.0072
  102OSM    C2F10321   0.477   0.707  10.303  0.6866 -0.2468  0.1452
  102OSM    H2F10322   0.390   0.718  10.372  0.5403  1.7599 -0.3219
  102OSM    H2G10323   0.448   0.633  10.224  0.2443  0.5159 -0.4222
  102OSM    C3F10324   0.490   0.844  10.233  0.4725  1.2067  0.3703
  102OSM    H3F10325   0.569   0.845  10.155  0.5505  2.6131  0.4340
  102OSM    H3G10326   0.533   0.921  10.302  1.7554 -0.3469  1.3725
  102OSM    C4F10327   0.363   0.896  10.165 -0.4687  0.1639 -0.7923
  102OSM    H4F10328   0.272   0.895  10.229  0.2625 -1.4040  0.2955
  102OSM    H4G10329   0.346   0.827  10.080 -0.5755  1.3372 -1.7398
  102OSM    C5F10330   0.374   1.039  10.119 -0.2123 -0.5194 -0.2012
  102OSM    H5F10331   0.393   1.099  10.211 -1.3894  1.6886 -1.2993
  102OSM    H5G10332   0.276   1.081  10.086  0.8479  2.8250  0.4873
  102OSM    C6F10333   0.487   1.071  10.025  0.0340 -0.2697 -0.1076
  102OSM    H6F10334   0.582   1.060  10.082  2.3730 -0.1269 -3.6531
  102OSM    H6G10335   0.481   1.179   9.999  0.5514 -0.5091 -1.2667
  102OSM    C7F10336   0.494   0.999   9.887  0.5937  0.1038  0.0369
  102OSM    H7F10337   0.534   0.897   9.906  2.1998  0.7429  0.2313
  102OSM    H7G10338   0.568   1.059   9.829  1.4932  2.4632  3.3484
  102OSM    C8F10339   0.365   0.996   9.810  0.3719 -0.4055  0.4691
  102OSM    H8F10340   0.283   0.946   9.866  1.3738 -2.4481  0.1976
  102OSM    H8G10341   0.375   0.940   9.714 -0.9169  0.1752 -0.0192
  102OSM    C9F10342   0.309   1.128   9.768 -0.1031 -0.7303  0.4693
  102OSM    H9F10343   0.266   1.182   9.854 -1.4378 -3.9731  2.0330
  102OSM   C10F10344   0.339   1.188   9.646  0.5558 -0.2927 -0.3289
  102OSM   H10F10345   0.291   1.286   9.632  3.7061  1.9245  2.7947
  102OSM   C11F10346   0.408   1.145   9.523 -0.3194 -0.0134  0.6728
  102OSM   H11F10347   0.500   1.085   9.539  0.0435  0.9468  2.5366
  102OSM   H11G10348   0.434   1.237   9.466  0.3114 -0.3897  0.3440
  102OSM   C12F10349   0.322   1.067   9.428  0.0932 -0.1427  0.3700
  102OSM   H12F10350   0.244   1.129   9.381  1.9459  0.2272 -2.4264
  102OSM   H12G10351   0.270   0.993   9.493  1.1056 -0.0854  1.2683
  102OSM   C13F10352   0.397   0.976   9.329  0.0837 -0.7038 -0.3246
  102OSM   H13F10353   0.323   0.906   9.285  1.3641 -2.7241  0.5976
  102OSM   H13G10354   0.478   0.928   9.388  1.4211  1.6829 -0.0798
  102OSM   C14F10355   0.463   1.062   9.215  0.9907  0.0119  0.4591
  102OSM   H14F10356   0.504   1.153   9.263  0.8116  0.4967 -0.2863
  102OSM   H14G10357   0.387   1.096   9.142  0.6237  1.4228  1.4662
  102OSM   C15F10358   0.563   0.978   9.142 -0.5513  0.7448 -0.3230
  102OSM   H15F10359   0.519   0.890   9.092 -0.7356  0.0838  0.9567
  102OSM   H15G10360   0.641   0.929   9.203 -0.5306 -3.4397 -3.3248
  102OSM   C16F10361   0.645   1.057   9.037 -0.1941 -0.0813 -0.8926
  102OSM   H16F10362   0.735   1.003   9.001 -0.4361 -0.3515 -1.0935
  102OSM   H16G10363   0.664   1.155   9.086 -0.2301 -0.8365  0.7079
  102OSM   C17F10364   0.559   1.080   8.913  0.9146  0.1335 -0.2232
  102OSM   H17F10365   0.471   1.143   8.939  0.4335 -0.0860 -1.2646
  102OSM   H17G10366   0.526   0.981   8.875 -1.0828  0.4879  0.4654
  102OSM   C18F10367   0.638   1.153   8.790 -0.0497  0.0135 -0.9461
  102OSM   H18F10368   0.565   1.171   8.709 -1.2244  3.1111  0.5915
  102OSM   H18G10369   0.726   1.093   8.760  1.8456  1.4557  1.3028
  102OSM   H18H10370   0.671   1.255   8.822 -3.4132  0.9775 -0.0400
  103OSM      N10371   5.406   3.307  11.488  0.1577  0.2825 -0.0855
  103OSM    C1510372   5.266   3.296  11.543 -0.1210 -0.2267  0.1837
  103OSM   H15A10373   5.221   3.391  11.564 -0.8976 -0.0356 -2.0747
  103OSM   H15B10374   5.270   3.237  11.633  0.9969 -1.9618 -0.9334
  103OSM   H15C10375   5.208   3.252  11.463  2.3697 -1.3470 -1.1318
  103OSM    C1410376   5.470   3.418  11.570  0.6106 -0.0341 -0.3673
  103OSM   H14A10377   5.425   3.514  11.547 -1.3064 -1.2072 -1.8461
  103OSM   H14B10378   5.574   3.425  11.542  0.3109 -0.5123 -1.6830
  103OSM   H14C10379   5.461   3.398  11.676 -0.9705 -1.0290 -0.6557
  103OSM    C1310380   5.486   3.182  11.517  0.3240  0.0315 -0.2158
  103OSM   H13A10381   5.445   3.097  11.463  1.3801  0.5561 -1.9588
  103OSM   H13B10382   5.484   3.160  11.622 -0.0843  1.0285 -0.0115
  103OSM   H13C10383   5.584   3.195  11.473  0.3720  1.1588  0.2016
  103OSM    C1210384   5.398   3.333  11.342 -0.7583  0.4733 -0.2630
  103OSM   H12A10385   5.329   3.413  11.322 -1.2500  0.0091 -0.4733
  103OSM   H12B10386   5.347   3.251  11.293  0.4346  1.3986 -3.2532
  103OSM    C1110387   5.533   3.361  11.271 -0.3416  0.2585  0.6939
  103OSM   H11A10388   5.514   3.367  11.161  0.9136  1.2327  0.5013
  103OSM   H11B10389   5.600   3.273  11.282  0.0224  0.3230 -0.7416
  103OSM      P10390   5.557   3.622  11.272 -0.1384  0.2487  0.1914
  103OSM    O1310391   5.410   3.641  11.300 -0.1074  0.0270 -0.5552
  103OSM    O1410392   5.657   3.710  11.334  0.1196  0.2190  0.4122
  103OSM    O1110393   5.583   3.617  11.114 -0.2602 -0.5142  0.2085
  103OSM    O1210394   5.604   3.474  11.319  0.7462  0.5258  0.3926
  103OSM    C1S10395   5.718   3.593  11.068  0.5982  0.3764 -0.7860
  103OSM    H1S10396   5.751   3.495  11.109 -1.5162  0.7034  1.9253
  103OSM    H1T10397   5.787   3.669  11.112  2.0880 -0.1265 -2.1351
  103OSM     NF10398   5.865   3.568  10.872  0.1147 -0.7534 -0.4951
  103OSM    HNF10399   5.935   3.638  10.861  0.3625 -0.3611  2.5974
  103OSM    C2S10400   5.741   3.611  10.920 -0.1776 -0.7588  0.8526
  103OSM    H2S10401   5.675   3.544  10.861  1.1411 -0.7593 -0.6781
  103OSM    C3S10402   5.706   3.760  10.868  0.0864 -0.0965 -0.2879
  103OSM    H3S10403   5.767   3.839  10.916 -1.1623 -0.8730  2.8487
  103OSM     O310404   5.576   3.793  10.907 -0.0386  0.2197  0.2785
  103OSM    HO310405   5.552   3.730  10.975 -1.5222 -0.7521 -1.0648
  103OSM    C4S10406   5.724   3.762  10.723  0.6893  0.1350 -0.4988
  103OSM    H4S10407   5.644   3.701  10.678 -2.1026 -0.1276  4.1904
  103OSM    C5S10408   5.824   3.828  10.650  0.0156  0.2478  0.1308
  103OSM    H5S10409   5.909   3.871  10.704  0.5704 -0.3694 -0.2284
  103OSM    C6S10410   5.844   3.823  10.506  0.6894 -0.4703  0.4922
  103OSM    H6S10411   5.944   3.783  10.478 -0.0339 -1.1896 -1.2088
  103OSM    H6T10412   5.829   3.930  10.481  0.7545 -0.4865  0.3809
  103OSM    C7S10413   5.745   3.730  10.431 -0.1597  0.4491 -0.4795
  103OSM    H7S10414   5.637   3.746  10.452 -0.0803 -0.9233  1.1016
  103OSM    H7T10415   5.753   3.629  10.477 -0.2395  1.7454  2.6082
  103OSM    C8S10416   5.774   3.733  10.278 -0.1276  0.4721  0.3121
  103OSM    H8S10417   5.883   3.726  10.261  0.1813  1.8048  1.5186
  103OSM    H8T10418   5.750   3.832  10.233  0.6226  0.3484 -0.3924
  103OSM    C9S10419   5.680   3.637  10.193 -0.0966 -0.1369  0.4527
  103OSM    H9S10420   5.577   3.657  10.229 -0.2415 -2.9426  1.8623
  103OSM    H9T10421   5.700   3.528  10.197  0.4833 -0.0719 -0.3504
  103OSM   C10S10422   5.677   3.674  10.042 -0.3769  0.4830 -0.7602
  103OSM   H10S10423   5.774   3.669   9.987  1.0171  1.7781  1.4332
  103OSM   H10T10424   5.638   3.777  10.036  0.3905  1.0213  2.0978
  103OSM   C11S10425   5.567   3.591   9.964  1.0787  0.5192  0.1750
  103OSM   H11S10426   5.472   3.587  10.022  0.6106 -0.8044 -0.6182
  103OSM   H11T10427   5.610   3.489   9.948 -2.0229 -0.7652 -0.7642
  103OSM   C12S10428   5.537   3.644   9.819  0.6681 -0.5959 -0.4504
  103OSM   H12S10429   5.504   3.750   9.820 -1.4509 -1.2090  0.2579
  103OSM   H12T10430   5.450   3.588   9.779  0.3563 -0.9962  0.7622
  103OSM   C13S10431   5.646   3.630   9.715 -0.6384  0.3292 -0.0777
  103OSM   H13S10432   5.696   3.534   9.740 -0.7612 -0.3536 -2.2574
  103OSM   H13T10433   5.720   3.709   9.740 -0.8537  0.2229  0.9665
  103OSM   C14S10434   5.597   3.628   9.572 -0.0562 -0.2151  0.5932
  103OSM   H14S10435   5.539   3.722   9.560 -1.4933 -0.7706  2.5411
  103OSM   H14T10436   5.518   3.550   9.564 -2.0074  1.5568  1.5213
  103OSM   C15S10437   5.705   3.620   9.461 -0.1585  0.0777 -0.7813
  103OSM   H15S10438   5.768   3.532   9.486  0.7554  1.4085  1.9109
  103OSM   H15T10439   5.772   3.708   9.473  0.0711 -0.1625 -0.2992
  103OSM   C16S10440   5.662   3.607   9.314 -0.1765 -0.1710 -1.0265
  103OSM   H16S10441   5.757   3.606   9.258 -0.3707 -1.6805 -1.3689
  103OSM   H16T10442   5.601   3.690   9.272  0.1570  0.1520 -0.8770
  103OSM   C17S10443   5.602   3.472   9.284 -0.2868  0.0244  0.3919
  103OSM   H17S10444   5.516   3.455   9.353  1.0147 -1.0351  1.8235
  103OSM   H17T10445   5.680   3.398   9.312 -0.0847  0.1166  0.0723
  103OSM   C18S10446   5.560   3.462   9.139 -0.5796  0.7198 -0.7608
  103OSM   H18S10447   5.650   3.440   9.079  0.9507 -0.0849  1.6873
  103OSM   H18T10448   5.510   3.551   9.095  2.3745  1.2247 -3.4340
  103OSM   H18U10449   5.496   3.374   9.117  3.3349 -1.9582 -2.5707
  103OSM    C1F10450   5.910   3.442  10.869 -0.4699 -0.0816 -0.6991
  103OSM     OF10451   5.846   3.346  10.910  0.3189  0.3944  0.1055
  103OSM    C2F10452   6.054   3.432  10.825  0.2137  0.3982 -0.0810
  103OSM    H2F10453   6.118   3.396  10.909  0.5440  1.3605  0.0968
  103OSM    H2G10454   6.101   3.531  10.806  1.9548 -0.1852  0.9172
  103OSM    C3F10455   6.073   3.360  10.686  0.0765 -0.6914 -0.1689
  103OSM    H3F10456   6.032   3.258  10.695  1.6845 -1.2926  0.8378
  103OSM    H3G10457   6.178   3.353  10.651  0.1577  1.9279 -0.6614
  103OSM    C4F10458   6.012   3.447  10.569 -0.7775 -0.0145  0.4818
  103OSM    H4F10459   6.067   3.542  10.557 -1.1178  0.0854 -0.3322
  103OSM    H4G10460   5.903   3.459  10.587 -0.6919 -0.4106  1.3354
  103OSM    C5F10461   6.033   3.369  10.440  0.4648  0.4020 -0.3709
  103OSM    H5F10462   5.993   3.266  10.448 -2.0434  1.3057 -0.3937
  103OSM    H5G10463   6.138   3.355  10.407  1.4808 -0.3541  2.7773
  103OSM    C6F10464   5.968   3.435  10.315  0.2924 -0.3090  0.0346
  103OSM    H6F10465   5.994   3.540  10.290 -2.6525  0.0854 -1.8654
  103OSM    H6G10466   5.858   3.419  10.326  0.3000 -0.4936 -0.1500
  103OSM    C7F10467   6.010   3.362  10.182 -0.2798  0.7057 -0.1105
  103OSM    H7F10468   6.120   3.349  10.194 -0.0497  4.2725  4.0698
  103OSM    H7G10469   5.979   3.420  10.093 -2.3219  0.9809  0.7241
  103OSM    C8F10470   5.941   3.225  10.154  0.2630  0.4559  0.5336
  103OSM    H8F10471   5.940   3.168  10.250 -3.2448  2.2991  1.7642
  103OSM    H8G10472   6.001   3.160  10.087 -0.5946 -0.8119  0.9545
  103OSM    C9F10473   5.806   3.232  10.095 -0.5216 -0.4073  0.1635
  103OSM    H9F10474   5.739   3.267  10.175  0.6092  1.6244  0.2829
  103OSM   C10F10475   5.761   3.211   9.967  0.3232 -0.5710 -0.0495
  103OSM   H10F10476   5.654   3.231   9.950  0.8196  0.9744 -1.6572
  103OSM   C11F10477   5.841   3.173   9.846 -0.3504  0.9582  0.5748
  103OSM   H11F10478   5.818   3.070   9.814 -1.0842  0.8252  1.4858
  103OSM   H11G10479   5.949   3.183   9.871 -0.2741  0.6467  0.3680
  103OSM   C12F10480   5.821   3.257   9.712  0.5816  1.4157 -0.0190
  103OSM   H12F10481   5.842   3.365   9.732  2.4155  1.0753  0.0735
  103OSM   H12G10482   5.712   3.256   9.694  0.2485  0.0356  1.7357
  103OSM   C13F10483   5.911   3.192   9.596  0.1352 -0.5539 -0.1484
  103OSM   H13F10484   5.875   3.088   9.582  0.2620 -0.4579 -1.2319
  103OSM   H13G10485   6.018   3.181   9.622  1.0952  1.5448 -2.7929
  103OSM   C14F10486   5.910   3.263   9.461 -0.7272  0.0925  0.2732
  103OSM   H14F10487   5.949   3.367   9.470  0.3501 -0.4318  2.4264
  103OSM   H14G10488   5.802   3.268   9.434 -1.5561  0.1774  3.2882
  103OSM   C15F10489   5.993   3.195   9.354  0.3587  0.2681 -0.1937
  103OSM   H15F10490   5.955   3.091   9.341 -0.9018  0.8009 -0.8963
  103OSM   H15G10491   6.101   3.190   9.381  0.3881 -0.6097 -0.4264
  103OSM   C16F10492   5.973   3.274   9.222  0.5062 -0.1580  0.3049
  103OSM   H16F10493   6.010   3.379   9.228 -0.4736  0.1882  0.4651
  103OSM   H16G10494   5.867   3.298   9.203  0.2742 -2.3193 -1.5743
  103OSM   C17F10495   6.026   3.191   9.104  0.1170  0.3779  0.2247
  103OSM   H17F10496   5.996   3.086   9.123 -0.1764  0.2221 -1.0082
  103OSM   H17G10497   6.137   3.192   9.115 -0.0386  0.8872  2.1178
  103OSM   C18F10498   5.983   3.248   8.969  0.1882  0.1301 -1.2300
  103OSM   H18F10499   6.032   3.346   8.948  0.0399  1.2054  2.7235
  103OSM   H18G10500   5.874   3.270   8.971 -0.2526 -1.8270 -1.3148
  103OSM   H18H10501   6.013   3.178   8.888 -0.6403 -0.9853 -0.6018
  104OSM      N10502   0.957   3.110  11.260  0.3802  0.0659  0.0880
  104OSM    C1510503   0.843   3.173  11.344 -0.4084 -0.5205  0.0597
  104OSM   H15A10504   0.825   3.280  11.337 -1.9830 -0.7659  0.0986
  104OSM   H15B10505   0.852   3.152  11.449 -0.4493  3.4186  1.0080
  104OSM   H15C10506   0.759   3.126  11.295 -0.9127 -0.5740  0.9545
  104OSM    C1410507   1.067   3.208  11.261 -0.2833  0.0861 -0.6422
  104OSM   H14A10508   1.146   3.158  11.209 -0.4280  0.1394 -0.9146
  104OSM   H14B10509   1.100   3.225  11.363  0.3471 -1.1613 -0.6309
  104OSM   H14C10510   1.038   3.296  11.205  2.8618  2.4181  1.0573
  104OSM    C1310511   1.003   2.978  11.323  0.7181  0.4396 -0.5313
  104OSM   H13A10512   0.922   2.907  11.339  1.0149  0.2170  0.0202
  104OSM   H13B10513   1.064   2.990  11.411  0.1438  0.0342 -0.0642
  104OSM   H13C10514   1.067   2.927  11.253 -0.4081  0.1963 -1.4140
  104OSM    C1210515   0.908   3.083  11.125  0.1046 -0.0397  0.4954
  104OSM   H12A10516   0.865   3.175  11.089  2.3277  0.1804 -1.9096
  104OSM   H12B10517   0.833   3.005  11.122 -0.9559  0.9623 -1.1843
  104OSM    C1110518   1.019   3.042  11.022 -0.5381 -0.2575  0.3932
  104OSM   H11A10519   1.101   3.116  11.018 -1.2113  0.5284  0.6863
  104OSM   H11B10520   0.971   3.058  10.923  0.3824  0.5088  0.0582
  104OSM      P10521   1.015   2.782  10.984 -0.0036 -0.1089 -0.3708
  104OSM    O1310522   1.092   2.668  11.041 -0.4972 -0.0909  0.4075
  104OSM    O1410523   0.870   2.785  11.015  0.7355 -0.6900 -0.0212
  104OSM    O1110524   1.032   2.797  10.830 -0.2716  0.0743  0.3306
  104OSM    O1210525   1.076   2.917  11.043 -0.4891  0.6416  0.5631
  104OSM    C1S10526   1.167   2.831  10.780  0.2785  0.7019 -0.4078
  104OSM    H1S10527   1.238   2.755  10.819 -0.2781  1.2379  1.7788
  104OSM    H1T10528   1.209   2.925  10.822 -0.1491  0.5045  0.4881
  104OSM     NF10529   1.304   2.927  10.596  0.2666  0.1342  0.2497
  104OSM    HNF10530   1.308   3.026  10.609  0.1653  0.0341  1.1310
  104OSM    C2S10531   1.175   2.864  10.625 -0.6116 -1.0185  0.3424
  104OSM    H2S10532   1.175   2.772  10.563  1.9283 -1.5570  1.0164
  104OSM    C3S10533   1.058   2.957  10.575  0.5736 -0.3929 -0.5108
  104OSM    H3S10534   1.081   3.050  10.632  1.2941 -0.4872 -0.6288
  104OSM     O310535   0.926   2.903  10.607 -0.5039 -0.1835 -0.2798
  104OSM    HO310536   0.950   2.841  10.677  0.1053 -1.2357 -1.3722
  104OSM    C4S10537   1.061   2.993  10.423  0.3754  0.8441  0.7420
  104OSM    H4S10538   1.078   2.909  10.355 -2.4921 -0.6712  1.7118
  104OSM    C5S10539   1.042   3.111  10.358 -0.0593 -0.3718 -0.3920
  104OSM    H5S10540   1.017   3.200  10.417  1.4737 -1.2672  1.7737
  104OSM    C6S10541   1.043   3.129  10.210  0.4665 -0.6369 -0.4056
  104OSM    H6S10542   0.953   3.188  10.184  1.0281  1.1820  1.5768
  104OSM    H6T10543   1.025   3.032  10.158 -1.2879 -0.9303  0.6784
  104OSM    C7S10544   1.173   3.205  10.159 -0.0119 -0.6459 -0.1882
  104OSM    H7S10545   1.267   3.146  10.158  0.8327  0.6149  1.1927
  104OSM    H7T10546   1.187   3.299  10.215 -1.4023 -0.1455 -0.6483
  104OSM    C8S10547   1.140   3.239  10.012  0.1538  0.4925 -0.3370
  104OSM    H8S10548   1.183   3.339   9.989 -0.8047  0.4524 -2.5063
  104OSM    H8T10549   1.031   3.253   9.992  0.1623  0.3939 -0.4523
  104OSM    C9S10550   1.198   3.156   9.904 -0.8560 -0.0963  0.9642
  104OSM    H9S10551   1.209   3.051   9.938  0.6764  0.0565  0.9997
  104OSM    H9T10552   1.303   3.192   9.903 -0.4738 -1.1869  0.1918
  104OSM   C10S10553   1.135   3.169   9.765  0.4341  0.2185 -0.2870
  104OSM   H10S10554   1.116   3.275   9.738 -1.0000  0.3893  1.2218
  104OSM   H10T10555   1.031   3.132   9.761 -0.2021  1.5974  1.5739
  104OSM   C11S10556   1.206   3.093   9.654 -0.1916  0.0294 -0.1704
  104OSM   H11S10557   1.170   2.990   9.632 -0.1725 -0.1018  0.3926
  104OSM   H11T10558   1.311   3.065   9.678 -0.2491 -2.3301 -2.2489
  104OSM   C12S10559   1.207   3.181   9.530 -0.8020  0.3399 -0.0513
  104OSM   H12S10560   1.262   3.275   9.553  0.0913 -0.7329  2.5794
  104OSM   H12T10561   1.099   3.195   9.507 -1.0234 -1.4155 -0.2646
  104OSM   C13S10562   1.261   3.093   9.408 -0.8154 -0.9493 -0.0108
  104OSM   H13S10563   1.220   3.136   9.314  3.0501 -2.2298 -2.5656
  104OSM   H13T10564   1.212   2.994   9.418 -2.3334 -0.1629  0.5636
  104OSM   C14S10565   1.417   3.077   9.392  0.4925 -0.0341 -0.0550
  104OSM   H14S10566   1.449   2.995   9.324  4.1934  1.2142 -0.0670
  104OSM   H14T10567   1.459   3.041   9.488  0.2080  3.2758  1.4112
  104OSM   C15S10568   1.494   3.203   9.336  0.2567  1.5343  0.3141
  104OSM   H15S10569   1.486   3.278   9.418  0.5949 -0.0169  1.8265
  104OSM   H15T10570   1.455   3.246   9.241 -0.5248  0.5691  0.1942
  104OSM   C16S10571   1.646   3.173   9.329  0.6286 -0.0042 -0.1513
  104OSM   H16S10572   1.695   3.268   9.357  1.8064 -1.5809  3.8446
  104OSM   H16T10573   1.687   3.134   9.233 -0.0343  0.9956 -0.8587
  104OSM   C17S10574   1.704   3.076   9.434 -0.3429  0.2120 -0.8523
  104OSM   H17S10575   1.644   2.983   9.441 -1.8961  1.1974 -0.6435
  104OSM   H17T10576   1.680   3.126   9.530 -0.1880 -2.5250  0.7042
  104OSM   C18S10577   1.858   3.049   9.426  0.9037 -0.1262  1.1002
  104OSM   H18S10578   1.910   3.137   9.382 -0.4645  0.0232 -0.3006
  104OSM   H18T10579   1.891   2.960   9.367 -0.3330 -1.0079  1.6918
  104OSM   H18U10580   1.895   3.050   9.531  0.4662  3.6242  1.3523
  104OSM    C1F10581   1.413   2.849  10.583  0.1777 -0.0801 -0.6114
  104OSM     OF10582   1.403   2.730  10.600  0.0172  0.3278 -0.3569
  104OSM    C2F10583   1.543   2.912  10.569 -0.1512  0.0926 -0.0424
  104OSM    H2F10584   1.623   2.836  10.577  0.4632  0.6874 -0.3956
  104OSM    H2G10585   1.559   2.988  10.649  0.3996 -0.4944  0.4123
  104OSM    C3F10586   1.562   2.985  10.425 -0.2000  0.2228 -0.7326
  104OSM    H3F10587   1.672   2.981  10.412 -0.4824  0.1724 -3.9972
  104OSM    H3G10588   1.517   3.087  10.422 -2.5125 -0.4254  3.3906
  104OSM    C4F10589   1.506   2.906  10.307 -0.3932  0.0441  0.0653
  104OSM    H4F10590   1.395   2.900  10.302 -0.3122 -0.6431 -2.0802
  104OSM    H4G10591   1.538   2.800  10.316  0.6316  0.4802  1.9554
  104OSM    C5F10592   1.547   2.961  10.169  0.1549 -0.7652  0.3886
  104OSM    H5F10593   1.657   2.946  10.165  0.3130 -0.0708  1.6215
  104OSM    H5G10594   1.518   3.068  10.159 -0.2110 -0.9987 -1.3489
  104OSM    C6F10595   1.466   2.896  10.054  0.1983 -0.2470  0.0556
  104OSM    H6F10596   1.370   2.953  10.052 -0.7219 -1.7628 -1.9596
  104OSM    H6G10597   1.432   2.799  10.097  0.7781  0.2324  1.6856
  104OSM    C7F10598   1.547   2.876   9.921  1.1150 -0.4310  0.1839
  104OSM    H7F10599   1.643   2.820   9.935  0.2899 -1.6682  1.1774
  104OSM    H7G10600   1.578   2.974   9.879  0.4312  0.1129  0.9083
  104OSM    C8F10601   1.458   2.813   9.806 -0.3170 -0.0820  0.2863
  104OSM    H8F10602   1.368   2.877   9.798  0.0206  0.1604 -1.9811
  104OSM    H8G10603   1.433   2.711   9.844  1.3325 -1.2816 -1.6505
  104OSM    C9F10604   1.535   2.809   9.675 -0.0379  0.4837  0.0898
  104OSM    H9F10605   1.609   2.889   9.662 -0.3625  0.7271 -0.2707
  104OSM   C10F10606   1.524   2.725   9.568  0.4411  0.7849  0.2376
  104OSM   H10F10607   1.591   2.725   9.480  1.1365  0.2730  0.7621
  104OSM   C11F10608   1.418   2.623   9.558  0.0999  0.4876  0.3752
  104OSM   H11F10609   1.376   2.618   9.661  1.2884 -1.4159  0.8255
  104OSM   H11G10610   1.466   2.525   9.535  1.2165  1.1005 -0.0031
  104OSM   C12F10611   1.299   2.645   9.461  0.3908  0.2616  0.5126
  104OSM   H12F10612   1.259   2.745   9.487 -1.5379 -1.3057  4.2602
  104OSM   H12G10613   1.223   2.575   9.500  1.2480 -0.4074  1.0323
  104OSM   C13F10614   1.341   2.646   9.314 -0.0199 -0.2467  0.3198
  104OSM   H13F10615   1.446   2.682   9.317  0.5513 -1.7935  0.3302
  104OSM   H13G10616   1.284   2.720   9.254  1.4105  1.7998  1.3805
  104OSM   C14F10617   1.337   2.516   9.242 -0.9587  0.0963 -0.3707
  104OSM   H14F10618   1.227   2.499   9.247 -1.2379  1.6663 -0.5989
  104OSM   H14G10619   1.389   2.432   9.294 -1.3511  1.0847  1.7473
  104OSM   C15F10620   1.377   2.531   9.092 -0.1404 -0.3443  0.0364
  104OSM   H15F10621   1.488   2.540   9.090 -0.1112 -0.7328 -0.1863
  104OSM   H15G10622   1.328   2.624   9.056 -1.9680 -1.4348 -0.3775
  104OSM   C16F10623   1.332   2.421   8.998  0.1556 -0.4096 -0.1585
  104OSM   H16F10624   1.223   2.408   9.012 -0.3613  1.9994 -1.4643
  104OSM   H16G10625   1.380   2.327   9.034  2.4107  0.3155 -1.0886
  104OSM   C17F10626   1.366   2.446   8.854  0.2708 -0.4644  0.1453
  104OSM   H17F10627   1.475   2.463   8.850  0.1597 -0.0143 -1.5249
  104OSM   H17G10628   1.319   2.539   8.817  1.4205 -0.4161 -1.2440
  104OSM   C18F10629   1.337   2.327   8.755 -0.0124 -0.3790  0.4634
  104OSM   H18F10630   1.409   2.249   8.786 -0.8621 -1.2620  0.2516
  104OSM   H18G10631   1.368   2.360   8.653  0.5545 -0.9972  0.4270
  104OSM   H18H10632   1.232   2.296   8.771 -0.3238  1.1882  1.7876
  105OSM      N10633   3.777   6.621  11.195 -0.1798 -0.7224  0.7897
  105OSM    C1510634   3.874   6.507  11.185 -0.2636  0.6947  0.7024
  105OSM   H15A10635   3.815   6.418  11.195 -0.6963  0.9118  0.1531
  105OSM   H15B10636   3.946   6.510  11.265  1.7119 -0.0702 -0.9363
  105OSM   H15C10637   3.917   6.511  11.086 -0.9976 -2.6763  0.1453
  105OSM    C1410638   3.698   6.609  11.324 -0.8379  0.0364 -1.0652
  105OSM   H14A10639   3.630   6.689  11.347 -0.2267  0.2064  0.2793
  105OSM   H14B10640   3.763   6.602  11.410 -2.7365 -3.7930  0.3007
  105OSM   H14C10641   3.644   6.516  11.326 -1.3155  0.3241  0.4270
  105OSM    C1310642   3.860   6.742  11.203 -0.5829  0.0693 -0.5590
  105OSM   H13A10643   3.800   6.825  11.238  2.1792  2.2661 -0.5991
  105OSM   H13B10644   3.913   6.774  11.115 -2.0752  1.5689 -0.9443
  105OSM   H13C10645   3.927   6.723  11.286 -0.6921  1.0262 -0.2335
  105OSM    C1210646   3.694   6.621  11.064  0.1154  0.3916 -0.4344
  105OSM   H12A10647   3.764   6.643  10.985  2.0076  3.5337  1.8738
  105OSM   H12B10648   3.624   6.702  11.058 -0.8400 -0.3257  0.5539
  105OSM    C1110649   3.608   6.497  11.030  0.2302 -0.5225 -0.5645
  105OSM   H11A10650   3.671   6.406  11.029  1.8393  0.4958  1.2945
  105OSM   H11B10651   3.556   6.506  10.932 -1.5910  2.3553  0.5198
  105OSM      P10652   3.373   6.550  11.112 -0.0319 -0.1675 -0.0024
  105OSM    O1310653   3.279   6.502  11.218 -0.0632 -0.3191  0.3972
  105OSM    O1410654   3.393   6.696  11.093  0.1253  0.0021 -0.2150
  105OSM    O1110655   3.325   6.505  10.976 -0.1589 -0.1511  0.2976
  105OSM    O1210656   3.507   6.469  11.124  0.1442 -0.5883 -0.1813
  105OSM    C1S10657   3.323   6.361  10.949  0.6379 -0.0261  0.1928
  105OSM    H1S10658   3.247   6.312  11.013  1.8592 -1.6072  0.4862
  105OSM    H1T10659   3.421   6.310  10.956  0.5821 -0.3452 -1.0407
  105OSM     NF10660   3.272   6.184  10.768 -0.1342 -0.2591 -0.3229
  105OSM    HNF10661   3.346   6.140  10.717  0.0058  0.4840 -0.7704
  105OSM    C2S10662   3.288   6.324  10.792 -0.2424 -0.0010  0.1231
  105OSM    H2S10663   3.192   6.378  10.777  1.8818  3.4073 -2.5436
  105OSM    C3S10664   3.391   6.399  10.700  0.2686 -0.0908  0.0019
  105OSM    H3S10665   3.494   6.365  10.722  0.2179  0.0842  0.5173
  105OSM     O310666   3.391   6.539  10.714  0.5088 -0.0978 -0.3295
  105OSM    HO310667   3.354   6.552  10.801  1.1635  0.8859 -0.1805
  105OSM    C4S10668   3.355   6.371  10.557  0.3820 -0.0541 -0.6392
  105OSM    H4S10669   3.432   6.311  10.506  0.0688  0.1271 -1.3308
  105OSM    C5S10670   3.243   6.417  10.495  0.2286  0.1818  0.7500
  105OSM    H5S10671   3.182   6.478  10.563 -2.9899 -1.2219 -0.6654
  105OSM    C6S10672   3.193   6.408  10.354 -0.4114  0.2604  0.7820
  105OSM    H6S10673   3.226   6.497  10.297  0.2450 -0.0231  0.7053
  105OSM    H6T10674   3.083   6.390  10.353 -0.3175 -0.3307  0.5711
  105OSM    C7S10675   3.239   6.282  10.268  0.5666 -0.2391  0.0991
  105OSM    H7S10676   3.222   6.193  10.331  1.5372 -0.8872 -0.5169
  105OSM    H7T10677   3.345   6.297  10.239  0.5770 -2.4446 -1.2244
  105OSM    C8S10678   3.147   6.268  10.146  0.3197  0.2621 -0.7788
  105OSM    H8S10679   3.135   6.365  10.092 -1.3497  1.1302  1.0310
  105OSM    H8T10680   3.042   6.261  10.181  0.0430  0.3527 -1.5785
  105OSM    C9S10681   3.167   6.143  10.060  0.3733 -0.0918  0.1695
  105OSM    H9S10682   3.163   6.052  10.123  0.3816 -0.5544 -0.4952
  105OSM    H9T10683   3.263   6.157  10.005  0.6789  3.6610  1.3321
  105OSM   C10S10684   3.060   6.127   9.949 -0.0263  0.4882 -0.7359
  105OSM   H10S10685   2.973   6.184   9.986 -1.0040 -2.2901  1.6462
  105OSM   H10T10686   3.027   6.021   9.948  2.3683 -0.3116 -1.5070
  105OSM   C11S10687   3.116   6.166   9.814  0.5255 -0.4205 -0.2770
  105OSM   H11S10688   3.209   6.111   9.787  0.7351 -0.1229 -0.1628
  105OSM   H11T10689   3.154   6.270   9.819 -3.6908  1.2490  2.0528
  105OSM   C12S10690   3.020   6.176   9.697 -0.0916 -1.0459 -0.5536
  105OSM   H12S10691   2.941   6.251   9.717  0.8283 -0.5656  1.5378
  105OSM   H12T10692   2.971   6.078   9.680 -0.1136 -1.0005 -0.7494
  105OSM   C13S10693   3.088   6.202   9.566  0.1062  0.4973  0.1319
  105OSM   H13S10694   3.166   6.126   9.545  0.1890  1.0856 -1.9461
  105OSM   H13T10695   3.126   6.306   9.555 -2.4891  1.4591 -0.6545
  105OSM   C14S10696   2.986   6.186   9.457 -0.1625  0.7959  0.2124
  105OSM   H14S10697   2.901   6.255   9.477  0.1218  1.0123  0.6839
  105OSM   H14T10698   2.951   6.080   9.452  0.9825  0.4524 -0.6516
  105OSM   C15S10699   3.041   6.228   9.322 -0.3867  0.2288  0.7416
  105OSM   H15S10700   3.063   6.337   9.322  0.6864  0.0607 -1.3969
  105OSM   H15T10701   2.955   6.216   9.252  0.0368  0.4395  0.1766
  105OSM   C16S10702   3.176   6.158   9.277 -0.3984 -0.5155 -0.2925
  105OSM   H16S10703   3.162   6.048   9.281 -0.3208 -0.5059  0.4480
  105OSM   H16T10704   3.250   6.196   9.351  0.2697 -0.2726 -1.0730
  105OSM   C17S10705   3.226   6.184   9.136  0.5303 -0.5662 -0.3188
  105OSM   H17S10706   3.327   6.139   9.125  0.8451 -0.4452  1.6088
  105OSM   H17T10707   3.244   6.293   9.125 -1.0221 -0.3035 -0.4532
  105OSM   C18S10708   3.123   6.125   9.038  0.2422 -0.6740  0.4209
  105OSM   H18S10709   3.087   6.026   9.072  1.4901 -1.2681  0.0353
  105OSM   H18T10710   3.157   6.121   8.933 -1.1145 -2.5598 -0.0010
  105OSM   H18U10711   3.034   6.191   9.048  1.3389  0.7058  1.5311
  105OSM    C1F10712   3.170   6.104  10.801  0.2645 -0.1333 -0.4125
  105OSM     OF10713   3.079   6.144  10.873 -0.1931 -0.2612  0.5293
  105OSM    C2F10714   3.190   5.965  10.748  0.1611  0.0631  0.0634
  105OSM    H2F10715   3.296   5.935  10.755  1.0531  2.0811 -2.8583
  105OSM    H2G10716   3.168   5.967  10.639 -2.7120  0.9091  0.5758
  105OSM    C3F10717   3.111   5.857  10.828 -0.1912  0.5361  0.9496
  105OSM    H3F10718   3.001   5.863  10.810 -0.4981  0.0209  2.4839
  105OSM    H3G10719   3.128   5.867  10.938 -0.4733 -2.8948  1.4055
  105OSM    C4F10720   3.167   5.716  10.788  0.0213  0.2836  0.3768
  105OSM    H4F10721   3.102   5.643  10.840 -0.0864  1.2993  1.7165
  105OSM    H4G10722   3.272   5.710  10.826  0.3175  0.5690 -0.3638
  105OSM    C5F10723   3.182   5.689  10.639 -0.1203  0.6051  0.2074
  105OSM    H5F10724   3.210   5.586  10.608  1.1986  0.8293  0.5878
  105OSM    H5G10725   3.264   5.749  10.595 -0.2967  1.4248  0.9706
  105OSM    C6F10726   3.049   5.712  10.572  0.3479 -0.5079  0.2840
  105OSM    H6F10727   3.017   5.817  10.559  0.0518 -0.5007  1.0326
  105OSM    H6G10728   2.967   5.673  10.635 -0.0180  1.0789  0.8389
  105OSM    C7F10729   3.041   5.647  10.437  0.0739  0.7211 -0.6315
  105OSM    H7F10730   2.944   5.680  10.393 -1.5510  0.5352  2.4634
  105OSM    H7G10731   3.037   5.536  10.440  2.1315  0.6295  0.1867
  105OSM    C8F10732   3.145   5.682  10.329  0.2807 -0.1151 -0.9914
  105OSM    H8F10733   3.241   5.675  10.384 -0.7840  2.8236  1.4881
  105OSM    H8G10734   3.134   5.790  10.306  0.4059  0.4853  1.4655
  105OSM    C9F10735   3.135   5.596  10.209 -0.5295  0.4460 -0.9274
  105OSM    H9F10736   3.121   5.491  10.237 -0.4669  0.8165  0.5410
  105OSM   C10F10737   3.136   5.630  10.080 -0.0931 -0.0717 -0.7294
  105OSM   H10F10738   3.147   5.551  10.004  0.2063 -1.3107  0.5557
  105OSM   C11F10739   3.144   5.769  10.037 -0.3203  0.1200  0.2505
  105OSM   H11F10740   3.194   5.841  10.105 -0.3207  0.6003 -0.2522
  105OSM   H11G10741   3.047   5.814  10.006  0.5124  0.4411 -2.0884
  105OSM   C12F10742   3.220   5.782   9.903  0.4672  0.3890 -0.2680
  105OSM   H12F10743   3.321   5.734   9.905 -0.0270 -0.6925 -0.4429
  105OSM   H12G10744   3.236   5.883   9.860 -0.8584 -0.1172 -2.0586
  105OSM   C13F10745   3.141   5.729   9.786 -0.6916  0.6757 -0.0800
  105OSM   H13F10746   3.043   5.780   9.772 -1.3603 -1.2062 -3.1638
  105OSM   H13G10747   3.115   5.622   9.791  1.0764 -0.1611 -4.3608
  105OSM   C14F10748   3.230   5.741   9.659 -0.1911  0.0909  0.0873
  105OSM   H14F10749   3.323   5.683   9.675  0.6630  0.8065 -2.0014
  105OSM   H14G10750   3.272   5.843   9.646 -0.6758  0.3269  0.3426
  105OSM   C15F10751   3.145   5.705   9.538  0.3086  0.2771 -0.3666
  105OSM   H15F10752   3.096   5.800   9.509 -0.9863  0.0635  1.0568
  105OSM   H15G10753   3.063   5.638   9.569  0.2489 -0.9317 -2.9017
  105OSM   C16F10754   3.247   5.653   9.429 -0.0395  0.8310  0.0292
  105OSM   H16F10755   3.185   5.589   9.363 -0.2448  0.2549  0.7651
  105OSM   H16G10756   3.320   5.576   9.465  0.3337  0.2626 -1.8517
  105OSM   C17F10757   3.315   5.756   9.340  0.5081 -0.6984 -0.4309
  105OSM   H17F10758   3.397   5.806   9.396 -1.6099  0.4639  1.8303
  105OSM   H17G10759   3.232   5.829   9.330  4.0098  3.7087 -0.8004
  105OSM   C18F10760   3.375   5.706   9.215  0.5674 -0.5710 -0.2989
  105OSM   H18F10761   3.457   5.632   9.228  1.1938  0.2936  0.8809
  105OSM   H18G10762   3.419   5.797   9.169 -0.2016 -0.9310 -1.8389
  105OSM   H18H10763   3.303   5.661   9.143 -0.2549  1.8140 -1.0874
  106OSM      N10764   2.391   0.568  11.044  0.1958 -1.1816 -0.0324
  106OSM    C1510765   2.344   0.687  11.115  0.2061  0.2000  0.3984
  106OSM   H15A10766   2.420   0.764  11.116 -0.1748  0.5917 -0.3779
  106OSM   H15B10767   2.309   0.667  11.215 -2.2446  0.0449 -0.4249
  106OSM   H15C10768   2.263   0.730  11.059 -2.1136 -1.0356  2.6088
  106OSM    C1410769   2.508   0.534  11.116 -0.3116  0.0409 -0.5323
  106OSM   H14A10770   2.480   0.493  11.212  2.4942  1.2875  0.9573
  106OSM   H14B10771   2.573   0.616  11.143 -3.1077  1.9660  0.7196
  106OSM   H14C10772   2.574   0.458  11.075  1.5150  0.7072  1.0164
  106OSM    C1310773   2.290   0.455  11.054 -0.2166  0.2847  0.4859
  106OSM   H13A10774   2.321   0.367  11.000 -2.7747  0.0968 -0.8030
  106OSM   H13B10775   2.213   0.480  10.983  1.1569  2.0616 -0.4735
  106OSM   H13C10776   2.261   0.424  11.153  0.3469  1.7341  1.1360
  106OSM    C1210777   2.422   0.618  10.902 -0.2792 -0.5502 -0.6345
  106OSM   H12A10778   2.470   0.538  10.849  0.9145 -0.7598  0.6950
  106OSM   H12B10779   2.493   0.699  10.904  0.9556 -1.4925 -2.7928
  106OSM    C1110780   2.306   0.668  10.819  0.0860  0.8161  0.1138
  106OSM   H11A10781   2.223   0.597  10.838 -0.1005  0.6577 -1.1608
  106OSM   H11B10782   2.318   0.646  10.710 -3.6723 -2.1088  0.0756
  106OSM      P10783   2.352   0.921  10.814  0.1364  0.3412 -0.1579
  106OSM    O1310784   2.283   1.040  10.868 -0.1766 -0.3621  0.3068
  106OSM    O1410785   2.491   0.903  10.849 -0.5004  0.1713  0.9425
  106OSM    O1110786   2.337   0.915  10.662  0.0295 -0.1831 -0.3873
  106OSM    O1210787   2.267   0.800  10.853  0.0212 -0.1042  0.0167
  106OSM    C1S10788   2.209   0.943  10.591  0.1339  0.1514 -0.3614
  106OSM    H1S10789   2.171   1.045  10.610 -2.0242 -0.6371 -0.2127
  106OSM    H1T10790   2.129   0.874  10.625 -1.2861  1.0134 -1.8077
  106OSM     NF10791   2.097   0.903  10.393  0.5332 -0.1556  0.0870
  106OSM    HNF10792   2.084   0.812  10.355 -3.1825  0.2746 -0.0499
  106OSM    C2S10793   2.223   0.944  10.441 -0.1823  0.4361 -0.3031
  106OSM    H2S10794   2.250   1.049  10.417  0.0000  1.1917  2.7487
  106OSM    C3S10795   2.337   0.857  10.386 -0.0929 -0.7306 -0.8288
  106OSM    H3S10796   2.310   0.751  10.403 -2.5293  0.0105  0.3746
  106OSM     O310797   2.463   0.871  10.453  0.0771  0.6463  0.1043
  106OSM    HO310798   2.429   0.886  10.541 -1.1044 -0.7869 -0.0602
  106OSM    C4S10799   2.356   0.870  10.233  0.1400  0.4553 -0.7885
  106OSM    H4S10800   2.293   0.804  10.173  1.1851  0.8329 -2.3746
  106OSM    C5S10801   2.436   0.955  10.167 -0.0363  0.5521 -0.1022
  106OSM    H5S10802   2.485   1.041  10.215 -0.7895  1.4129 -0.8315
  106OSM    C6S10803   2.463   0.957  10.020  0.0328  0.6335 -0.2036
  106OSM    H6S10804   2.568   0.942   9.987 -0.1254  0.2004 -0.5263
  106OSM    H6T10805   2.417   1.050   9.978  0.9871  0.9161 -0.6536
  106OSM    C7S10806   2.388   0.846   9.940  0.3063  0.6821 -0.3644
  106OSM    H7S10807   2.283   0.835   9.974  0.5966  0.2655  0.4101
  106OSM    H7T10808   2.440   0.749   9.953 -0.5292  0.5025  2.2511
  106OSM    C8S10809   2.400   0.875   9.788  0.0405 -0.1225  0.3286
  106OSM    H8S10810   2.504   0.911   9.770  0.7904 -1.4907  1.6741
  106OSM    H8T10811   2.331   0.960   9.767  1.2146  0.6682 -0.4882
  106OSM    C9S10812   2.370   0.753   9.705  0.2414 -0.0264 -0.7654
  106OSM    H9S10813   2.266   0.715   9.710  0.0456  0.5313 -0.5499
  106OSM    H9T10814   2.446   0.674   9.721  0.6881  0.3156 -1.1713
  106OSM   C10S10815   2.403   0.791   9.561 -0.0031 -0.1093  0.3271
  106OSM   H10S10816   2.508   0.826   9.550  0.2992 -0.4748  1.8198
  106OSM   H10T10817   2.340   0.881   9.542 -0.1640 -0.8309 -3.1733
  106OSM   C11S10818   2.378   0.676   9.461  0.4339 -0.5262 -0.7592
  106OSM   H11S10819   2.286   0.623   9.492  1.4398 -1.2859  1.1274
  106OSM   H11T10820   2.452   0.594   9.475  0.6334 -0.1475  0.5417
  106OSM   C12S10821   2.385   0.715   9.315  0.0532 -0.3800 -0.6378
  106OSM   H12S10822   2.343   0.815   9.288  3.3516  1.3902  0.2813
  106OSM   H12T10823   2.328   0.641   9.255 -0.5541  0.8845 -1.6872
  106OSM   C13S10824   2.517   0.710   9.241 -0.6253  0.3663  0.2154
  106OSM   H13S10825   2.549   0.604   9.248 -1.1599  0.2677  1.3769
  106OSM   H13T10826   2.594   0.776   9.287  0.7666 -1.0558  0.0309
  106OSM   C14S10827   2.490   0.735   9.089 -0.2694  0.5110  0.9356
  106OSM   H14S10828   2.444   0.836   9.085 -0.1096  0.5388 -0.8227
  106OSM   H14T10829   2.420   0.660   9.047 -0.6026  0.7416  1.0750
  106OSM   C15S10830   2.617   0.758   9.003  0.1171 -0.0016  0.6051
  106OSM   H15S10831   2.670   0.662   8.988 -1.0018 -0.2235 -3.1320
  106OSM   H15T10832   2.679   0.835   9.053 -1.0152  2.0624 -0.9638
  106OSM   C16S10833   2.583   0.809   8.858 -0.4928  0.1306 -0.3554
  106OSM   H16S10834   2.529   0.905   8.877 -0.3066 -0.0865  1.4096
  106OSM   H16T10835   2.519   0.736   8.804 -0.0732 -1.3428  1.0545
  106OSM   C17S10836   2.711   0.838   8.779  0.8728 -0.0203  1.2092
  106OSM   H17S10837   2.744   0.942   8.800 -0.1679  0.8874 -1.3447
  106OSM   H17T10838   2.681   0.853   8.674  2.8559 -1.9454  0.2740
  106OSM   C18S10839   2.824   0.738   8.768  0.2503 -0.5488 -0.3710
  106OSM   H18S10840   2.878   0.728   8.865  2.3148  3.4497 -0.8837
  106OSM   H18T10841   2.900   0.777   8.697  0.6310  1.0202  0.8422
  106OSM   H18U10842   2.796   0.632   8.751  1.1300 -0.9182  0.3583
  106OSM    C1F10843   1.994   0.981  10.407 -0.2246 -0.2165  0.3516
  106OSM     OF10844   2.011   1.105  10.422  0.4135  0.3385 -0.2102
  106OSM    C2F10845   1.849   0.922  10.389  0.3112 -0.0180 -0.3017
  106OSM    H2F10846   1.808   0.901  10.490  1.4850 -2.2490 -0.2135
  106OSM    H2G10847   1.848   0.817  10.352 -0.2870 -0.1002 -0.0647
  106OSM    C3F10848   1.748   1.010  10.317 -0.0100 -0.1230 -0.5888
  106OSM    H3F10849   1.774   1.114  10.346 -0.8042 -0.1582  0.2847
  106OSM    H3G10850   1.650   0.984  10.361 -0.3478  1.5670 -0.2984
  106OSM    C4F10851   1.745   0.995  10.160 -0.1316  0.2310 -0.1517
  106OSM    H4F10852   1.753   0.888  10.131  1.2614  1.1272 -3.6074
  106OSM    H4G10853   1.843   1.034  10.128  0.4189  0.3045  1.5389
  106OSM    C5F10854   1.627   1.072  10.097  0.0057 -0.3504  0.3738
  106OSM    H5F10855   1.616   1.178  10.130  1.7694 -0.0234 -0.0109
  106OSM    H5G10856   1.537   1.015  10.128 -0.7782 -0.0757 -1.2834
  106OSM    C6F10857   1.627   1.077   9.941 -0.0603  0.2057 -1.4104
  106OSM    H6F10858   1.524   1.103   9.909 -0.2181  0.5824 -0.6021
  106OSM    H6G10859   1.646   0.980   9.891  2.4669 -0.9580  1.5024
  106OSM    C7F10860   1.730   1.173   9.883  0.0137  0.9902 -0.5432
  106OSM    H7F10861   1.833   1.133   9.894 -0.5310 -0.4751 -0.4896
  106OSM    H7G10862   1.725   1.274   9.928  0.8128  1.0222 -0.5261
  106OSM    C8F10863   1.717   1.183   9.731  0.3091 -0.0984 -0.4587
  106OSM    H8F10864   1.715   1.082   9.686 -1.6070 -0.6450  0.7132
  106OSM    H8G10865   1.808   1.228   9.686  0.1701 -0.5178 -1.1611
  106OSM    C9F10866   1.593   1.260   9.696  0.2121 -0.3114  0.0433
  106OSM    H9F10867   1.554   1.332   9.770  0.2365  0.7041 -0.9040
  106OSM   C10F10868   1.524   1.245   9.578 -0.7326 -0.1786 -0.6150
  106OSM   H10F10869   1.434   1.307   9.564 -0.0071  0.9448 -0.4104
  106OSM   C11F10870   1.562   1.147   9.464 -0.3618 -0.0322  0.0855
  106OSM   H11F10871   1.473   1.121   9.403 -1.0848  0.1654  1.0294
  106OSM   H11G10872   1.597   1.051   9.509  1.4874  0.5653 -0.0152
  106OSM   C12F10873   1.672   1.203   9.375  0.0709 -0.0452  0.3386
  106OSM   H12F10874   1.761   1.230   9.436  2.1746 -2.3772 -1.4623
  106OSM   H12G10875   1.626   1.293   9.329 -0.6968 -0.6953 -0.1969
  106OSM   C13F10876   1.707   1.097   9.266  0.0737  0.3685 -0.3257
  106OSM   H13F10877   1.686   0.992   9.295  2.1330  0.1638  0.5443
  106OSM   H13G10878   1.816   1.118   9.267  0.1126  0.1613  1.0959
  106OSM   C14F10879   1.637   1.136   9.136  0.0462  0.0720  0.1712
  106OSM   H14F10880   1.675   1.235   9.102  0.6433 -0.4943 -0.8307
  106OSM   H14G10881   1.527   1.139   9.155  0.0974 -1.3572  0.7862
  106OSM   C15F10882   1.659   1.031   9.020 -0.7145 -0.0004 -0.6498
  106OSM   H15F10883   1.766   1.028   8.990 -0.8518 -0.7433 -1.0792
  106OSM   H15G10884   1.605   1.076   8.934  1.4382 -0.1305 -2.1718
  106OSM   C16F10885   1.601   0.894   9.060 -0.1702  0.9741 -0.8817
  106OSM   H16F10886   1.495   0.911   9.089 -0.3800 -1.6247  0.1191
  106OSM   H16G10887   1.660   0.855   9.145  1.1229 -1.0136 -2.5907
  106OSM   C17F10888   1.599   0.797   8.941 -0.5438  0.5511 -0.0780
  106OSM   H17F10889   1.692   0.799   8.881 -0.1791 -1.4130  0.3232
  106OSM   H17G10890   1.519   0.843   8.879  0.9073  2.0182 -0.9292
  106OSM   C18F10891   1.582   0.654   8.985  0.8810  0.0625 -0.4595
  106OSM   H18F10892   1.655   0.617   9.060 -0.4002 -1.4812  0.0695
  106OSM   H18G10893   1.580   0.597   8.890  1.7104  1.2550 -1.2199
  106OSM   H18H10894   1.484   0.650   9.038  1.9708  0.8522  1.7545
  107OSM      N10895   4.958   2.887  11.478  0.4451  0.6333 -0.3981
  107OSM    C1510896   4.859   2.883  11.592  0.1017 -0.1546  0.2403
  107OSM   H15A10897   4.888   2.927  11.686 -0.6126  0.2857  0.2610
  107OSM   H15B10898   4.817   2.786  11.613 -2.2846  0.5900 -0.7997
  107OSM   H15C10899   4.775   2.945  11.565 -0.1635 -0.6037  0.0239
  107OSM    C1410900   5.023   3.022  11.475 -0.5402  0.4421 -0.4235
  107OSM   H14A10901   5.106   3.027  11.406 -1.0681  1.0821 -1.0216
  107OSM   H14B10902   5.056   3.054  11.573 -0.1757  1.0403 -0.7343
  107OSM   H14C10903   4.948   3.093  11.445  0.5504  1.9269  0.2109
  107OSM    C1310904   5.056   2.780  11.513 -0.8547  0.0871  0.9160
  107OSM   H13A10905   5.130   2.765  11.436 -1.9290  0.7586 -0.2883
  107OSM   H13B10906   5.013   2.682  11.532  1.0399 -1.1404 -0.7559
  107OSM   H13C10907   5.109   2.803  11.604 -1.1577  1.8304  0.6795
  107OSM    C1210908   4.878   2.854  11.351  1.1328 -0.0635  0.0900
  107OSM   H12A10909   4.789   2.915  11.340  0.8343 -0.5418 -0.1714
  107OSM   H12B10910   4.845   2.752  11.363 -0.2310  0.4281  0.7211
  107OSM    C1110911   4.944   2.858  11.208  0.1112  0.3277 -0.0369
  107OSM   H11A10912   4.874   2.818  11.133 -3.3499  2.6898  1.6867
  107OSM   H11B10913   5.033   2.792  11.218 -1.7170 -2.0486  1.6582
  107OSM      P10914   4.879   3.105  11.133 -0.3834  0.1252  0.0295
  107OSM    O1310915   4.742   3.052  11.157 -0.4948  0.4920  0.5231
  107OSM    O1410916   4.922   3.225  11.212 -0.1683  0.5351  0.0844
  107OSM    O1110917   4.891   3.144  10.977  0.0779  0.3732 -0.4892
  107OSM    O1210918   4.980   2.991  11.164 -0.6191 -0.3187  0.1335
  107OSM    C1S10919   4.924   3.042  10.885 -0.0235  0.3976  0.2004
  107OSM    H1S10920   4.877   2.943  10.899  2.5924 -0.9012  0.4010
  107OSM    H1T10921   5.034   3.027  10.871 -0.0246  0.8980 -0.4362
  107OSM     NF10922   4.897   3.004  10.635 -0.3219 -1.3705 -0.2521
  107OSM    HNF10923   4.972   3.024  10.573 -1.4116  3.2549 -0.4867
  107OSM    C2S10924   4.872   3.101  10.749  0.5846  0.0345  0.4544
  107OSM    H2S10925   4.762   3.114  10.757  0.5699  0.3533 -0.1836
  107OSM    C3S10926   4.922   3.250  10.712 -0.1025 -0.5388  0.9668
  107OSM    H3S10927   5.032   3.261  10.725 -0.3517  3.3520  1.0045
  107OSM     O310928   4.881   3.342  10.811  0.2433 -0.2364  0.2635
  107OSM    HO310929   4.867   3.290  10.891  0.8739  0.9447  1.1787
  107OSM    C4S10930   4.879   3.280  10.575  0.0401 -0.2020  0.1180
  107OSM    H4S10931   4.955   3.237  10.509 -2.5677 -1.3543 -2.3261
  107OSM    C5S10932   4.768   3.335  10.525  0.4579  0.3172  0.0783
  107OSM    H5S10933   4.692   3.373  10.595 -1.3269  0.3387 -1.7713
  107OSM    C6S10934   4.729   3.357  10.382  0.2453  0.4195 -0.0218
  107OSM    H6S10935   4.622   3.389  10.387  0.7476  2.1674  0.4497
  107OSM    H6T10936   4.733   3.273  10.310 -1.3806  0.1363  0.1753
  107OSM    C7S10937   4.822   3.470  10.325 -0.1585  1.0848 -0.2608
  107OSM    H7S10938   4.927   3.441  10.345 -0.7125 -0.9602 -0.1838
  107OSM    H7T10939   4.796   3.570  10.366 -3.2212  0.6153 -0.8003
  107OSM    C8S10940   4.805   3.476  10.172  0.4967 -0.4281  0.3305
  107OSM    H8S10941   4.875   3.557  10.142  0.3609 -0.3416  0.2425
  107OSM    H8T10942   4.704   3.513  10.144  1.5891  1.5384 -1.2749
  107OSM    C9S10943   4.845   3.362  10.086  0.3652  0.1275 -0.7738
  107OSM    H9S10944   4.766   3.288  10.112  1.2357  0.1275  2.3200
  107OSM    H9T10945   4.946   3.325  10.113  0.7498  1.1928 -0.7182
  107OSM   C10S10946   4.839   3.398   9.938  0.0512  0.0146 -0.1192
  107OSM   H10S10947   4.915   3.478   9.924 -1.6983  1.7369 -0.1758
  107OSM   H10T10948   4.743   3.451   9.923  0.1678 -0.3378 -2.4610
  107OSM   C11S10949   4.863   3.270   9.851 -0.1077 -0.7304  0.0315
  107OSM   H11S10950   4.798   3.181   9.866  2.5909 -3.5483 -3.2995
  107OSM   H11T10951   4.963   3.233   9.884  0.3821 -0.1541 -0.7585
  107OSM   C12S10952   4.873   3.297   9.709 -0.8017  0.1171  0.3964
  107OSM   H12S10953   4.963   3.359   9.689 -0.2817 -0.5406  0.6685
  107OSM   H12T10954   4.782   3.355   9.681 -0.1398  0.1848 -1.8789
  107OSM   C13S10955   4.891   3.180   9.613  1.0036  0.1235 -0.8596
  107OSM   H13S10956   4.808   3.110   9.637  0.1319  1.4395  0.0748
  107OSM   H13T10957   4.977   3.119   9.648 -0.5000 -1.4993  0.1985
  107OSM   C14S10958   4.882   3.217   9.469 -0.3486 -0.5484 -0.1469
  107OSM   H14S10959   4.778   3.252   9.451 -0.2084 -0.1123 -0.1007
  107OSM   H14T10960   4.897   3.119   9.418  0.3512  0.3894 -1.8321
  107OSM   C15S10961   5.000   3.309   9.427  0.6365 -0.3321 -0.6775
  107OSM   H15S10962   5.086   3.268   9.483 -0.3379 -1.0727  0.3296
  107OSM   H15T10963   4.981   3.413   9.460 -1.2693 -0.6557 -0.6184
  107OSM   C16S10964   5.033   3.303   9.274  0.4400  0.3952  0.0234
  107OSM   H16S10965   5.115   3.378   9.271 -0.7984  1.7538 -1.5253
  107OSM   H16T10966   4.945   3.332   9.214 -0.3610  0.1274  1.0419
  107OSM   C17S10967   5.079   3.171   9.231 -0.3271 -0.1695  0.3684
  107OSM   H17S10968   4.992   3.104   9.208 -0.5759 -0.3228  1.6649
  107OSM   H17T10969   5.126   3.110   9.311 -0.4226 -0.2031  0.3995
  107OSM   C18S10970   5.174   3.182   9.108  0.4123  0.5708  0.0868
  107OSM   H18S10971   5.273   3.230   9.125  1.2213 -0.0258 -2.4707
  107OSM   H18T10972   5.128   3.254   9.037 -0.5716 -0.9335 -0.8536
  107OSM   H18U10973   5.182   3.081   9.062  0.5917 -0.0997  1.5153
  107OSM    C1F10974   4.838   2.886  10.620 -0.4134  0.2079 -0.4856
  107OSM     OF10975   4.762   2.843  10.703  0.9866  0.3790  0.3211
  107OSM    C2F10976   4.885   2.801  10.502  0.0504  0.2316  0.4478
  107OSM    H2F10977   4.892   2.694  10.532 -1.3161  0.3538  1.2983
  107OSM    H2G10978   4.987   2.838  10.481  0.6769 -1.4493  0.3678
  107OSM    C3F10979   4.806   2.833  10.375 -0.3095  0.1426 -0.5575
  107OSM    H3F10980   4.822   2.940  10.350  1.6177  0.0599  0.1950
  107OSM    H3G10981   4.697   2.812  10.383 -0.8353  1.9647 -2.1906
  107OSM    C4F10982   4.865   2.753  10.260 -0.0485 -0.1303 -0.2106
  107OSM    H4F10983   4.827   2.650  10.277  1.2156 -0.3267  1.8669
  107OSM    H4G10984   4.976   2.744  10.261  0.1445  1.4733 -1.8257
  107OSM    C5F10985   4.798   2.821  10.140 -0.0990 -0.7221  0.8522
  107OSM    H5F10986   4.841   2.924  10.136 -0.5184 -0.5874 -1.1257
  107OSM    H5G10987   4.689   2.805  10.128 -0.2386 -1.1021  2.4063
  107OSM    C6F10988   4.851   2.762  10.010 -0.2270 -0.9461 -0.8223
  107OSM    H6F10989   4.834   2.652  10.008  1.7692 -1.3847  1.4424
  107OSM    H6G10990   4.962   2.755  10.012 -0.1976 -0.5488 -1.0148
  107OSM    C7F10991   4.794   2.833   9.888  0.1647  0.4831  0.0401
  107OSM    H7F10992   4.846   2.930   9.880  1.5519 -0.3082 -0.8860
  107OSM    H7G10993   4.686   2.842   9.914  0.0889 -1.4096  0.5873
  107OSM    C8F10994   4.809   2.745   9.763  0.4674 -0.5830 -0.4537
  107OSM    H8F10995   4.754   2.652   9.791 -0.6926  0.4006  0.6489
  107OSM    H8G10996   4.917   2.722   9.760  1.2624  1.9724  2.5976
  107OSM    C9F10997   4.760   2.823   9.640  0.5471 -0.2418 -0.0433
  107OSM    H9F10998   4.659   2.866   9.654 -1.0720 -3.9053  0.9113
  107OSM   C10F10999   4.814   2.837   9.519  0.6370  0.0758  0.1037
  107OSM   H10F11000   4.758   2.898   9.446 -0.8180  0.8998  1.8583
  107OSM   C11F11001   4.944   2.777   9.473  0.5345  0.2710 -0.4022
  107OSM   H11F11002   4.963   2.674   9.512  2.9645  0.1521 -1.6814
  107OSM   H11G11003   5.020   2.841   9.523 -0.2609 -1.1517  2.9049
  107OSM   C12F11004   4.955   2.778   9.316  0.0135 -1.1546 -0.3406
  107OSM   H12F11005   4.930   2.878   9.276  4.2585  0.3540  0.2171
  107OSM   H12G11006   4.885   2.703   9.272 -3.8230  0.8353  1.8939
  107OSM   C13F11007   5.101   2.765   9.262  0.1085  0.5292  0.1056
  107OSM   H13F11008   5.167   2.822   9.331  0.7704  1.9890 -1.6456
  107OSM   H13G11009   5.116   2.805   9.160 -0.3918 -0.8073 -0.5170
  107OSM   C14F11010   5.146   2.622   9.259 -0.2645  0.0095 -0.1239
  107OSM   H14F11011   5.083   2.563   9.190  0.8983  0.3695 -1.5537
  107OSM   H14G11012   5.142   2.585   9.363  0.3675  0.6372  0.1364
  107OSM   C15F11013   5.295   2.606   9.217 -0.0593 -0.5101  0.0807
  107OSM   H15F11014   5.327   2.502   9.240 -1.8630 -1.3320 -0.9252
  107OSM   H15G11015   5.363   2.677   9.269 -0.7737  0.0148  0.3087
  107OSM   C16F11016   5.304   2.634   9.068 -0.1892  0.4630 -0.0772
  107OSM   H16F11017   5.297   2.744   9.051  1.2537  0.5009 -0.5231
  107OSM   H16G11018   5.227   2.580   9.009  0.6961 -1.0471  0.1074
  107OSM   C17F11019   5.443   2.589   9.024 -0.6720 -0.6449 -0.2566
  107OSM   H17F11020   5.452   2.481   9.050 -0.7463 -0.9491 -1.4291
  107OSM   H17G11021   5.525   2.628   9.087 -1.4791 -1.1946  1.2070
  107OSM   C18F11022   5.458   2.596   8.873 -0.0896 -0.0861  0.4416
  107OSM   H18F11023   5.507   2.692   8.848  0.4805 -0.0323  1.6848
  107OSM   H18G11024   5.359   2.583   8.824 -0.7036  2.2242  0.9689
  107OSM   H18H11025   5.526   2.510   8.854 -0.0652 -0.2962  1.4414
  108OSM      N11026   2.431   5.694  11.111 -0.4140  0.5976 -0.1025
  108OSM    C1511027   2.529   5.806  11.140 -0.5225 -0.2298 -0.8091
  108OSM   H15A11028   2.519   5.887  11.068  1.9630  0.0643 -0.9428
  108OSM   H15B11029   2.630   5.767  11.135 -0.5982 -0.2809 -2.4826
  108OSM   H15C11030   2.512   5.840  11.241  0.4320 -1.8129 -0.0733
  108OSM    C1411031   2.476   5.581  11.196 -0.4209  0.2009  0.1306
  108OSM   H14A11032   2.470   5.604  11.301  1.1103 -1.0577  0.5298
  108OSM   H14B11033   2.583   5.568  11.188  0.2405  1.1566  4.7370
  108OSM   H14C11034   2.422   5.490  11.175  0.2912  0.2420 -2.0881
  108OSM    C1311035   2.294   5.736  11.162  0.1469  0.5599 -0.1611
  108OSM   H13A11036   2.280   5.717  11.267  1.0346  0.9222  0.0299
  108OSM   H13B11037   2.235   5.656  11.119 -0.1851  0.2006  0.9492
  108OSM   H13C11038   2.252   5.832  11.136 -4.0355 -1.8542 -3.7274
  108OSM    C1211039   2.435   5.666  10.963  0.3973  1.1529 -0.6866
  108OSM   H12A11040   2.534   5.658  10.921  0.4050  2.2067 -0.8932
  108OSM   H12B11041   2.378   5.746  10.920  0.3631 -0.1163 -3.1390
  108OSM    C1111042   2.358   5.535  10.918 -0.8738  0.3041 -0.1842
  108OSM   H11A11043   2.407   5.454  10.975 -1.6409  0.6931  1.0828
  108OSM   H11B11044   2.385   5.524  10.811  1.0262 -0.4981  0.3410
  108OSM      P11045   2.117   5.626  10.871 -0.2062 -0.0024 -0.1777
  108OSM    O1311046   1.983   5.612  10.936 -0.5493 -0.1284  0.6953
  108OSM    O1411047   2.170   5.763  10.864 -0.1107  0.1059 -0.0460
  108OSM    O1111048   2.108   5.553  10.733  0.8295  0.0561 -0.3549
  108OSM    O1211049   2.221   5.537  10.950  0.3067 -0.2300  0.4173
  108OSM    C1S11050   2.044   5.424  10.721 -0.4979 -0.9439 -0.0599
  108OSM    H1S11051   1.956   5.425  10.789  0.2781  0.3975  0.9794
  108OSM    H1T11052   2.117   5.352  10.763  2.6280  1.8052 -0.3422
  108OSM     NF11053   1.954   5.265  10.559  0.4585  0.1773  0.2104
  108OSM    HNF11054   2.008   5.187  10.530 -2.4747 -1.5131 -1.1576
  108OSM    C2S11055   2.016   5.400  10.569  0.2730  1.0337 -0.3451
  108OSM    H2S11056   1.938   5.470  10.533 -0.9214  0.3789  0.9120
  108OSM    C3S11057   2.145   5.409  10.477 -0.2815  0.3324 -0.0464
  108OSM    H3S11058   2.207   5.319  10.497 -0.6826 -0.3003 -1.5412
  108OSM     O311059   2.232   5.510  10.519  0.5809 -0.4325  0.5489
  108OSM    HO311060   2.203   5.533  10.607 -1.0851 -0.7822  0.1344
  108OSM    C4S11061   2.111   5.420  10.335 -0.0547 -0.6860  0.1528
  108OSM    H4S11062   2.105   5.523  10.295 -0.6114 -1.2009 -1.1426
  108OSM    C5S11063   2.074   5.315  10.270  0.7740  0.2365  0.3538
  108OSM    H5S11064   2.067   5.212  10.309 -2.4124 -0.8671 -2.5541
  108OSM    C6S11065   2.016   5.312  10.130  0.0322 -0.0632 -0.5114
  108OSM    H6S11066   1.914   5.270  10.139  0.3951 -0.5359  2.5534
  108OSM    H6T11067   2.071   5.232  10.076  2.5716  1.1398  0.1248
  108OSM    C7S11068   2.026   5.442  10.045  0.7144 -0.2432 -0.0788
  108OSM    H7S11069   2.122   5.496  10.061 -0.9015  2.7331  0.3106
  108OSM    H7T11070   1.954   5.513  10.091  1.8940 -0.7685  2.8541
  108OSM    C8S11071   1.985   5.427   9.903  1.2845 -0.4861 -0.1448
  108OSM    H8S11072   1.979   5.529   9.861  1.3496 -0.7262 -0.7503
  108OSM    H8T11073   1.880   5.388   9.902  0.2688  2.0482  0.5881
  108OSM    C9S11074   2.085   5.355   9.810 -0.0746 -0.1941 -0.4239
  108OSM    H9S11075   2.075   5.252   9.848 -0.4969  0.1831  0.5272
  108OSM    H9T11076   2.184   5.400   9.833 -0.2305  0.1678 -0.4414
  108OSM   C10S11077   2.031   5.361   9.667 -0.4078  0.9171 -0.0892
  108OSM   H10S11078   2.055   5.464   9.633  1.8137  0.2870 -0.6308
  108OSM   H10T11079   1.921   5.357   9.655 -0.2825  0.1432 -1.1661
  108OSM   C11S11080   2.104   5.264   9.574 -0.3276  1.0967 -0.8283
  108OSM   H11S11081   2.097   5.164   9.621  0.9814  1.5803  0.4893
  108OSM   H11T11082   2.207   5.302   9.588 -1.0710  2.0643  4.0061
  108OSM   C12S11083   2.054   5.266   9.431  0.2065  0.1507 -0.0241
  108OSM   H12S11084   2.031   5.367   9.391  1.0217  0.7128  0.9056
  108OSM   H12T11085   1.952   5.222   9.443 -0.0121  0.8082  0.5543
  108OSM   C13S11086   2.140   5.175   9.341 -0.4174 -0.6755 -0.0615
  108OSM   H13S11087   2.104   5.070   9.352  0.6055 -0.8466  2.0466
  108OSM   H13T11088   2.248   5.177   9.368  0.8322  0.4651 -4.2488
  108OSM   C14S11089   2.135   5.223   9.187 -0.5795 -0.2396 -0.0874
  108OSM   H14S11090   2.174   5.327   9.182  0.0171 -0.4951 -0.8185
  108OSM   H14T11091   2.027   5.222   9.158 -1.1701 -3.5260  1.6583
  108OSM   C15S11092   2.213   5.129   9.089 -0.5924 -0.0289  0.8591
  108OSM   H15S11093   2.163   5.032   9.106  0.5065 -0.4319  1.9077
  108OSM   H15T11094   2.321   5.106   9.106 -0.4213 -1.2616 -1.5025
  108OSM   C16S11095   2.205   5.179   8.933 -0.1166 -0.0058  0.0055
  108OSM   H16S11096   2.238   5.091   8.873 -0.3528  0.4789 -0.8595
  108OSM   H16T11097   2.272   5.267   8.920 -2.3430  1.5937 -1.3453
  108OSM   C17S11098   2.056   5.205   8.902  0.3882 -0.8122  0.1922
  108OSM   H17S11099   2.023   5.301   8.949  2.7811 -0.4348  1.2232
  108OSM   H17T11100   1.998   5.114   8.931 -0.1280 -0.5652 -0.0436
  108OSM   C18S11101   2.031   5.223   8.747  1.5588 -0.0060 -0.0119
  108OSM   H18S11102   2.036   5.329   8.713 -0.4543 -0.3581 -1.6241
  108OSM   H18T11103   1.926   5.193   8.727  1.6466 -0.9305  0.8066
  108OSM   H18U11104   2.104   5.157   8.696 -0.6648 -2.4604 -0.2230
  108OSM    C1F11105   1.824   5.244  10.586  0.4029  0.1345 -0.9017
  108OSM     OF11106   1.749   5.331  10.638  0.0289 -0.4160  0.7416
  108OSM    C2F11107   1.766   5.110  10.557 -0.3927 -0.9985  0.1354
  108OSM    H2F11108   1.714   5.066  10.645 -1.3037 -1.9822 -0.8545
  108OSM    H2G11109   1.840   5.036  10.520 -1.1340 -0.3565 -2.8631
  108OSM    C3F11110   1.655   5.118  10.448  0.4740 -0.4014  0.8146
  108OSM    H3F11111   1.565   5.169  10.487  0.4328  0.0485  0.1648
  108OSM    H3G11112   1.619   5.015  10.429 -1.6554  0.6857 -1.7786
  108OSM    C4F11113   1.687   5.184  10.309  0.8324  0.2837  0.3021
  108OSM    H4F11114   1.779   5.131  10.277  0.0212 -0.5597 -0.6898
  108OSM    H4G11115   1.721   5.290  10.310  0.5552  0.4066 -1.1882
  108OSM    C5F11116   1.571   5.164  10.213  0.5799 -0.2829  0.4944
  108OSM    H5F11117   1.497   5.240  10.244  0.2961 -0.1037 -0.5839
  108OSM    H5G11118   1.520   5.065  10.219 -0.1213  0.0244 -0.2938
  108OSM    C6F11119   1.622   5.184  10.072 -0.4315  0.2223  0.4369
  108OSM    H6F11120   1.723   5.137  10.062 -0.8414 -0.9624  1.5829
  108OSM    H6G11121   1.641   5.293  10.059 -1.4106  0.2162 -1.3516
  108OSM    C7F11122   1.526   5.138   9.955  0.3336  0.1110  0.0202
  108OSM    H7F11123   1.420   5.158   9.983 -0.6345 -1.1174 -2.4138
  108OSM    H7G11124   1.530   5.028   9.946  1.3496  0.1505 -0.0903
  108OSM    C8F11125   1.559   5.201   9.812  0.3008 -0.0747 -0.2221
  108OSM    H8F11126   1.525   5.306   9.804  0.1031 -0.2698 -2.4825
  108OSM    H8G11127   1.489   5.140   9.751  1.7403 -1.1768 -0.8409
  108OSM    C9F11128   1.699   5.177   9.747  0.0274 -0.0530  0.2245
  108OSM    H9F11129   1.787   5.218   9.798  2.2274  1.3346 -4.1189
  108OSM   C10F11130   1.724   5.103   9.632  0.0731 -1.4107 -0.2235
  108OSM   H10F11131   1.828   5.097   9.596 -0.0646  1.5868 -1.4882
  108OSM   C11F11132   1.632   5.038   9.540  0.1496 -1.0112  0.0143
  108OSM   H11F11133   1.524   5.040   9.565 -0.2062 -0.6121 -1.4682
  108OSM   H11G11134   1.654   4.929   9.541  3.1634 -0.5025  1.7576
  108OSM   C12F11135   1.641   5.086   9.394 -0.2292 -0.6669  0.1808
  108OSM   H12F11136   1.741   5.101   9.348 -0.0851 -1.5250  0.2028
  108OSM   H12G11137   1.592   5.185   9.385 -0.6350 -1.0471 -3.0250
  108OSM   C13F11138   1.579   4.990   9.288 -0.1632 -0.3520 -0.9044
  108OSM   H13F11139   1.483   4.954   9.329  0.3053  0.5578  1.1314
  108OSM   H13G11140   1.646   4.905   9.261 -0.4883 -0.4861 -1.3000
  108OSM   C14F11141   1.548   5.068   9.156 -0.1193 -0.2207 -0.0876
  108OSM   H14F11142   1.642   5.121   9.130 -1.6246  1.8457 -1.6005
  108OSM   H14G11143   1.474   5.143   9.190  0.4395 -0.6411  2.2993
  108OSM   C15F11144   1.480   4.987   9.046 -0.1227  0.2124 -0.1730
  108OSM   H15F11145   1.556   4.922   8.999 -1.1744 -2.2649  1.3395
  108OSM   H15G11146   1.452   5.057   8.965  0.2323  1.4537  0.7397
  108OSM   C16F11147   1.359   4.910   9.093  0.0350 -0.5510 -0.1103
  108OSM   H16F11148   1.307   4.941   9.185  0.0804 -0.3787 -0.1418
  108OSM   H16G11149   1.377   4.802   9.111 -2.4506 -0.8039  1.1091
  108OSM   C17F11150   1.252   4.912   8.985 -0.5268  0.1993  0.3540
  108OSM   H17F11151   1.308   4.876   8.896  1.5148 -0.9637  2.0048
  108OSM   H17G11152   1.224   5.017   8.966  0.4186  0.3497 -0.2544
  108OSM   C18F11153   1.131   4.832   9.015  0.0741  0.1490  0.0446
  108OSM   H18F11154   1.065   4.899   9.073 -0.6360 -0.9753  0.5697
  108OSM   H18G11155   1.135   4.754   9.093 -0.5587 -1.3495 -1.3606
  108OSM   H18H11156   1.074   4.790   8.929  0.7860  3.5665 -2.3011
  109OSM      N11157   0.528   2.517  11.365 -0.0228  0.4373  0.0229
  109OSM    C1511158   0.498   2.378  11.353  0.0564  0.5280 -0.1155
  109OSM   H15A11159   0.548   2.324  11.431 -2.7019 -0.9501  0.7724
  109OSM   H15B11160   0.510   2.340  11.252  0.9733 -1.9638  0.8674
  109OSM   H15C11161   0.395   2.350  11.373  0.3110 -0.3393 -0.0083
  109OSM    C1411162   0.485   2.559  11.505  0.5740 -0.1305  0.2719
  109OSM   H14A11163   0.527   2.498  11.583 -0.8531 -4.3386 -1.9155
  109OSM   H14B11164   0.378   2.570  11.514  0.6332  2.1182 -0.8761
  109OSM   H14C11165   0.523   2.659  11.523 -0.2239  0.7076 -2.1912
  109OSM    C1311166   0.675   2.539  11.339 -0.3947 -0.5622 -0.5034
  109OSM   H13A11167   0.694   2.645  11.345  0.3849 -0.7677  1.9266
  109OSM   H13B11168   0.703   2.503  11.241 -1.3383 -1.2647 -0.5257
  109OSM   H13C11169   0.726   2.487  11.419 -2.6037 -0.4731  1.0370
  109OSM    C1211170   0.449   2.592  11.254 -0.1057 -0.2360 -0.3024
  109OSM   H12A11171   0.490   2.565  11.158 -0.3428  0.8468 -0.7256
  109OSM   H12B11172   0.462   2.699  11.265  1.1447 -0.1060 -2.5130
  109OSM    C1111173   0.294   2.568  11.251 -0.9010  0.0122  0.0575
  109OSM   H11A11174   0.237   2.647  11.197 -2.5828 -0.7679  0.6276
  109OSM   H11B11175   0.249   2.581  11.351 -0.5328 -0.3916  0.2776
  109OSM      P11176   0.300   2.391  11.065 -0.2203 -0.4647  0.0698
  109OSM    O1311177   0.384   2.269  11.079 -0.1967 -0.1688  0.0867
  109OSM    O1411178   0.176   2.370  10.985  0.1731 -0.5706 -0.1661
  109OSM    O1111179   0.387   2.510  10.998 -0.0865 -0.4186  0.2297
  109OSM    O1211180   0.257   2.437  11.209 -0.4244 -0.5542  1.7793
  109OSM    C1S11181   0.485   2.481  10.895 -0.0682 -0.5140 -0.6563
  109OSM    H1S11182   0.497   2.373  10.873 -3.5638 -0.9787 -0.7345
  109OSM    H1T11183   0.584   2.517  10.933 -0.4822 -0.8948  0.8638
  109OSM     NF11184   0.586   2.577  10.694 -0.5023  0.1622  0.0024
  109OSM    HNF11185   0.621   2.669  10.708 -2.0763  0.8158 -0.1616
  109OSM    C2S11186   0.460   2.567  10.765 -0.5775  0.6669  0.6539
  109OSM    H2S11187   0.399   2.505  10.695  0.6522  0.3664 -0.1980
  109OSM    C3S11188   0.382   2.702  10.790 -0.2159  0.0676  0.4115
  109OSM    H3S11189   0.438   2.761  10.865 -0.9280 -0.3950  1.3170
  109OSM     O311190   0.251   2.679  10.846 -0.4708 -0.3392 -0.5149
  109OSM    HO311191   0.256   2.598  10.897 -0.8839  0.1611  0.3370
  109OSM    C4S11192   0.380   2.787  10.666  0.6637  0.3642  0.1551
  109OSM    H4S11193   0.422   2.886  10.687  2.2642  0.0460 -1.3573
  109OSM    C5S11194   0.313   2.753  10.554  0.2853  1.1370 -0.8396
  109OSM    H5S11195   0.247   2.665  10.549  0.9398  0.5798  0.0695
  109OSM    C6S11196   0.306   2.840  10.427 -0.1228  0.4583 -0.3384
  109OSM    H6S11197   0.309   2.948  10.453 -2.3898  0.4312  0.3021
  109OSM    H6T11198   0.211   2.827  10.371  0.9512 -2.4090 -1.6340
  109OSM    C7S11199   0.421   2.812  10.330 -0.1207 -0.4716 -0.5622
  109OSM    H7S11200   0.428   2.703  10.312 -0.6738 -1.1052  2.5066
  109OSM    H7T11201   0.521   2.832  10.374  0.0185 -1.0666 -0.6075
  109OSM    C8S11202   0.413   2.898  10.201 -1.5176  0.2617  0.3778
  109OSM    H8S11203   0.452   2.999  10.222 -1.8297  0.7035 -1.0887
  109OSM    H8T11204   0.306   2.901  10.171 -1.3474 -0.6523 -0.3863
  109OSM    C9S11205   0.487   2.854  10.073 -0.5818  0.1398 -0.2172
  109OSM    H9S11206   0.471   2.744  10.064 -0.3475  0.1403 -0.6279
  109OSM    H9T11207   0.597   2.862  10.077 -0.3643 -1.9583 -0.9799
  109OSM   C10S11208   0.457   2.941   9.957 -0.1156 -0.2493 -0.3912
  109OSM   H10S11209   0.473   3.049   9.979 -1.1201 -0.3341  0.8460
  109OSM   H10T11210   0.349   2.930   9.938 -0.6297 -1.1340  2.4851
  109OSM   C11S11211   0.529   2.898   9.823 -0.4777  0.0961 -0.4711
  109OSM   H11S11212   0.519   2.788   9.813 -2.7653 -0.1170  2.7759
  109OSM   H11T11213   0.639   2.916   9.828 -0.2716 -0.7577 -1.4992
  109OSM   C12S11214   0.470   2.991   9.714  0.4099  0.6520  0.3632
  109OSM   H12S11215   0.469   3.096   9.750 -2.0555  1.1470 -0.9221
  109OSM   H12T11216   0.368   2.948   9.705  0.3916  0.7814 -0.0593
  109OSM   C13S11217   0.539   3.003   9.579 -0.2729  0.7369  0.2558
  109OSM   H13S11218   0.542   2.902   9.532 -0.2337  0.9783 -0.2687
  109OSM   H13T11219   0.644   3.039   9.590  0.1277 -0.1952 -0.3488
  109OSM   C14S11220   0.465   3.087   9.479  0.0663 -0.1876 -0.1523
  109OSM   H14S11221   0.498   3.192   9.494  3.8634 -0.8863 -2.3717
  109OSM   H14T11222   0.357   3.083   9.504  0.6317 -1.2311  2.5168
  109OSM   C15S11223   0.488   3.041   9.336  0.1960  0.1146  0.1163
  109OSM   H15S11224   0.422   3.094   9.264 -0.2861 -0.1438  0.3642
  109OSM   H15T11225   0.474   2.931   9.337 -0.7493  0.2146 -0.7661
  109OSM   C16S11226   0.634   3.070   9.292 -0.1301 -0.1816 -0.5154
  109OSM   H16S11227   0.702   3.024   9.368  2.1158  0.7045 -1.8961
  109OSM   H16T11228   0.640   3.181   9.289  2.7173 -0.0924  2.5305
  109OSM   C17S11229   0.670   3.025   9.152 -0.2081 -0.9146 -0.3271
  109OSM   H17S11230   0.604   3.076   9.078 -0.4599  0.2180  0.6471
  109OSM   H17T11231   0.659   2.915   9.146 -2.5314 -0.7924  0.6137
  109OSM   C18S11232   0.820   3.055   9.123 -0.4071 -0.0133 -0.1690
  109OSM   H18S11233   0.878   2.990   9.191 -0.7228  0.0903  0.2008
  109OSM   H18T11234   0.844   3.162   9.142 -1.3262 -0.0977  1.6357
  109OSM   H18U11235   0.838   3.028   9.016 -0.3061  0.2774 -0.2265
  109OSM    C1F11236   0.655   2.471  10.639  0.3724  0.6811  0.0643
  109OSM     OF11237   0.609   2.355  10.655 -0.4635  0.0808 -0.1854
  109OSM    C2F11238   0.773   2.504  10.557 -0.2763  0.3844  0.6672
  109OSM    H2F11239   0.821   2.411  10.520 -1.9541  0.7167 -2.7171
  109OSM    H2G11240   0.854   2.551  10.617  0.7828  0.8623 -1.0453
  109OSM    C3F11241   0.729   2.583  10.428  0.1364  0.1968 -0.3990
  109OSM    H3F11242   0.687   2.680  10.462 -3.1384 -1.1641 -0.2043
  109OSM    H3G11243   0.640   2.531  10.389  0.6831 -0.3428 -0.9590
  109OSM    C4F11244   0.843   2.603  10.328  0.2676  0.0117  0.6337
  109OSM    H4F11245   0.892   2.507  10.300  2.2704  1.2684 -0.4609
  109OSM    H4G11246   0.920   2.664  10.380  0.4895  0.3630 -0.0952
  109OSM    C5F11247   0.805   2.681  10.197  0.2724 -0.3629 -0.4993
  109OSM    H5F11248   0.799   2.785  10.233  0.1530 -0.2180 -0.9254
  109OSM    H5G11249   0.710   2.644  10.152 -0.4322 -0.3089  0.9196
  109OSM    C6F11250   0.909   2.678  10.080 -0.3731  0.7115 -0.6115
  109OSM    H6F11251   0.922   2.574  10.041 -1.2963  0.5779 -0.5900
  109OSM    H6G11252   1.011   2.710  10.112 -0.3500  0.8473 -0.8196
  109OSM    C7F11253   0.849   2.763   9.968 -0.1806  0.3717  0.4461
  109OSM    H7F11254   0.834   2.868  10.003  1.0779  1.3158 -1.6358
  109OSM    H7G11255   0.758   2.713   9.931  0.3660  0.7948 -1.6229
  109OSM    C8F11256   0.944   2.773   9.844  0.3320  0.7076 -0.3712
  109OSM    H8F11257   0.947   2.665   9.819 -1.8465  0.1525  1.4907
  109OSM    H8G11258   1.039   2.813   9.886 -0.4920  2.6291 -0.2178
  109OSM    C9F11259   0.879   2.861   9.735 -0.3604 -0.5879  0.8882
  109OSM    H9F11260   0.889   2.970   9.748  2.0748 -0.6359 -0.0495
  109OSM   C10F11261   0.834   2.819   9.610 -0.1042  0.7362 -0.7366
  109OSM   H10F11262   0.797   2.899   9.544  0.6028 -0.5690 -2.7896
  109OSM   C11F11263   0.827   2.682   9.556 -0.1532  0.8597  0.2958
  109OSM   H11F11264   0.736   2.659   9.497 -0.8755 -1.9589  2.2600
  109OSM   H11G11265   0.834   2.607   9.638  0.9129 -1.0083 -1.4015
  109OSM   C12F11266   0.944   2.630   9.480 -0.2487  0.1158  0.7509
  109OSM   H12F11267   0.942   2.523   9.448 -2.0548 -0.2140  1.8562
  109OSM   H12G11268   1.034   2.627   9.545  1.5577 -0.7581 -1.6186
  109OSM   C13F11269   0.971   2.711   9.352  0.0279  0.4493  0.3397
  109OSM   H13F11270   1.079   2.696   9.332  0.2256 -1.7196  2.5749
  109OSM   H13G11271   0.946   2.818   9.366  1.6251  1.4169 -3.1667
  109OSM   C14F11272   0.884   2.665   9.233 -0.0219 -0.3647  0.1297
  109OSM   H14F11273   0.782   2.687   9.270 -0.2645  1.1320 -1.3187
  109OSM   H14G11274   0.889   2.554   9.239  2.1175 -0.2961  0.6364
  109OSM   C15F11275   0.920   2.723   9.098  0.0771 -0.2279  0.3097
  109OSM   H15F11276   0.994   2.803   9.119  0.1329 -0.6223  1.6924
  109OSM   H15G11277   0.830   2.773   9.056  1.5078  2.7898  0.5743
  109OSM   C16F11278   0.969   2.614   9.003 -0.3485  0.2080 -0.8493
  109OSM   H16F11279   1.032   2.547   9.064  0.9550  0.3245 -2.0160
  109OSM   H16G11280   1.029   2.665   8.925 -0.6910 -1.8901 -2.5975
  109OSM   C17F11281   0.863   2.543   8.917 -0.7044  0.2334 -0.1770
  109OSM   H17F11282   0.792   2.610   8.865 -2.2311 -0.7577  0.5351
  109OSM   H17G11283   0.790   2.490   8.983 -1.1174 -0.2195 -0.9833
  109OSM   C18F11284   0.922   2.439   8.823 -0.5340  0.6152 -0.2129
  109OSM   H18F11285   0.997   2.477   8.750 -0.0110 -1.4695 -0.8327
  109OSM   H18G11286   0.849   2.379   8.765  0.3220 -1.6404  0.9253
  109OSM   H18H11287   0.989   2.370   8.880 -0.8618  1.8085  1.7227
  110OSM      N11288   3.770   4.460  11.702 -0.6177  0.5029 -0.0530
  110OSM    C1511289   3.755   4.336  11.787  0.3724 -0.2244  0.0514
  110OSM   H15A11290   3.849   4.313  11.835  1.3133  3.0140  0.0171
  110OSM   H15B11291   3.709   4.258  11.728 -1.4050  1.1925 -0.5488
  110OSM   H15C11292   3.698   4.364  11.874  1.6327 -0.9032  1.1282
  110OSM    C1411293   3.633   4.515  11.665 -0.1576 -0.1007 -0.3761
  110OSM   H14A11294   3.567   4.541  11.746 -2.7842  0.6544 -2.6129
  110OSM   H14B11295   3.572   4.440  11.617  1.6148 -1.7457 -0.1393
  110OSM   H14C11296   3.644   4.602  11.601  2.2530  0.3362  0.5409
  110OSM    C1311297   3.829   4.556  11.797  0.1629  0.5259 -0.0799
  110OSM   H13A11298   3.848   4.650  11.747 -1.5295  0.5802 -0.6776
  110OSM   H13B11299   3.928   4.525  11.828  0.2514  0.0141 -0.8278
  110OSM   H13C11300   3.768   4.572  11.884 -0.6241 -1.9045 -0.1192
  110OSM    C1211301   3.851   4.425  11.583  0.0324  0.2403 -0.1272
  110OSM   H12A11302   3.793   4.343  11.544 -0.1059  0.1466  0.2756
  110OSM   H12B11303   3.942   4.378  11.616 -0.2438 -0.6610 -0.6145
  110OSM    C1111304   3.888   4.528  11.478 -0.0062  0.1116  0.0958
  110OSM   H11A11305   3.967   4.481  11.415  0.5496 -1.3020  1.7861
  110OSM   H11B11306   3.932   4.618  11.525 -1.8882  1.5491 -0.7218
  110OSM      P11307   3.786   4.697  11.305 -0.2699 -0.2806 -0.2162
  110OSM    O1311308   3.650   4.727  11.256 -0.2693  0.6524  0.2309
  110OSM    O1411309   3.865   4.808  11.361  0.1755 -0.4379  0.0755
  110OSM    O1111310   3.859   4.626  11.189 -0.8163  0.1993  0.2124
  110OSM    O1211311   3.773   4.573  11.402 -0.3995  0.3405 -0.1952
  110OSM    C1S11312   3.821   4.503  11.119 -0.5306 -0.0945 -0.2132
  110OSM    H1S11313   3.726   4.471  11.168  0.5878 -0.4212  1.8609
  110OSM    H1T11314   3.896   4.421  11.126 -1.3081 -0.7069  1.6944
  110OSM     NF11315   3.740   4.389  10.918 -0.1496 -0.6155 -0.3930
  110OSM    HNF11316   3.808   4.333  10.871  0.3732  1.0303 -1.6924
  110OSM    C2S11317   3.782   4.521  10.970 -0.0111  0.3298  0.3459
  110OSM    H2S11318   3.697   4.592  10.971 -1.3015 -1.1111 -1.0697
  110OSM    C3S11319   3.904   4.584  10.898  0.1479 -0.4940  0.2614
  110OSM    H3S11320   3.987   4.511  10.910 -1.1804 -2.0998 -0.0921
  110OSM     O311321   3.943   4.710  10.951  0.6434 -0.3231 -0.3114
  110OSM    HO311322   3.901   4.709  11.037 -0.1261  2.9038 -0.5168
  110OSM    C4S11323   3.876   4.596  10.754 -0.3669  0.0835 -1.0807
  110OSM    H4S11324   3.938   4.527  10.695 -1.6080 -1.9006 -0.1543
  110OSM    C5S11325   3.780   4.675  10.702 -0.3132  0.1999 -1.1504
  110OSM    H5S11326   3.739   4.750  10.771 -1.7781 -1.2125 -0.4354
  110OSM    C6S11327   3.745   4.694  10.558  0.1809  0.2074 -0.2724
  110OSM    H6S11328   3.744   4.801  10.529  1.7460  0.3128 -0.0151
  110OSM    H6T11329   3.642   4.658  10.534  0.5060  0.0284 -1.4554
  110OSM    C7S11330   3.841   4.628  10.450 -0.0226 -0.3035 -0.8111
  110OSM    H7S11331   3.829   4.517  10.453  3.9248 -0.9069 -1.8071
  110OSM    H7T11332   3.943   4.663  10.478 -0.3674  0.2852 -0.2710
  110OSM    C8S11333   3.831   4.680  10.308 -0.0116 -0.5098  0.0161
  110OSM    H8S11334   3.927   4.725  10.276 -0.0027 -0.5188  0.0309
  110OSM    H8T11335   3.763   4.768  10.300 -1.8293 -1.8042  0.4664
  110OSM    C9S11336   3.788   4.582  10.192 -0.0700 -0.7772 -0.3025
  110OSM    H9S11337   3.682   4.551  10.205 -0.1254 -0.8381 -0.8675
  110OSM    H9T11338   3.852   4.495  10.219  1.0744  0.7446  2.1940
  110OSM   C10S11339   3.817   4.645  10.058 -0.4837 -0.0532  0.0842
  110OSM   H10S11340   3.910   4.705  10.055 -0.3262 -0.0977  2.3090
  110OSM   H10T11341   3.735   4.719  10.049 -0.7242 -0.1329  1.3514
  110OSM   C11S11342   3.805   4.565   9.927 -0.4939 -0.0305  0.4445
  110OSM   H11S11343   3.700   4.528   9.916  0.3281 -2.0118 -1.4672
  110OSM   H11T11344   3.865   4.472   9.924 -3.1245 -1.9694 -5.0709
  110OSM   C12S11345   3.830   4.651   9.798 -0.3215  0.1916 -0.3000
  110OSM   H12S11346   3.931   4.697   9.798  0.3875 -1.3124 -1.0959
  110OSM   H12T11347   3.762   4.738   9.812 -0.2400  0.8212 -3.2389
  110OSM   C13S11348   3.800   4.584   9.671 -0.0738  0.0829  0.0221
  110OSM   H13S11349   3.707   4.525   9.687  0.2977 -0.7641 -0.8196
  110OSM   H13T11350   3.883   4.513   9.648 -0.6244  0.1037 -2.2379
  110OSM   C14S11351   3.785   4.703   9.571 -0.3842 -0.0373 -0.4034
  110OSM   H14S11352   3.856   4.784   9.597 -1.4222  1.0005 -0.7028
  110OSM   H14T11353   3.691   4.760   9.587  0.4631  0.9143  1.5850
  110OSM   C15S11354   3.793   4.654   9.424  0.2383  0.5555 -0.2623
  110OSM   H15S11355   3.795   4.741   9.354 -0.2057  2.0753  1.5373
  110OSM   H15T11356   3.704   4.590   9.406 -0.3338  1.3134 -0.1535
  110OSM   C16S11357   3.919   4.569   9.391 -0.0959  0.3022 -0.2654
  110OSM   H16S11358   3.925   4.474   9.448 -1.3951  1.3428  1.7655
  110OSM   H16T11359   4.012   4.620   9.425  1.4306 -0.6805 -2.7442
  110OSM   C17S11360   3.940   4.529   9.242 -0.2450 -0.2887  0.4371
  110OSM   H17S11361   3.854   4.466   9.213  0.3881 -1.1892  0.4595
  110OSM   H17T11362   4.028   4.463   9.223 -0.9135 -0.7302 -1.3660
  110OSM   C18S11363   3.951   4.645   9.141 -0.6503 -0.1543 -0.0013
  110OSM   H18S11364   4.037   4.713   9.163 -0.2675 -1.0077  1.3304
  110OSM   H18T11365   3.852   4.690   9.122 -1.0997 -0.8721  0.6041
  110OSM   H18U11366   3.974   4.604   9.041 -2.3559  0.3505 -0.6341
  110OSM    C1F11367   3.614   4.361  10.940  0.5407  0.4582 -0.8109
  110OSM     OF11368   3.542   4.427  11.015 -0.3951  0.2105 -0.1448
  110OSM    C2F11369   3.564   4.234  10.880  0.2294 -0.7092 -0.3114
  110OSM    H2F11370   3.595   4.160  10.957  2.7883  2.4446  2.0167
  110OSM    H2G11371   3.617   4.209  10.786 -2.3401 -1.2379 -1.6950
  110OSM    C3F11372   3.409   4.244  10.864 -0.2777  0.4339  0.0015
  110OSM    H3F11373   3.367   4.271  10.964  0.5772 -3.4962  1.6002
  110OSM    H3G11374   3.367   4.145  10.836  3.4067 -1.7570  1.5512
  110OSM    C4F11375   3.368   4.342  10.756  0.4976 -0.4500  0.4740
  110OSM    H4F11376   3.365   4.444  10.800  1.2852  0.0047 -0.4738
  110OSM    H4G11377   3.262   4.316  10.734  0.1973  2.8332 -3.2337
  110OSM    C5F11378   3.452   4.342  10.625 -0.2143  0.7845 -0.0202
  110OSM    H5F11379   3.467   4.240  10.583 -0.3361  1.4452 -1.7063
  110OSM    H5G11380   3.550   4.376  10.665 -0.1090  0.0249  0.3933
  110OSM    C6F11381   3.385   4.434  10.524  0.3194 -0.2909  0.0055
  110OSM    H6F11382   3.388   4.538  10.561 -0.4357  0.0384 -0.8136
  110OSM    H6G11383   3.278   4.406  10.525  0.0247  0.6190  3.3226
  110OSM    C7F11384   3.424   4.428  10.375 -0.3712  0.7916  0.5679
  110OSM    H7F11385   3.420   4.321  10.346 -2.2143  1.2678 -1.1201
  110OSM    H7G11386   3.521   4.479  10.353 -2.8987  4.8231 -2.7457
  110OSM    C8F11387   3.317   4.502  10.292 -0.0181  0.2971  0.1103
  110OSM    H8F11388   3.312   4.607  10.329  0.6281  1.0392 -1.7797
  110OSM    H8G11389   3.223   4.449  10.320 -0.2555  0.0417 -1.1273
  110OSM    C9F11390   3.345   4.505  10.148 -0.3390  0.4550  0.2596
  110OSM    H9F11391   3.442   4.547  10.118 -0.6999  0.1188 -1.4541
  110OSM   C10F11392   3.270   4.474  10.045  0.2041 -0.2226  0.0405
  110OSM   H10F11393   3.312   4.497   9.946  1.8289 -0.9782  0.5145
  110OSM   C11F11394   3.125   4.430  10.047 -0.3317 -0.0946 -0.1736
  110OSM   H11F11395   3.086   4.394  10.145 -1.0932  0.3995 -0.2829
  110OSM   H11G11396   3.105   4.353   9.970 -0.4549 -1.7186  1.4189
  110OSM   C12F11397   3.026   4.540  10.009 -0.5035  0.1166  0.1874
  110OSM   H12F11398   3.058   4.627  10.069  0.8793  0.1149 -0.4955
  110OSM   H12G11399   2.925   4.520  10.050 -0.3273 -0.3435  0.4168
  110OSM   C13F11400   2.997   4.559   9.863 -0.8133 -0.1817 -0.5474
  110OSM   H13F11401   3.084   4.530   9.801 -0.5706  0.4336 -0.4973
  110OSM   H13G11402   2.962   4.663   9.850 -0.4568 -0.1666 -1.4249
  110OSM   C14F11403   2.886   4.465   9.801 -0.8324  0.5754 -0.0692
  110OSM   H14F11404   2.801   4.464   9.872  0.9958 -0.3545  2.2571
  110OSM   H14G11405   2.927   4.362   9.792  0.1849  1.0235 -0.8393
  110OSM   C15F11406   2.842   4.518   9.662 -0.2446 -0.2048 -0.1513
  110OSM   H15F11407   2.929   4.521   9.593 -0.0679  0.4657  0.0935
  110OSM   H15G11408   2.807   4.623   9.673 -0.6845 -0.2735 -0.7837
  110OSM   C16F11409   2.714   4.445   9.605 -0.1175  0.0078 -0.0135
  110OSM   H16F11410   2.630   4.458   9.676 -1.2057  0.7962 -1.3995
  110OSM   H16G11411   2.737   4.337   9.597 -1.1149 -0.2296  0.2022
  110OSM   C17F11412   2.676   4.490   9.467  0.0612  0.1268 -0.0165
  110OSM   H17F11413   2.758   4.532   9.405  2.1746 -0.7898  1.9916
  110OSM   H17G11414   2.623   4.584   9.491  1.4450  0.6364  1.2335
  110OSM   C18F11415   2.581   4.405   9.381  0.5649 -0.1985 -0.0984
  110OSM   H18F11416   2.553   4.469   9.294 -0.7224 -0.8660 -0.2074
  110OSM   H18G11417   2.484   4.374   9.426  0.2593 -1.9394 -1.8364
  110OSM   H18H11418   2.639   4.315   9.352 -3.3091 -3.5957  1.6601
  111OSM      N11419   1.364   2.106  11.040  0.1717  0.0020 -0.3152
  111OSM    C1511420   1.288   2.017  10.940 -0.3269 -0.5547 -0.8323
  111OSM   H15A11421   1.261   1.925  10.990  1.0811 -1.0552 -0.9482
  111OSM   H15B11422   1.350   1.984  10.858  2.3020  0.1024  0.7431
  111OSM   H15C11423   1.188   2.041  10.908 -0.6936 -3.0796 -1.7787
  111OSM    C1411424   1.434   2.211  10.963  0.8874  0.4628 -0.4120
  111OSM   H14A11425   1.373   2.282  10.908  2.8048  2.1947 -0.4199
  111OSM   H14B11426   1.498   2.157  10.894 -1.7442 -1.3783 -1.5705
  111OSM   H14C11427   1.495   2.281  11.018 -1.6531  1.1667  1.6860
  111OSM    C1311428   1.273   2.169  11.139  0.2332 -0.2782 -0.4560
  111OSM   H13A11429   1.207   2.244  11.098 -0.8822 -1.8693 -1.6697
  111OSM   H13B11430   1.325   2.207  11.227  0.5301 -1.6406 -0.0180
  111OSM   H13C11431   1.200   2.098  11.175 -0.6076  0.6542 -0.2911
  111OSM    C1211432   1.465   2.020  11.117  0.0937  0.1625 -0.2902
  111OSM   H12A11433   1.418   1.951  11.186  3.5132 -1.2995  0.8408
  111OSM   H12B11434   1.517   2.083  11.188 -1.3252 -0.3458  1.2671
  111OSM    C1111435   1.558   1.934  11.031 -0.4584  0.0050  0.0486
  111OSM   H11A11436   1.499   1.869  10.963 -0.4204 -0.7045  0.6758
  111OSM   H11B11437   1.612   1.863  11.097  0.3260  0.5023 -0.0339
  111OSM      P11438   1.780   2.068  11.061 -0.2780 -0.6007  0.6274
  111OSM    O1311439   1.814   2.202  11.013 -0.3246 -0.3305  0.1418
  111OSM    O1411440   1.748   2.051  11.204 -0.0711  0.5738 -0.4244
  111OSM    O1111441   1.912   1.970  11.036 -0.0302  0.1655  0.2882
  111OSM    O1211442   1.660   2.016  10.962  0.2849 -0.6118 -0.1548
  111OSM    C1S11443   1.942   1.935  10.898 -0.3453  0.2184  0.6521
  111OSM    H1S11444   1.849   1.921  10.838 -0.8887 -1.3529  1.8110
  111OSM    H1T11445   1.981   1.831  10.899 -3.9122 -1.2884 -0.0146
  111OSM     NF11446   2.047   1.992  10.682  0.2791  0.4422  0.0022
  111OSM    HNF11447   2.137   1.967  10.647 -0.8178  0.5823 -3.2970
  111OSM    C2S11448   2.030   2.038  10.822 -0.9222 -0.1888  0.9140
  111OSM    H2S11449   1.982   2.138  10.831  1.7216  1.4164 -1.4076
  111OSM    C3S11450   2.170   2.050  10.889 -0.6672 -0.3552 -0.2023
  111OSM    H3S11451   2.218   1.951  10.878 -2.2732 -1.2407  0.4414
  111OSM     O311452   2.158   2.065  11.026 -0.2243  0.3053 -0.2245
  111OSM    HO311453   2.078   2.021  11.056 -0.2195  0.6420  0.2996
  111OSM    C4S11454   2.255   2.161  10.840 -0.5850 -0.1047  0.0467
  111OSM    H4S11455   2.251   2.253  10.900 -0.4548 -1.1625  1.7554
  111OSM    C5S11456   2.344   2.154  10.731  0.1085  0.0147 -0.6781
  111OSM    H5S11457   2.352   2.063  10.671  0.7751  1.3844 -2.7848
  111OSM    C6S11458   2.418   2.280  10.684  0.1682  0.5555  0.0889
  111OSM    H6S11459   2.525   2.279  10.713  0.6546  0.9031 -1.5532
  111OSM    H6T11460   2.370   2.367  10.734 -2.3156 -1.1428  0.8389
  111OSM    C7S11461   2.410   2.291  10.537 -0.2420 -0.6381  0.0155
  111OSM    H7S11462   2.450   2.388  10.499 -0.9230 -0.5260 -0.4327
  111OSM    H7T11463   2.303   2.291  10.506  0.0764  0.8366 -1.2186
  111OSM    C8S11464   2.480   2.180  10.453  0.2827 -0.8376  0.0962
  111OSM    H8S11465   2.468   2.078  10.496  0.0667 -1.0281 -0.4110
  111OSM    H8T11466   2.591   2.190  10.456  0.2133 -0.0520  0.3030
  111OSM    C9S11467   2.436   2.179  10.307  0.2968 -0.0045 -0.6986
  111OSM    H9S11468   2.325   2.167  10.313  0.1906  1.3568  0.6587
  111OSM    H9T11469   2.479   2.086  10.265 -1.0827 -0.3833 -1.3383
  111OSM   C10S11470   2.470   2.298  10.223 -0.3888 -0.4190  0.6090
  111OSM   H10S11471   2.573   2.334  10.243 -0.8124  1.1675  0.1225
  111OSM   H10T11472   2.412   2.389  10.251 -0.0585  0.9207 -2.6323
  111OSM   C11S11473   2.443   2.259  10.073 -0.3802 -0.2490 -0.7680
  111OSM   H11S11474   2.338   2.224  10.078 -0.6267  0.5393 -0.2867
  111OSM   H11T11475   2.515   2.177  10.049 -1.6372 -1.1713 -1.5230
  111OSM   C12S11476   2.451   2.382   9.981  0.2103  0.2691  0.4888
  111OSM   H12S11477   2.544   2.441   9.998  0.6476 -0.2531 -0.0186
  111OSM   H12T11478   2.358   2.441   9.998  0.6266  2.1205 -2.7027
  111OSM   C13S11479   2.445   2.335   9.833 -0.3147  0.3740  0.3829
  111OSM   H13S11480   2.348   2.284   9.815 -0.6550  0.6430  1.3770
  111OSM   H13T11481   2.530   2.265   9.817  0.5215  1.5674 -0.5642
  111OSM   C14S11482   2.435   2.458   9.733 -0.3861  0.4436 -0.3244
  111OSM   H14S11483   2.528   2.517   9.744  1.3147 -1.4810 -3.2161
  111OSM   H14T11484   2.338   2.512   9.739 -2.0641 -2.4353  0.4130
  111OSM   C15S11485   2.460   2.415   9.586  1.0520 -0.1524  0.2050
  111OSM   H15S11486   2.378   2.347   9.553  0.2607 -0.6390  2.9814
  111OSM   H15T11487   2.553   2.355   9.576  0.3877 -1.0896 -0.5888
  111OSM   C16S11488   2.482   2.524   9.484 -0.2032 -0.1021  0.3390
  111OSM   H16S11489   2.564   2.594   9.510 -2.0965  2.0991  0.7362
  111OSM   H16T11490   2.396   2.593   9.474  1.3054  1.6467 -1.2723
  111OSM   C17S11491   2.514   2.457   9.349 -0.5377  0.0869  0.5525
  111OSM   H17S11492   2.437   2.377   9.341  0.9681 -1.6499  2.2498
  111OSM   H17T11493   2.614   2.409   9.359 -0.6796 -0.8906 -1.9365
  111OSM   C18S11494   2.525   2.557   9.236 -0.3604  0.2246  0.4655
  111OSM   H18S11495   2.551   2.658   9.273  1.0959  0.1960 -0.4416
  111OSM   H18T11496   2.430   2.569   9.180 -0.5452  3.7470  1.3195
  111OSM   H18U11497   2.602   2.540   9.159 -1.8859  2.0923 -1.5961
  111OSM    C1F11498   1.956   1.983  10.591  0.5083  0.4302  0.0111
  111OSM     OF11499   1.836   2.019  10.605 -0.3879  0.3110  0.5472
  111OSM    C2F11500   2.004   1.935  10.456  0.2482  0.6714  0.2074
  111OSM    H2F11501   1.960   1.836  10.432  0.1446  0.6243  0.5895
  111OSM    H2G11502   2.115   1.939  10.457  0.2610  0.2769  1.0683
  111OSM    C3F11503   1.965   2.023  10.342 -0.2636 -0.2067  0.3539
  111OSM    H3F11504   2.023   2.118  10.351  0.1820 -0.6674  3.8750
  111OSM    H3G11505   1.858   2.051  10.332  0.2555  1.6694 -0.5232
  111OSM    C4F11506   2.009   1.952  10.216 -0.9232 -0.3875  0.2012
  111OSM    H4F11507   1.930   1.877  10.195 -2.1448  1.2953 -1.6152
  111OSM    H4G11508   2.107   1.901  10.235 -0.4691  0.4917  0.2754
  111OSM    C5F11509   2.016   2.040  10.095  0.3135  0.5230  0.3418
  111OSM    H5F11510   2.065   2.136  10.123 -1.1664  1.8237 -1.2807
  111OSM    H5G11511   1.914   2.054  10.054 -0.3239 -1.7360  1.0114
  111OSM    C6F11512   2.102   1.988   9.987  0.1838 -0.1616  0.2475
  111OSM    H6F11513   2.052   1.896   9.948 -1.0283  0.8759 -0.7424
  111OSM    H6G11514   2.206   1.969  10.020 -0.2077 -0.1667  1.5701
  111OSM    C7F11515   2.119   2.082   9.866 -0.3661 -0.6614  0.8024
  111OSM    H7F11516   2.176   2.169   9.905 -0.1474  0.4617 -1.8423
  111OSM    H7G11517   2.025   2.133   9.834  0.5189 -0.4248 -1.6381
  111OSM    C8F11518   2.202   2.015   9.748 -0.4802 -0.0028 -0.4319
  111OSM    H8F11519   2.303   1.997   9.790 -0.9104 -0.3423  0.4830
  111OSM    H8G11520   2.231   2.092   9.674 -1.1261 -0.1706 -0.8707
  111OSM    C9F11521   2.149   1.890   9.679  0.8268  0.2944 -0.4228
  111OSM    H9F11522   2.154   1.800   9.743  0.1473  0.1650 -0.5441
  111OSM   C10F11523   2.096   1.884   9.555  0.1324 -0.1862 -0.1917
  111OSM   H10F11524   2.053   1.791   9.515  0.4681 -0.1312 -0.6883
  111OSM   C11F11525   2.071   2.004   9.463  0.1485 -0.5098  0.2472
  111OSM   H11F11526   2.038   2.094   9.519 -0.6395 -0.2658 -0.5880
  111OSM   H11G11527   1.981   1.977   9.405  1.0343 -1.8609 -0.5396
  111OSM   C12F11528   2.196   2.049   9.372  0.4941 -0.4041  0.4336
  111OSM   H12F11529   2.226   1.963   9.308 -1.4778 -1.1307  0.3875
  111OSM   H12G11530   2.281   2.087   9.432  1.6347  0.1931 -1.4986
  111OSM   C13F11531   2.150   2.150   9.260 -0.7209 -0.9440  0.2289
  111OSM   H13F11532   2.061   2.109   9.208 -1.2996 -0.2841  0.6916
  111OSM   H13G11533   2.236   2.169   9.191 -0.5381  1.0349  0.9478
  111OSM   C14F11534   2.119   2.293   9.308 -0.3907 -0.8308 -0.9426
  111OSM   H14F11535   2.206   2.332   9.365 -1.1525  1.3826 -1.2034
  111OSM   H14G11536   2.036   2.275   9.379  1.1498 -0.7652  0.9596
  111OSM   C15F11537   2.065   2.401   9.214  0.4558 -0.2909 -0.6210
  111OSM   H15F11538   1.997   2.363   9.134  0.9452 -2.6552 -0.0059
  111OSM   H15G11539   2.159   2.446   9.177  0.5686 -0.2131 -0.2446
  111OSM   C16F11540   1.982   2.504   9.291 -0.0684 -0.1762  0.9167
  111OSM   H16F11541   2.044   2.547   9.372 -0.5512 -1.6388  2.0967
  111OSM   H16G11542   1.894   2.456   9.337 -1.9792  1.1336 -1.1837
  111OSM   C17F11543   1.942   2.622   9.197 -0.1268  0.2699 -0.0369
  111OSM   H17F11544   2.014   2.632   9.112 -0.2741  0.4205 -0.1455
  111OSM   H17G11545   1.953   2.708   9.266 -1.5888  1.4236 -1.1649
  111OSM   C18F11546   1.799   2.610   9.135  0.6289 -0.0898 -0.2727
  111OSM   H18F11547   1.732   2.615   9.223  0.8788  1.8997 -0.1511
  111OSM   H18G11548   1.798   2.514   9.079 -4.1469 -1.4749  1.7027
  111OSM   H18H11549   1.769   2.697   9.073  2.3854  0.2026 -0.7712
  112OSM      N11550   1.000   4.565  11.677 -0.1370 -0.0877 -0.4332
  112OSM    C1511551   1.015   4.464  11.786  0.1362  0.5643  0.2437
  112OSM   H15A11552   1.010   4.504  11.886 -1.0309  0.6178  0.1836
  112OSM   H15B11553   1.103   4.403  11.775 -1.2299 -1.4980 -0.0141
  112OSM   H15C11554   0.949   4.381  11.763  1.2248 -0.8005  1.8104
  112OSM    C1411555   0.876   4.644  11.714 -0.6254  0.0069  0.1766
  112OSM   H14A11556   0.800   4.568  11.722 -0.0918 -0.3364  3.3069
  112OSM   H14B11557   0.858   4.726  11.646 -0.7857  1.1308  1.5437
  112OSM   H14C11558   0.871   4.691  11.811 -0.6634  1.0505 -0.3176
  112OSM    C1311559   1.122   4.652  11.674 -0.2041  0.1236  0.1460
  112OSM   H13A11560   1.115   4.728  11.597  0.7486 -0.5375 -0.6235
  112OSM   H13B11561   1.207   4.595  11.640 -1.3003 -0.8930 -0.9737
  112OSM   H13C11562   1.145   4.693  11.771  1.4497 -0.3870 -0.0005
  112OSM    C1211563   0.976   4.498  11.545 -0.1461  0.0618  0.0851
  112OSM   H12A11564   0.890   4.434  11.556 -0.7695  0.8554 -0.1109
  112OSM   H12B11565   1.058   4.429  11.529  0.4487  0.1527  2.3537
  112OSM    C1111566   0.948   4.580  11.413 -0.6770 -0.4832  0.0479
  112OSM   H11A11567   0.855   4.640  11.420  0.4985  1.5033 -0.5114
  112OSM   H11B11568   0.933   4.514  11.325 -3.6807 -0.7711  0.6718
  112OSM      P11569   1.174   4.643  11.296  0.0529  0.2839  0.1490
  112OSM    O1311570   1.244   4.776  11.271  0.0117 -0.7548 -0.1439
  112OSM    O1411571   1.255   4.524  11.346  0.0410 -0.5113 -0.3098
  112OSM    O1111572   1.100   4.609  11.167 -0.0841  0.2575  0.9897
  112OSM    O1211573   1.059   4.680  11.398 -0.3286  0.2702 -0.2218
  112OSM    C1S11574   1.010   4.701  11.099  0.2530  0.3626  0.4875
  112OSM    H1S11575   1.010   4.807  11.134 -0.3892  0.3192  0.6202
  112OSM    H1T11576   0.907   4.661  11.105  0.6922 -1.0774 -0.9044
  112OSM     NF11577   0.950   4.773  10.867 -0.4590 -0.1009  0.2264
  112OSM    HNF11578   0.872   4.716  10.843 -2.0992  1.6938  1.0361
  112OSM    C2S11579   1.043   4.696  10.948  0.0280  0.2127  0.5843
  112OSM    H2S11580   1.143   4.743  10.930 -0.1018  0.0901 -0.5442
  112OSM    C3S11581   1.059   4.550  10.894 -0.4031 -0.3040 -0.5152
  112OSM    H3S11582   0.960   4.504  10.920 -1.1001  1.3708 -0.0630
  112OSM     O311583   1.165   4.476  10.955 -0.1333  0.6678 -0.0838
  112OSM    HO311584   1.198   4.532  11.025 -0.5251 -0.6265  1.1755
  112OSM    C4S11585   1.083   4.543  10.745 -1.3410  0.1050  0.1781
  112OSM    H4S11586   0.993   4.496  10.704 -1.5430  0.9202 -0.3265
  112OSM    C5S11587   1.199   4.571  10.666 -0.4481  0.0827 -0.2159
  112OSM    H5S11588   1.293   4.612  10.704 -0.0593 -0.2933 -0.7574
  112OSM    C6S11589   1.192   4.567  10.518  1.2626 -0.3573  0.5374
  112OSM    H6S11590   1.093   4.528  10.486  0.3124  1.3698  1.2684
  112OSM    H6T11591   1.270   4.497  10.479  0.1714 -1.1069 -0.3950
  112OSM    C7S11592   1.217   4.715  10.467 -0.3066  0.1553 -1.1302
  112OSM    H7S11593   1.321   4.745  10.491 -0.2210  0.8648 -2.2807
  112OSM    H7T11594   1.142   4.778  10.521 -1.6000 -2.3198  0.1248
  112OSM    C8S11595   1.212   4.736  10.315 -0.0502  0.0015 -0.6756
  112OSM    H8S11596   1.115   4.692  10.284 -0.8113  2.4942 -2.1957
  112OSM    H8T11597   1.293   4.671  10.275 -0.4780 -1.1169  0.2578
  112OSM    C9S11598   1.221   4.878  10.277  0.0589 -0.4484  0.1322
  112OSM    H9S11599   1.323   4.921  10.279 -0.2471  0.7849 -3.4148
  112OSM    H9T11600   1.154   4.947  10.333 -0.5964 -1.0277  0.0902
  112OSM   C10S11601   1.179   4.908  10.123  0.6889 -0.1422 -0.5081
  112OSM   H10S11602   1.169   5.017  10.107  1.8598  0.3518  1.6562
  112OSM   H10T11603   1.079   4.860  10.121  0.2092  0.7665  0.4476
  112OSM   C11S11604   1.272   4.843  10.021 -0.1778  0.1614 -0.1238
  112OSM   H11S11605   1.367   4.827  10.077 -1.1924 -2.1553  1.0963
  112OSM   H11T11606   1.297   4.909   9.935  2.7356 -0.3065  0.2801
  112OSM   C12S11607   1.224   4.704   9.974 -0.5371  0.0344  0.2903
  112OSM   H12S11608   1.165   4.653  10.053 -0.6156  1.8269  1.4702
  112OSM   H12T11609   1.309   4.641   9.942  0.6864 -0.0898  3.4025
  112OSM   C13S11610   1.124   4.713   9.862  0.2670  0.2899 -0.3310
  112OSM   H13S11611   1.172   4.771   9.781  0.3961 -0.1523 -0.5715
  112OSM   H13T11612   1.036   4.769   9.901  1.7596  2.4926  0.0651
  112OSM   C14S11613   1.078   4.576   9.816 -0.5269 -0.1848 -0.5529
  112OSM   H14S11614   1.042   4.529   9.910 -1.6396  1.6365  0.0006
  112OSM   H14T11615   1.173   4.533   9.778  0.2457  0.4332  0.6073
  112OSM   C15S11616   0.964   4.586   9.719 -0.4246 -0.2038  0.5872
  112OSM   H15S11617   0.992   4.651   9.634 -1.3071  2.1652  2.0119
  112OSM   H15T11618   0.875   4.639   9.759 -0.3181  1.5429 -1.3382
  112OSM   C16S11619   0.926   4.449   9.670 -0.1412  0.4057  0.2663
  112OSM   H16S11620   0.917   4.377   9.754 -0.1411  2.0257  1.7140
  112OSM   H16T11621   1.000   4.406   9.599 -0.2341  0.3920  0.1754
  112OSM   C17S11622   0.790   4.455   9.602 -0.2456 -0.1216 -0.3166
  112OSM   H17S11623   0.798   4.533   9.523 -2.5706  1.1225  0.5752
  112OSM   H17T11624   0.717   4.483   9.682 -1.0326  0.6708 -1.2855
  112OSM   C18S11625   0.750   4.323   9.543 -0.2484  0.9227 -0.1776
  112OSM   H18S11626   0.706   4.256   9.620 -0.1226  1.1229  0.0652
  112OSM   H18T11627   0.833   4.267   9.495 -0.6788  0.6540 -0.6256
  112OSM   H18U11628   0.672   4.334   9.464  0.3921 -0.7760 -1.1180
  112OSM    C1F11629   0.945   4.905  10.872  0.9784 -0.1885  0.2183
  112OSM     OF11630   1.030   4.972  10.931 -0.1154 -0.0910  0.8991
  112OSM    C2F11631   0.826   4.973  10.804  0.0018  0.0063  0.0711
  112OSM    H2F11632   0.775   5.035  10.881 -0.7829 -1.7769  1.0678
  112OSM    H2G11633   0.752   4.904  10.756 -0.4341  0.2380  0.4017
  112OSM    C3F11634   0.876   5.068  10.692  0.1025  0.1628  0.3818
  112OSM    H3F11635   0.961   5.129  10.730 -0.7567  0.5535  1.7762
  112OSM    H3G11636   0.797   5.137  10.654  1.5667  0.7567 -1.7074
  112OSM    C4F11637   0.916   4.986  10.568 -0.5392  0.2581  0.0210
  112OSM    H4F11638   0.951   4.887  10.606  0.9408  0.9414  0.5017
  112OSM    H4G11639   0.996   5.041  10.515  0.6939  0.1255  1.6780
  112OSM    C5F11640   0.808   4.961  10.467 -0.0740  0.3006 -0.2268
  112OSM    H5F11641   0.777   5.067  10.453 -0.7079  0.4204  1.7643
  112OSM    H5G11642   0.733   4.897  10.520  0.9408 -0.4309  0.3564
  112OSM    C6F11643   0.859   4.910  10.327 -0.5394 -0.6026 -0.0583
  112OSM    H6F11644   0.888   4.804  10.344  0.4408 -0.5709 -1.3965
  112OSM    H6G11645   0.947   4.969  10.295  0.0366 -1.6791 -0.4913
  112OSM    C7F11646   0.745   4.918  10.220  0.5198 -0.0739 -0.5080
  112OSM    H7F11647   0.722   5.025  10.203 -1.1152 -0.2028  0.5865
  112OSM    H7G11648   0.653   4.872  10.262 -0.1711  0.0694 -1.8282
  112OSM    C8F11649   0.786   4.853  10.085 -0.1402 -0.5079 -0.5687
  112OSM    H8F11650   0.851   4.767  10.111  1.0032  0.7599  0.8717
  112OSM    H8G11651   0.842   4.915  10.012 -1.5508 -0.5208 -1.7112
  112OSM    C9F11652   0.671   4.791  10.008 -0.0357  0.2591  0.1020
  112OSM    H9F11653   0.604   4.720  10.059  1.1024 -0.3737  0.7568
  112OSM   C10F11654   0.639   4.813   9.879  0.3431  0.8190  0.1294
  112OSM   H10F11655   0.566   4.748   9.829  0.4175  0.3324  0.6367
  112OSM   C11F11656   0.708   4.904   9.785 -0.3912 -0.1268  0.4744
  112OSM   H11F11657   0.809   4.860   9.765  0.2294  1.2913  0.3663
  112OSM   H11G11658   0.733   4.995   9.843  1.0764 -0.8051  0.9634
  112OSM   C12F11659   0.640   4.952   9.655  0.0681  0.0156 -0.1098
  112OSM   H12F11660   0.551   5.014   9.681  0.9669  1.6212 -0.7156
  112OSM   H12G11661   0.594   4.866   9.602 -2.7041  1.6075 -0.4728
  112OSM   C13F11662   0.736   5.021   9.557 -0.1761 -0.7795 -0.4683
  112OSM   H13F11663   0.811   4.941   9.537 -1.6658 -1.9625 -1.5999
  112OSM   H13G11664   0.775   5.104   9.620 -2.7990  1.8507 -2.0270
  112OSM   C14F11665   0.672   5.093   9.441  0.4834  0.1825 -0.7306
  112OSM   H14F11666   0.594   5.159   9.486 -1.6866 -1.8224 -1.3762
  112OSM   H14G11667   0.627   5.013   9.380  1.3078 -1.6217  0.9069
  112OSM   C15F11668   0.779   5.159   9.347 -0.5115 -0.1179  0.0598
  112OSM   H15F11669   0.858   5.084   9.324  0.6631 -0.0261  3.2579
  112OSM   H15G11670   0.825   5.241   9.406 -1.3902 -1.2031  2.3891
  112OSM   C16F11671   0.717   5.212   9.217  0.4834  0.5139  0.2225
  112OSM   H16F11672   0.672   5.310   9.245 -1.2004 -0.4162  0.9534
  112OSM   H16G11673   0.624   5.153   9.198  0.5047  0.4353  0.3626
  112OSM   C17F11674   0.808   5.220   9.096  0.0056  0.4939 -1.2036
  112OSM   H17F11675   0.894   5.276   9.138 -1.5739  0.2788  2.8319
  112OSM   H17G11676   0.763   5.288   9.021 -0.0686  1.8125 -0.0050
  112OSM   C18F11677   0.842   5.084   9.036  0.0414  0.0185 -0.3721
  112OSM   H18F11678   0.749   5.046   8.990 -0.7501  1.1632  0.2545
  112OSM   H18G11679   0.890   5.014   9.107  1.1263  0.9501 -0.1391
  112OSM   H18H11680   0.914   5.095   8.952  1.2106  0.0745  0.6055
  113OSM      N11681   3.222   5.498  11.325  0.2331 -0.2913 -0.0316
  113OSM    C1511682   3.319   5.525  11.431 -0.5492  0.2460 -0.5301
  113OSM   H15A11683   3.282   5.598  11.502 -1.2761 -1.0845  0.5241
  113OSM   H15B11684   3.415   5.557  11.394 -0.2590 -0.4384 -0.3756
  113OSM   H15C11685   3.332   5.441  11.497  0.4750  1.0939  0.3827
  113OSM    C1411686   3.085   5.488  11.383 -0.0116  0.0905  0.3414
  113OSM   H14A11687   3.104   5.422  11.466  0.4407  0.8318  0.8408
  113OSM   H14B11688   3.006   5.458  11.316  0.8968 -1.4558 -0.0990
  113OSM   H14C11689   3.056   5.581  11.430  1.8056  0.3139  1.0890
  113OSM    C1311690   3.226   5.612  11.230  0.0653 -0.9246  0.1054
  113OSM   H13A11691   3.318   5.619  11.172 -1.7255  0.5911 -2.7894
  113OSM   H13B11692   3.215   5.703  11.288  0.7902  0.6949 -2.1581
  113OSM   H13C11693   3.151   5.608  11.153 -1.3983  1.7217  1.2768
  113OSM    C1211694   3.263   5.368  11.250  0.0714  0.4363 -0.2645
  113OSM   H12A11695   3.256   5.291  11.324 -3.0860 -1.2720 -2.0983
  113OSM   H12B11696   3.365   5.382  11.216  0.2152 -0.8543 -0.3977
  113OSM    C1111697   3.169   5.315  11.142  0.4714 -0.5124  0.0881
  113OSM   H11A11698   3.212   5.214  11.122  2.7817  0.3158  0.5890
  113OSM   H11B11699   3.173   5.389  11.059 -1.9204  0.0728  0.4213
  113OSM      P11700   2.965   5.169  11.237  0.6349  0.4436 -0.5001
  113OSM    O1311701   3.037   5.112  11.356 -0.6083  0.2030  0.0451
  113OSM    O1411702   2.823   5.192  11.258  0.1954 -0.2462 -0.3147
  113OSM    O1111703   2.970   5.065  11.114 -0.4924  0.1877 -0.4089
  113OSM    O1211704   3.031   5.303  11.176  0.3084  0.2557 -0.1384
  113OSM    C1S11705   2.924   5.089  10.986  0.1470 -0.2424 -0.4194
  113OSM    H1S11706   2.894   5.195  10.969  0.0440 -0.3954 -1.2441
  113OSM    H1T11707   2.837   5.022  10.968 -0.9753  0.0550  3.1857
  113OSM     NF11708   2.978   5.091  10.741  0.1080 -0.2630  0.4407
  113OSM    HNF11709   2.922   5.019  10.701  0.0399 -0.6721  1.2442
  113OSM    C2S11710   3.032   5.058  10.873  0.4970 -0.1979  0.4845
  113OSM    H2S11711   3.113   5.134  10.886 -1.2318  2.2355 -1.8112
  113OSM    C3S11712   3.095   4.918  10.883  0.1873 -0.4941 -0.4719
  113OSM    H3S11713   3.025   4.833  10.870  1.4247 -1.4144 -1.3484
  113OSM     O311714   3.141   4.891  11.011  0.6244 -0.2224  0.1368
  113OSM    HO311715   3.107   4.963  11.063  2.4361  0.3526  0.5989
  113OSM    C4S11716   3.203   4.894  10.779 -0.5998 -0.5166 -0.2321
  113OSM    H4S11717   3.172   4.865  10.677  1.4867  2.2580 -1.8045
  113OSM    C5S11718   3.339   4.900  10.787 -0.0637 -0.4815 -0.5263
  113OSM    H5S11719   3.382   4.922  10.885 -2.2619 -1.1321  0.6524
  113OSM    C6S11720   3.429   4.866  10.674 -0.1781 -0.4372  0.0885
  113OSM    H6S11721   3.465   4.761  10.670  1.2474 -0.0365  1.3146
  113OSM    H6T11722   3.522   4.928  10.670 -0.6509  0.3462  0.7595
  113OSM    C7S11723   3.362   4.899  10.534  0.0816 -0.0317 -0.3749
  113OSM    H7S11724   3.310   4.997  10.530 -0.5161 -0.3717 -1.2257
  113OSM    H7T11725   3.287   4.819  10.517 -0.7767  0.4574  0.9590
  113OSM    C8S11726   3.468   4.911  10.422  0.0195 -0.3255 -0.2092
  113OSM    H8S11727   3.556   4.848  10.449 -0.0309 -0.0034  0.7469
  113OSM    H8T11728   3.505   5.016  10.426 -1.2597  0.1155  0.6198
  113OSM    C9S11729   3.413   4.886  10.283  0.6809  0.1843 -0.5878
  113OSM    H9S11730   3.332   4.961  10.274 -1.4171 -1.9369 -0.2762
  113OSM    H9T11731   3.365   4.787  10.276  0.2807  0.4274 -1.5672
  113OSM   C10S11732   3.516   4.897  10.167 -0.8591  0.6807 -0.5088
  113OSM   H10S11733   3.571   4.800  10.163 -2.3129 -0.1334 -2.0076
  113OSM   H10T11734   3.589   4.974  10.199 -0.9685  0.0955  1.2360
  113OSM   C11S11735   3.439   4.927  10.037  0.1324 -0.0443 -0.5712
  113OSM   H11S11736   3.520   4.951   9.965  1.5936  0.1705  1.0825
  113OSM   H11T11737   3.368   5.010  10.061 -1.1437 -1.6780  1.7919
  113OSM   C12S11738   3.343   4.816   9.976  0.1285  0.4606 -0.2631
  113OSM   H12S11739   3.277   4.761  10.045  0.7392 -2.8411 -2.1197
  113OSM   H12T11740   3.409   4.740   9.929 -0.4616 -0.5257  0.4744
  113OSM   C13S11741   3.250   4.869   9.874  0.3913 -0.2481  0.1269
  113OSM   H13S11742   3.172   4.919   9.935  0.9702 -0.3140  0.9378
  113OSM   H13T11743   3.193   4.785   9.830 -1.7299  0.2664  1.7357
  113OSM   C14S11744   3.308   4.961   9.768  0.5158 -0.0007 -0.0805
  113OSM   H14S11745   3.370   5.043   9.811  1.8590 -1.5590  1.0596
  113OSM   H14T11746   3.232   5.012   9.705 -1.2854 -0.6625  1.4531
  113OSM   C15S11747   3.405   4.898   9.673  0.4266  0.2832  0.4210
  113OSM   H15S11748   3.495   4.847   9.713  1.2901  0.3614 -1.3272
  113OSM   H15T11749   3.443   4.976   9.603 -0.6251 -1.0381 -1.7338
  113OSM   C16S11750   3.341   4.784   9.587 -0.6628  0.2934  0.2917
  113OSM   H16S11751   3.404   4.790   9.496  0.4383 -1.5823  0.8751
  113OSM   H16T11752   3.239   4.813   9.553 -0.2852  0.4555 -0.7170
  113OSM   C17S11753   3.369   4.647   9.649  0.1678  0.7002  0.0801
  113OSM   H17S11754   3.320   4.654   9.748  0.1020  0.3118  0.0744
  113OSM   H17T11755   3.476   4.618   9.658  0.4647  2.2945  2.6287
  113OSM   C18S11756   3.280   4.534   9.583  0.4187 -0.4294 -0.3699
  113OSM   H18S11757   3.318   4.521   9.479 -0.1104 -1.2325 -0.4690
  113OSM   H18T11758   3.175   4.569   9.588  0.9095  1.2133 -0.9277
  113OSM   H18U11759   3.290   4.443   9.645  0.2264  0.4723  1.0276
  113OSM    C1F11760   2.955   5.220  10.702  0.2364 -0.4304 -0.1454
  113OSM     OF11761   2.992   5.317  10.770  0.3303 -0.2492 -0.1945
  113OSM    C2F11762   2.876   5.232  10.579  0.7824 -0.2591  0.5466
  113OSM    H2F11763   2.850   5.339  10.563  2.0704 -0.1647 -1.1743
  113OSM    H2G11764   2.792   5.161  10.590  1.0091 -0.5710  0.2619
  113OSM    C3F11765   2.972   5.194  10.462 -0.5820 -0.3290 -0.4423
  113OSM    H3F11766   2.986   5.085  10.448  2.3835  0.1506 -2.1620
  113OSM    H3G11767   3.073   5.237  10.477 -0.1331 -1.4867 -0.0332
  113OSM    C4F11768   2.923   5.232  10.319  0.6494  0.4574  0.1212
  113OSM    H4F11769   2.898   5.339  10.334  0.5415  0.4581 -0.0602
  113OSM    H4G11770   2.831   5.175  10.292  0.5206  1.3738 -1.4891
  113OSM    C5F11771   3.032   5.207  10.211  0.2382 -0.2681  0.2631
  113OSM    H5F11772   3.050   5.098  10.200 -0.3464 -0.4292  0.8435
  113OSM    H5G11773   3.119   5.264  10.252 -1.2569  1.9270  0.5375
  113OSM    C6F11774   2.999   5.268  10.075  0.5873  0.0697 -0.3303
  113OSM    H6F11775   2.964   5.371  10.100  1.7553  0.4556 -0.2318
  113OSM    H6G11776   2.914   5.219  10.023  0.7712  1.1545 -1.7190
  113OSM    C7F11777   3.116   5.260   9.985  0.7424 -0.2042  0.5665
  113OSM    H7F11778   3.148   5.156   9.962 -1.6410 -1.4666  2.5341
  113OSM    H7G11779   3.200   5.318  10.027  0.0887 -0.6202  2.5470
  113OSM    C8F11780   3.070   5.331   9.852 -0.0358 -0.1502  0.3364
  113OSM    H8F11781   3.012   5.420   9.881 -2.0362 -1.0538 -0.6536
  113OSM    H8G11782   2.994   5.257   9.817  0.7663 -0.3738 -1.0209
  113OSM    C9F11783   3.177   5.359   9.751  0.2581 -0.0131  0.2464
  113OSM    H9F11784   3.253   5.425   9.795 -0.0133  2.0722 -2.1700
  113OSM   C10F11785   3.197   5.307   9.632  0.7666  0.1379  0.5748
  113OSM   H10F11786   3.291   5.333   9.580 -0.0302  2.3168  0.0961
  113OSM   C11F11787   3.106   5.210   9.558 -0.0283  0.3931  0.2064
  113OSM   H11F11788   3.005   5.205   9.603 -0.1074 -0.7197 -0.0664
  113OSM   H11G11789   3.150   5.109   9.542 -1.4570 -0.3192  0.6570
  113OSM   C12F11790   3.075   5.256   9.419 -0.7102  0.2432 -0.3699
  113OSM   H12F11791   3.007   5.344   9.429 -0.2306  0.6526 -0.6419
  113OSM   H12G11792   3.010   5.178   9.375 -0.4639 -1.2590  1.7546
  113OSM   C13F11793   3.192   5.282   9.324  0.0654 -0.2205 -0.2831
  113OSM   H13F11794   3.266   5.204   9.350 -1.0783 -1.2335  0.0286
  113OSM   H13G11795   3.244   5.371   9.365 -1.2726 -0.3473  1.8593
  113OSM   C14F11796   3.149   5.277   9.178  0.2882  0.1219  0.1006
  113OSM   H14F11797   3.045   5.311   9.159  0.4993 -0.6880 -3.0410
  113OSM   H14G11798   3.159   5.170   9.150  0.3325  0.0097  0.5403
  113OSM   C15F11799   3.238   5.356   9.086 -0.9413  0.4229 -0.1723
  113OSM   H15F11800   3.341   5.313   9.083 -1.0699  0.0152  0.8562
  113OSM   H15G11801   3.249   5.461   9.121  0.4511  0.3024 -0.1804
  113OSM   C16F11802   3.198   5.361   8.938  0.2872  0.0853  0.1130
  113OSM   H16F11803   3.247   5.449   8.891 -3.3231  1.0710 -2.1366
  113OSM   H16G11804   3.091   5.381   8.917 -0.4130 -0.8464  2.4406
  113OSM   C17F11805   3.244   5.228   8.866  0.8838  0.0459 -0.2917
  113OSM   H17F11806   3.337   5.185   8.910  1.3577  2.1431  0.8671
  113OSM   H17G11807   3.270   5.252   8.760  1.2365 -0.5835 -0.3571
  113OSM   C18F11808   3.136   5.122   8.855  0.1072  0.4024  0.8634
  113OSM   H18F11809   3.052   5.148   8.787 -1.0006 -0.2770  1.9428
  113OSM   H18G11810   3.093   5.097   8.954  1.9263 -0.1698  1.5384
  113OSM   H18H11811   3.175   5.022   8.829 -1.4365 -0.0971  0.3361
  114OSM      N11812   2.422   3.309  11.727 -0.0201  0.3498 -0.3667
  114OSM    C1511813   2.327   3.217  11.670 -0.2172  0.0868 -1.0138
  114OSM   H15A11814   2.371   3.159  11.590 -0.0153 -0.8461 -0.2398
  114OSM   H15B11815   2.246   3.273  11.627 -1.2679 -0.4332  0.2449
  114OSM   H15C11816   2.287   3.146  11.740 -0.4641 -1.9170 -3.0805
  114OSM    C1411817   2.346   3.417  11.792 -0.5076 -0.2799  0.4892
  114OSM   H14A11818   2.325   3.487  11.713 -0.6289 -1.0667 -0.1844
  114OSM   H14B11819   2.402   3.474  11.865 -0.1493  1.1682 -0.8678
  114OSM   H14C11820   2.253   3.383  11.837 -2.3256  4.7480  1.2132
  114OSM    C1311821   2.503   3.243  11.837  0.2818  0.1129 -0.3457
  114OSM   H13A11822   2.455   3.175  11.906  0.3187  1.1022  0.6975
  114OSM   H13B11823   2.539   3.320  11.905 -0.7913  1.5532 -1.3503
  114OSM   H13C11824   2.594   3.196  11.805  0.5931 -0.3302  1.1025
  114OSM    C1211825   2.522   3.357  11.616  0.3132 -0.0010 -0.0713
  114OSM   H12A11826   2.566   3.267  11.576  0.4552 -0.0724  0.2435
  114OSM   H12B11827   2.597   3.417  11.665  1.6091 -0.7457 -1.1004
  114OSM    C1111828   2.474   3.448  11.499 -0.3574  0.0031  0.0753
  114OSM   H11A11829   2.397   3.399  11.436  1.8290 -1.1188 -1.8842
  114OSM   H11B11830   2.567   3.466  11.440 -0.9055 -0.6355 -1.0163
  114OSM      P11831   2.523   3.692  11.595 -0.0303 -0.1162 -0.0092
  114OSM    O1311832   2.435   3.797  11.653  0.1825 -0.1789 -0.0802
  114OSM    O1411833   2.630   3.649  11.685  0.2273 -0.2010 -0.3689
  114OSM    O1111834   2.585   3.743  11.459  0.1004  0.1824  0.2720
  114OSM    O1211835   2.429   3.573  11.553 -0.0553 -0.0757  0.5571
  114OSM    C1S11836   2.527   3.729  11.324 -0.0996 -0.0137 -0.3738
  114OSM    H1S11837   2.441   3.799  11.323 -0.6960 -0.7424 -1.2782
  114OSM    H1T11838   2.478   3.630  11.313 -0.7422  0.1423  0.9327
  114OSM     NF11839   2.552   3.750  11.073 -0.3721  0.1311 -0.3693
  114OSM    HNF11840   2.569   3.663  11.028 -0.0730  0.5348 -1.0717
  114OSM    C2S11841   2.614   3.763  11.201  0.3245  0.1313 -1.1251
  114OSM    H2S11842   2.641   3.870  11.210  1.3056 -0.2163  0.4923
  114OSM    C3S11843   2.752   3.697  11.215  0.2467 -0.1746  0.4993
  114OSM    H3S11844   2.744   3.590  11.188  0.6357  0.1700 -1.1077
  114OSM     O311845   2.814   3.700  11.338 -0.0683  0.2429 -0.9371
  114OSM    HO311846   2.744   3.736  11.393  0.5729  1.1259 -0.6843
  114OSM    C4S11847   2.842   3.775  11.113 -1.2184  0.5325  0.2704
  114OSM    H4S11848   2.861   3.878  11.147 -1.3412  1.6902 -2.8722
  114OSM    C5S11849   2.904   3.728  11.001 -0.2340  0.1331 -1.0122
  114OSM    H5S11850   2.895   3.622  10.972  0.8393  0.5767 -3.1669
  114OSM    C6S11851   2.999   3.806  10.915 -0.2566 -0.6964 -0.3249
  114OSM    H6S11852   3.105   3.771  10.914  0.5388  1.5754 -0.0498
  114OSM    H6T11853   2.998   3.912  10.949  2.0095 -1.0950  1.2643
  114OSM    C7S11854   2.951   3.796  10.771 -0.3547  0.7236 -0.0256
  114OSM    H7S11855   2.970   3.693  10.733 -1.9880  0.0463  0.9090
  114OSM    H7T11856   3.023   3.855  10.711  0.9027  0.4140  1.1106
  114OSM    C8S11857   2.809   3.835  10.750 -0.0985  0.0225 -0.0681
  114OSM    H8S11858   2.773   3.923  10.808 -0.6067  0.6081 -1.2386
  114OSM    H8T11859   2.754   3.745  10.787  0.6690 -1.1546 -1.6816
  114OSM    C9S11860   2.768   3.858  10.603 -0.6345 -0.2089  0.4752
  114OSM    H9S11861   2.659   3.879  10.605 -0.6178  0.1937 -1.2396
  114OSM    H9T11862   2.774   3.756  10.559 -1.2152  0.8636 -2.3038
  114OSM   C10S11863   2.842   3.967  10.530 -0.1790  0.4619 -0.6492
  114OSM   H10S11864   2.945   3.935  10.502 -0.1875 -0.8724  0.6979
  114OSM   H10T11865   2.847   4.061  10.589 -0.4647 -0.6782  1.2578
  114OSM   C11S11866   2.773   4.010  10.400  1.1494 -0.4813  0.4023
  114OSM   H11S11867   2.673   4.048  10.429  1.3134  2.1655 -2.0147
  114OSM   H11T11868   2.741   3.922  10.340  1.3056 -0.2942  0.0439
  114OSM   C12S11869   2.859   4.111  10.319 -0.4330 -0.0967 -0.2602
  114OSM   H12S11870   2.961   4.077  10.293 -0.7820 -0.5638 -1.0642
  114OSM   H12T11871   2.885   4.198  10.384 -3.4220  0.1584  0.7809
  114OSM   C13S11872   2.789   4.156  10.190  0.2018  0.2105 -0.9641
  114OSM   H13S11873   2.823   4.259  10.165  1.0000  0.4664  0.9431
  114OSM   H13T11874   2.681   4.146  10.212  0.7611 -0.1968  2.0232
  114OSM   C14S11875   2.814   4.062  10.072 -0.3590 -0.0149  0.5277
  114OSM   H14S11876   2.736   3.984  10.082 -1.6823  1.2502  0.4902
  114OSM   H14T11877   2.917   4.023  10.076 -0.9931 -1.7325  0.8146
  114OSM   C15S11878   2.785   4.118   9.930  0.5045  0.3979  0.1058
  114OSM   H15S11879   2.838   4.213   9.908 -1.6614  1.8050  0.6279
  114OSM   H15T11880   2.675   4.137   9.930  0.1674 -0.7216 -3.4396
  114OSM   C16S11881   2.804   4.006   9.822  0.3121  0.4971 -0.5832
  114OSM   H16S11882   2.753   3.912   9.848  3.5437 -1.2705 -0.1152
  114OSM   H16T11883   2.910   3.974   9.816 -0.0223 -0.5161 -1.2266
  114OSM   C17S11884   2.771   4.046   9.674  0.1875 -0.2846 -0.2045
  114OSM   H17S11885   2.836   4.134   9.655  0.3431 -0.3580 -0.0205
  114OSM   H17T11886   2.669   4.088   9.660  0.1715 -0.2719 -0.0440
  114OSM   C18S11887   2.793   3.934   9.570 -0.5636 -0.4864 -0.5763
  114OSM   H18S11888   2.886   3.876   9.585 -0.0291 -0.3289 -2.9581
  114OSM   H18T11889   2.793   3.970   9.465  1.4306 -0.8903 -0.7478
  114OSM   H18U11890   2.705   3.867   9.574 -2.6669  1.5637 -5.1967
  114OSM    C1F11891   2.466   3.831  11.023 -0.3778 -0.4129  0.6774
  114OSM     OF11892   2.411   3.919  11.096 -0.2273  0.1110  0.2115
  114OSM    C2F11893   2.422   3.811  10.882  0.2849 -0.2622  0.3883
  114OSM    H2F11894   2.369   3.715  10.867  1.0611 -1.1487  2.7875
  114OSM    H2G11895   2.509   3.804  10.813  0.3107  0.9407  0.2728
  114OSM    C3F11896   2.321   3.914  10.835  0.9576  0.1658 -0.0884
  114OSM    H3F11897   2.333   4.016  10.877 -0.8367  0.0386  0.8429
  114OSM    H3G11898   2.217   3.885  10.863  1.1973  1.9099  3.0025
  114OSM    C4F11899   2.313   3.926  10.679 -0.3953 -0.0482  0.6230
  114OSM    H4F11900   2.410   3.965  10.642  0.7032 -2.4999  0.7310
  114OSM    H4G11901   2.235   4.002  10.660  0.0563  0.0099 -1.1030
  114OSM    C5F11902   2.278   3.798  10.603  0.8856  0.6910  0.8814
  114OSM    H5F11903   2.173   3.772  10.626 -0.5745  0.0227 -4.9910
  114OSM    H5G11904   2.339   3.709  10.633 -0.5288 -0.1297  1.4211
  114OSM    C6F11905   2.285   3.826  10.454  0.2622 -0.3838  0.6682
  114OSM    H6F11906   2.225   3.918  10.436 -1.6682 -1.4539  1.2964
  114OSM    H6G11907   2.238   3.742  10.399 -2.9373  1.6074  0.0914
  114OSM    C7F11908   2.431   3.838  10.393  0.1512 -0.6296  0.0921
  114OSM    H7F11909   2.498   3.753  10.420  1.8468  0.3543 -0.8324
  114OSM    H7G11910   2.475   3.926  10.444  0.4400 -0.7534  0.0572
  114OSM    C8F11911   2.448   3.851  10.236 -0.2323 -0.1733 -0.0033
  114OSM    H8F11912   2.387   3.774  10.182 -2.3468  0.0854  1.8578
  114OSM    H8G11913   2.555   3.837  10.212 -0.2523 -2.5498  0.9255
  114OSM    C9F11914   2.391   3.981  10.195 -0.4394 -0.3225  0.8722
  114OSM    H9F11915   2.334   4.029  10.276  1.4268  0.9176  1.5172
  114OSM   C10F11916   2.398   4.026  10.066  0.1635 -0.0221 -0.3968
  114OSM   H10F11917   2.348   4.121  10.045  1.1336  0.6146  0.1334
  114OSM   C11F11918   2.450   3.962   9.950  0.4549  0.0074  0.4282
  114OSM   H11F11919   2.543   3.903   9.965  1.4799  1.1052 -1.2779
  114OSM   H11G11920   2.499   4.037   9.884 -1.3565 -1.0154 -2.2575
  114OSM   C12F11921   2.359   3.871   9.860  0.1632  0.4362 -0.0364
  114OSM   H12F11922   2.264   3.922   9.833  0.0214 -0.4859 -1.3789
  114OSM   H12G11923   2.337   3.784   9.925  0.2752  0.8686  0.5968
  114OSM   C13F11924   2.421   3.837   9.724  0.8822  0.2347 -0.8362
  114OSM   H13F11925   2.513   3.777   9.741 -0.4719 -1.6753  0.1470
  114OSM   H13G11926   2.440   3.935   9.675 -0.0547 -0.1223 -1.9533
  114OSM   C14F11927   2.334   3.744   9.639 -0.3395  0.4738  1.2196
  114OSM   H14F11928   2.231   3.782   9.624  0.0444  1.0973  0.0774
  114OSM   H14G11929   2.329   3.637   9.668 -1.0017 -0.0692 -0.7727
  114OSM   C15F11930   2.396   3.736   9.495 -0.5198  0.4102 -0.0451
  114OSM   H15F11931   2.370   3.637   9.452  2.6915 -0.9637  0.9090
  114OSM   H15G11932   2.506   3.738   9.511 -0.2740  2.2039 -1.5567
  114OSM   C16F11933   2.363   3.859   9.409  0.4999 -0.5522 -0.3647
  114OSM   H16F11934   2.403   3.951   9.457 -0.5183  0.2231 -0.9766
  114OSM   H16G11935   2.255   3.878   9.395  0.9324  1.8251 -0.9587
  114OSM   C17F11936   2.405   3.853   9.263  0.5100 -0.2426  1.1461
  114OSM   H17F11937   2.344   3.777   9.209 -0.3121 -1.1913  3.3167
  114OSM   H17G11938   2.511   3.826   9.246 -0.0382 -0.9354 -1.7158
  114OSM   C18F11939   2.377   3.984   9.201  0.4472 -0.4860  0.0689
  114OSM   H18F11940   2.367   3.985   9.090 -0.1764  1.9734  0.0817
  114OSM   H18G11941   2.458   4.056   9.227  0.6017 -0.6796  0.1284
  114OSM   H18H11942   2.290   4.038   9.245 -0.1843 -2.0473  0.7900
  115OSM      N11943   1.056   0.290   6.303  0.0672 -0.5447 -0.6931
  115OSM    C1511944   0.913   0.340   6.272  0.4628  0.2061  0.9998
  115OSM   H15A11945   0.909   0.442   6.237  2.1913 -0.4394 -1.3145
  115OSM   H15B11946   0.848   0.325   6.357 -1.5703 -1.6095 -0.7796
  115OSM   H15C11947   0.867   0.279   6.196  0.0978 -1.5800  2.5746
  115OSM    C1411948   1.043   0.156   6.370 -0.7161  0.6487 -0.2657
  115OSM   H14A11949   1.016   0.076   6.302 -1.1134 -0.9681  1.6829
  115OSM   H14B11950   0.970   0.148   6.448 -1.3058  0.0022 -0.8661
  115OSM   H14C11951   1.141   0.122   6.400  0.1468  2.7242 -0.5924
  115OSM    C1311952   1.130   0.281   6.176  0.3495  0.1006 -0.4225
  115OSM   H13A11953   1.225   0.233   6.195  0.4084  0.5641  0.5304
  115OSM   H13B11954   1.158   0.373   6.127  1.0873 -0.5371 -1.2362
  115OSM   H13C11955   1.085   0.224   6.097  1.1191  0.9170 -1.4838
  115OSM    C1211956   1.127   0.399   6.384 -0.1385  1.1142  0.1127
  115OSM   H12A11957   1.120   0.492   6.330 -0.9781  0.8228 -0.2961
  115OSM   H12B11958   1.231   0.370   6.395 -0.7149 -1.4173 -0.4328
  115OSM    C1111959   1.091   0.423   6.533  0.4376 -0.2221 -0.0001
  115OSM   H11A11960   1.165   0.481   6.592  0.0750  0.0624  0.1740
  115OSM   H11B11961   1.100   0.326   6.587 -0.8884  0.2958  1.1919
  115OSM      P11962   0.937   0.630   6.474  0.4614 -0.2251  0.5281
  115OSM    O1311963   1.069   0.687   6.431 -0.6371 -0.5755 -0.1556
  115OSM    O1411964   0.831   0.608   6.370  0.2371 -0.3066  0.2697
  115OSM    O1111965   0.880   0.708   6.598  0.2763 -0.1171  0.0160
  115OSM    O1211966   0.956   0.481   6.538  0.5479 -0.8656  0.1491
  115OSM    C1S11967   0.887   0.651   6.731  0.5923 -0.3229  0.3805
  115OSM    H1S11968   0.990   0.673   6.769  0.6610  0.0305 -0.0021
  115OSM    H1T11969   0.877   0.542   6.747  1.7883 -0.6780 -1.0657
  115OSM     NF11970   0.792   0.680   6.962 -0.0182  0.3459 -0.1875
  115OSM    HNF11971   0.723   0.613   6.984 -0.1804  0.6092  0.1122
  115OSM    C2S11972   0.778   0.730   6.826  0.3923  0.7687 -0.3038
  115OSM    H2S11973   0.798   0.839   6.818 -3.5272  1.4916 -3.4713
  115OSM    C3S11974   0.628   0.720   6.776 -0.1399 -0.2917  0.0719
  115OSM    H3S11975   0.604   0.612   6.771  0.4691 -0.3790 -1.2719
  115OSM     O311976   0.617   0.776   6.648  0.2279 -0.6201  0.3943
  115OSM    HO311977   0.705   0.763   6.613  0.5470 -0.6824  1.2076
  115OSM    C4S11978   0.535   0.789   6.874  0.5087 -0.8103 -0.1212
  115OSM    H4S11979   0.534   0.899   6.869 -0.9214 -0.8664 -2.3380
  115OSM    C5S11980   0.451   0.725   6.951  0.4787  0.5214 -0.0647
  115OSM    H5S11981   0.450   0.616   6.939  1.9696  0.6855 -2.3154
  115OSM    C6S11982   0.369   0.785   7.062  0.1640 -0.0942  0.0797
  115OSM    H6S11983   0.265   0.800   7.027 -0.4578  0.6149  2.0950
  115OSM    H6T11984   0.406   0.884   7.098  0.3258  0.1817 -0.8128
  115OSM    C7S11985   0.369   0.704   7.191  0.0698 -0.0937 -0.6434
  115OSM    H7S11986   0.475   0.687   7.220  0.2987  0.2771 -1.2421
  115OSM    H7T11987   0.324   0.605   7.170  0.3430 -0.1463 -0.9897
  115OSM    C8S11988   0.292   0.770   7.302 -0.4616 -0.4929  0.1396
  115OSM    H8S11989   0.197   0.818   7.270 -0.1832 -0.6436 -0.9371
  115OSM    H8T11990   0.353   0.851   7.347 -3.6306  2.1686  0.0718
  115OSM    C9S11991   0.263   0.688   7.434 -0.2062 -0.8578  0.2653
  115OSM    H9S11992   0.344   0.717   7.506  1.0408  0.8976 -1.7159
  115OSM    H9T11993   0.266   0.579   7.414 -1.3430 -0.8760  0.1483
  115OSM   C10S11994   0.118   0.713   7.485 -0.1363  0.7203 -0.5591
  115OSM   H10S11995   0.032   0.681   7.422 -1.4996 -2.4468  2.5541
  115OSM   H10T11996   0.111   0.823   7.499  0.9285  0.5847  1.3353
  115OSM   C11S11997   0.093   0.650   7.626  0.2748 -0.1235  0.5843
  115OSM   H11S11998   0.125   0.544   7.618  0.0558 -0.2894  1.7410
  115OSM   H11T11999  -0.017   0.652   7.645  0.2505  0.7802  0.3982
  115OSM   C12S12000   0.165   0.729   7.741  0.2014 -0.1763  0.6336
  115OSM   H12S12001   0.151   0.839   7.742 -0.1107 -0.2162  0.6170
  115OSM   H12T12002   0.275   0.717   7.726 -0.0478 -0.6528 -0.9907
  115OSM   C13S12003   0.132   0.673   7.876  0.0609  0.8154  0.3589
  115OSM   H13S12004   0.131   0.562   7.882 -1.2291  0.8768  2.4655
  115OSM   H13T12005   0.026   0.698   7.901 -0.1111 -0.6687  1.2595
  115OSM   C14S12006   0.199   0.749   7.984  0.4965  0.0894 -0.1761
  115OSM   H14S12007   0.177   0.858   7.975 -1.3006  0.0213  2.4769
  115OSM   H14T12008   0.309   0.743   7.975  0.3771 -0.6034 -1.3476
  115OSM   C15S12009   0.139   0.723   8.124 -0.0122 -0.2079  0.7906
  115OSM   H15S12010   0.153   0.616   8.153 -0.9466 -1.5317 -3.1126
  115OSM   H15T12011   0.029   0.738   8.124  0.0881  0.6918 -0.9483
  115OSM   C16S12012   0.201   0.810   8.234 -0.3228  0.3138 -0.1219
  115OSM   H16S12013   0.211   0.908   8.182 -1.7264 -0.9978 -3.1335
  115OSM   H16T12014   0.295   0.755   8.253 -0.1486  0.7505  0.2889
  115OSM   C17S12015   0.111   0.824   8.357  0.7649  0.5996  0.4137
  115OSM   H17S12016   0.121   0.728   8.412  1.6318  0.7314  0.5037
  115OSM   H17T12017   0.006   0.838   8.325  0.9431  1.0609  0.0052
  115OSM   C18S12018   0.129   0.946   8.448  0.2667 -0.3267 -0.1957
  115OSM   H18S12019   0.236   0.964   8.472  0.4640 -1.9029  0.2465
  115OSM   H18T12020   0.072   0.934   8.542  1.8389  0.7524  0.9542
  115OSM   H18U12021   0.089   1.037   8.398 -0.2244 -0.3229  0.1998
  115OSM    C1F12022   0.895   0.706   7.045 -0.5329  0.4387 -0.4691
  115OSM     OF12023   0.994   0.776   7.010  0.0805 -0.5951 -0.8834
  115OSM    C2F12024   0.867   0.653   7.185  0.4683 -0.7190  0.2730
  115OSM    H2F12025   0.829   0.550   7.168 -1.3822 -0.1198  0.6125
  115OSM    H2G12026   0.779   0.708   7.225  1.6692  3.4483 -2.2639
  115OSM    C3F12027   0.994   0.671   7.273  0.2674  0.1071 -0.3407
  115OSM    H3F12028   1.028   0.776   7.287  2.0173 -0.4252 -0.3204
  115OSM    H3G12029   1.078   0.623   7.217 -0.0777  0.0134 -0.7844
  115OSM    C4F12030   0.982   0.604   7.407  0.6988  0.1573 -0.8018
  115OSM    H4F12031   0.950   0.500   7.383 -2.1286  0.9341 -0.6867
  115OSM    H4G12032   0.893   0.642   7.460  0.3473 -0.1188 -1.1786
  115OSM    C5F12033   1.109   0.602   7.489 -0.5978  0.3629 -0.8257
  115OSM    H5F12034   1.117   0.707   7.524 -0.3157 -0.0876  0.4928
  115OSM    H5G12035   1.197   0.559   7.436 -1.7413 -0.8812 -1.7816
  115OSM    C6F12036   1.107   0.511   7.620  0.4956  0.6841  0.7679
  115OSM    H6F12037   1.210   0.508   7.660  0.6283  1.6655  0.5203
  115OSM    H6G12038   1.076   0.408   7.592  1.7191  0.8510 -1.4697
  115OSM    C7F12039   0.995   0.553   7.721  0.1050  0.5884 -0.1682
  115OSM    H7F12040   0.909   0.497   7.678  0.9001  0.4258 -1.6202
  115OSM    H7G12041   0.973   0.661   7.717 -0.9594  0.3513 -2.1006
  115OSM    C8F12042   1.014   0.497   7.865 -0.6167  0.2303 -0.3630
  115OSM    H8F12043   0.922   0.509   7.926  0.2865  0.6451  0.9685
  115OSM    H8G12044   1.097   0.552   7.915  0.5613 -1.9892  0.2521
  115OSM    C9F12045   1.052   0.348   7.877  0.3610 -1.3789  0.8937
  115OSM    H9F12046   1.161   0.333   7.888  0.9748  1.3207 -0.5130
  115OSM   C10F12047   0.960   0.249   7.889  0.0519 -0.1028 -0.2002
  115OSM   H10F12048   0.978   0.142   7.907 -0.1649 -0.0335  0.4718
  115OSM   C11F12049   0.808   0.266   7.893 -0.1331 -0.3371  0.1730
  115OSM   H11F12050   0.775   0.334   7.811  0.7075  0.8591  0.8017
  115OSM   H11G12051   0.787   0.320   7.988 -1.3176 -0.5390  0.0486
  115OSM   C12F12052   0.735   0.129   7.888  0.5157 -0.0572 -0.2352
  115OSM   H12F12053   0.628   0.154   7.909  0.9542  0.3261  1.7120
  115OSM   H12G12054   0.767   0.065   7.972  0.1703 -0.9375 -0.7624
  115OSM   C13F12055   0.747   0.054   7.754 -0.3615  0.3291 -0.9456
  115OSM   H13F12056   0.851   0.021   7.737 -0.0342 -0.5592  2.1503
  115OSM   H13G12057   0.712   0.118   7.670 -1.8574 -0.9596 -1.3601
  115OSM   C14F12058   0.660  -0.077   7.767 -0.5315 -0.7638  0.3616
  115OSM   H14F12059   0.553  -0.048   7.772  0.2755  3.9590 -3.1047
  115OSM   H14G12060   0.680  -0.115   7.869  0.5274 -0.2251  0.3593
  115OSM   C15F12061   0.696  -0.191   7.680  0.2957 -0.4356  0.1380
  115OSM   H15F12062   0.624  -0.275   7.691 -0.9699  0.4103 -1.2373
  115OSM   H15G12063   0.797  -0.226   7.709  0.9135  0.1006 -1.2573
  115OSM   C16F12064   0.704  -0.158   7.529 -0.1402  0.2659 -0.1746
  115OSM   H16F12065   0.786  -0.084   7.514  0.7329 -0.9303 -1.4783
  115OSM   H16G12066   0.617  -0.101   7.491  1.7525  3.5289 -0.0026
  115OSM   C17F12067   0.714  -0.278   7.441  0.0598  0.5854  0.2988
  115OSM   H17F12068   0.623  -0.340   7.457  0.3457  0.0735 -0.0154
  115OSM   H17G12069   0.803  -0.333   7.479  0.1198  0.3945 -0.1115
  115OSM   C18F12070   0.735  -0.243   7.293  0.5764  0.2216 -0.5780
  115OSM   H18F12071   0.657  -0.171   7.258  0.6815 -0.3790 -2.1436
  115OSM   H18G12072   0.726  -0.331   7.226 -0.8559 -0.3104  0.2484
  115OSM   H18H12073   0.834  -0.197   7.273  0.5096 -0.1538 -1.8442
  116OSM      N12074   3.469   4.006   6.789  0.0452 -0.2293  0.5926
  116OSM    C1512075   3.429   3.904   6.692 -0.5233 -0.0356  0.5624
  116OSM   H15A12076   3.323   3.908   6.675 -0.2742  0.6004 -1.0259
  116OSM   H15B12077   3.460   3.804   6.720  0.8984  0.1224 -0.3151
  116OSM   H15C12078   3.486   3.935   6.605 -1.0130  1.4721  0.7462
  116OSM    C1412079   3.497   4.142   6.719 -0.3374  0.2263 -0.5382
  116OSM   H14A12080   3.537   4.211   6.792  0.8860  0.8476 -1.7581
  116OSM   H14B12081   3.407   4.182   6.674 -0.1885 -0.9440 -1.9644
  116OSM   H14C12082   3.580   4.125   6.652  0.2218 -0.8712  0.3931
  116OSM    C1312083   3.352   4.027   6.885  0.4635  0.2798 -0.0003
  116OSM   H13A12084   3.391   4.086   6.966  3.2279 -2.6774  1.0785
  116OSM   H13B12085   3.324   3.928   6.921  2.0588 -0.3213 -0.3247
  116OSM   H13C12086   3.271   4.076   6.833  1.1929  1.9352  0.3903
  116OSM    C1212087   3.591   3.959   6.875  0.3435  0.7614 -0.7231
  116OSM   H12A12088   3.598   4.026   6.959 -2.2611 -0.8259  0.9032
  116OSM   H12B12089   3.680   3.954   6.814  1.3572 -0.5129  0.7842
  116OSM    C1112090   3.576   3.821   6.955 -0.1034  0.1801 -0.2706
  116OSM   H11A12091   3.483   3.819   7.015  1.6069  1.1036  2.6316
  116OSM   H11B12092   3.646   3.804   7.040 -0.7147 -1.1477 -0.0084
  116OSM      P12093   3.683   3.652   6.777 -0.1774  0.1423 -0.0165
  116OSM    O1312094   3.630   3.555   6.683 -0.4351  0.2762  0.1349
  116OSM    O1412095   3.769   3.758   6.717  0.9987 -0.0751  0.2308
  116OSM    O1112096   3.773   3.561   6.879  0.0285 -0.6216 -0.1797
  116OSM    O1212097   3.567   3.710   6.859  0.4997  0.2197 -0.0949
  116OSM    C1S12098   3.773   3.569   7.018 -0.4655  0.3801  0.3436
  116OSM    H1S12099   3.669   3.578   7.054 -0.9651 -1.5102 -0.5393
  116OSM    H1T12100   3.826   3.658   7.059  0.2117  0.0221  0.2672
  116OSM     NF12101   3.841   3.450   7.231 -0.2318 -0.0572  0.4142
  116OSM    HNF12102   3.933   3.456   7.269  0.4485  0.1141 -1.1657
  116OSM    C2S12103   3.838   3.442   7.083  0.0460  0.6627  0.1989
  116OSM    H2S12104   3.767   3.358   7.067  1.6557 -0.8797  0.7428
  116OSM    C3S12105   3.977   3.404   7.028  0.1798  0.0240  0.2297
  116OSM    H3S12106   4.043   3.480   7.075 -0.7048  0.7631  0.3136
  116OSM     O312107   3.992   3.432   6.886 -0.0100 -0.0705  0.2609
  116OSM    HO312108   3.915   3.485   6.866 -0.0699 -0.1931  0.1693
  116OSM    C4S12109   4.027   3.266   7.063  0.4730  0.0829  0.0795
  116OSM    H4S12110   4.093   3.267   7.151  0.0620  0.5527  0.3864
  116OSM    C5S12111   4.008   3.150   6.995  0.4322 -0.4649  0.4712
  116OSM    H5S12112   3.938   3.156   6.910 -2.2309 -3.2184  2.2954
  116OSM    C6S12113   4.063   3.015   7.011 -0.0848 -0.5870 -0.8250
  116OSM    H6S12114   4.117   2.989   6.917  1.1723  0.3334 -0.3793
  116OSM    H6T12115   3.972   2.951   7.011  0.6314 -1.6734  1.1873
  116OSM    C7S12116   4.139   2.971   7.138 -0.8872 -0.6781  0.2121
  116OSM    H7S12117   4.220   3.043   7.163  4.6745 -5.2591 -2.5450
  116OSM    H7T12118   4.203   2.883   7.115  0.3120 -0.8455  3.7123
  116OSM    C8S12119   4.055   2.957   7.269  0.6872  0.4433  0.6058
  116OSM    H8S12120   3.986   2.870   7.269  1.3043 -0.1045  2.4595
  116OSM    H8T12121   3.999   3.052   7.282 -0.3508  0.2898 -2.0776
  116OSM    C9S12122   4.138   2.930   7.393 -0.1583  0.1924 -0.3174
  116OSM    H9S12123   4.214   3.010   7.387  0.6980 -0.6594 -1.1449
  116OSM    H9T12124   4.178   2.826   7.395 -0.2276  0.1748  0.9250
  116OSM   C10S12125   4.052   2.946   7.523 -0.5330 -0.1064 -0.3738
  116OSM   H10S12126   3.980   2.862   7.515  0.3124 -0.7774 -1.3689
  116OSM   H10T12127   3.990   3.037   7.530 -1.0005 -0.5608  2.5714
  116OSM   C11S12128   4.140   2.944   7.648  0.2060  0.0010  0.1370
  116OSM   H11S12129   4.227   3.014   7.639 -0.8942  1.4530  0.3682
  116OSM   H11T12130   4.177   2.840   7.638 -3.5468 -1.4315 -0.3658
  116OSM   C12S12131   4.069   2.949   7.781 -0.1670 -0.1068 -1.1863
  116OSM   H12S12132   4.016   2.851   7.786  0.3785 -0.5946 -3.5085
  116OSM   H12T12133   3.993   3.029   7.785 -0.3504 -0.1790 -2.4964
  116OSM   C13S12134   4.175   2.954   7.891 -0.5685 -0.1287  0.0911
  116OSM   H13S12135   4.241   3.042   7.876  1.2185 -1.1549  1.5524
  116OSM   H13T12136   4.250   2.877   7.863  0.0410  0.5246 -0.1053
  116OSM   C14S12137   4.135   2.943   8.039 -0.1895 -0.1583  0.3494
  116OSM   H14S12138   4.070   2.854   8.049  1.1884 -1.4263 -1.4039
  116OSM   H14T12139   4.068   3.029   8.061  2.0610  1.3050  1.9183
  116OSM   C15S12140   4.263   2.945   8.135 -0.6619  0.1018  0.9100
  116OSM   H15S12141   4.343   3.019   8.112 -1.0016 -0.2240 -1.5971
  116OSM   H15T12142   4.312   2.850   8.104  0.1325  1.2006 -1.4408
  116OSM   C16S12143   4.229   2.948   8.280 -0.4851 -0.6187  0.2108
  116OSM   H16S12144   4.137   2.885   8.286 -2.6322  2.1712 -1.0916
  116OSM   H16T12145   4.180   3.041   8.314  0.7181 -0.1423  0.6900
  116OSM   C17S12146   4.342   2.914   8.384  0.5467  1.0172  0.3245
  116OSM   H17S12147   4.414   2.999   8.384  1.2267  0.6254 -3.5507
  116OSM   H17T12148   4.418   2.840   8.353 -0.8367  0.2006 -1.3279
  116OSM   C18S12149   4.282   2.889   8.514  0.0799  0.7821  0.0416
  116OSM   H18S12150   4.360   2.886   8.594 -0.0227  1.5332  0.1727
  116OSM   H18T12151   4.225   2.794   8.526  2.2450 -0.2136  4.5353
  116OSM   H18U12152   4.221   2.974   8.549 -0.6219  0.3915 -0.2136
  116OSM    C1F12153   3.732   3.472   7.309  0.2223  0.1401 -0.6026
  116OSM     OF12154   3.622   3.474   7.257 -1.0474 -0.3710  0.2884
  116OSM    C2F12155   3.750   3.495   7.456 -0.5641 -0.4644 -0.2398
  116OSM    H2F12156   3.664   3.456   7.516 -0.0331 -1.3529 -0.0298
  116OSM    H2G12157   3.774   3.602   7.467  0.4408 -0.5049 -1.7868
  116OSM    C3F12158   3.869   3.408   7.516 -0.1087 -0.0742 -0.2990
  116OSM    H3F12159   3.952   3.447   7.453 -0.3780  0.2374 -0.4654
  116OSM    H3G12160   3.870   3.299   7.494  0.3458 -0.8058  2.8515
  116OSM    C4F12161   3.901   3.440   7.664 -0.6319  0.5455 -1.0328
  116OSM    H4F12162   3.843   3.526   7.703 -0.1495  1.3684 -2.0669
  116OSM    H4G12163   4.010   3.460   7.678 -0.9803  3.3339 -1.7840
  116OSM    C5F12164   3.861   3.323   7.758 -0.2083 -0.3868 -0.3212
  116OSM    H5F12165   3.905   3.225   7.732 -0.3088 -0.8259  1.1089
  116OSM    H5G12166   3.751   3.313   7.767 -0.3804  2.2489  1.8474
  116OSM    C6F12167   3.898   3.356   7.904  0.5446 -0.5120  0.1396
  116OSM    H6F12168   3.872   3.461   7.927  1.0101  0.1142 -2.0053
  116OSM    H6G12169   4.008   3.351   7.916  0.7601  2.6083  0.2754
  116OSM    C7F12170   3.835   3.250   8.002  0.5229  0.1542 -0.4608
  116OSM    H7F12171   3.857   3.144   7.981  0.3268 -0.5810  2.5473
  116OSM    H7G12172   3.724   3.264   8.003  0.6193  1.0004 -0.8427
  116OSM    C8F12173   3.862   3.280   8.148  0.6570  1.1571 -0.3671
  116OSM    H8F12174   3.878   3.388   8.170 -1.8969  2.2961 -3.2830
  116OSM    H8G12175   3.958   3.236   8.180  0.2585  0.7629  0.3019
  116OSM    C9F12176   3.760   3.228   8.247 -0.4948 -0.1757 -0.3634
  116OSM    H9F12177   3.744   3.119   8.241  0.0344 -0.2939  0.2929
  116OSM   C10F12178   3.693   3.300   8.339 -0.4028 -0.4190 -0.1378
  116OSM   H10F12179   3.611   3.249   8.390 -2.4127 -0.7334 -3.4045
  116OSM   C11F12180   3.690   3.445   8.362 -0.1737 -0.5640  0.3812
  116OSM   H11F12181   3.585   3.478   8.373  0.1603  1.3392 -1.4345
  116OSM   H11G12182   3.728   3.502   8.274  0.6008 -2.2899 -0.4552
  116OSM   C12F12183   3.751   3.488   8.494 -0.1264 -0.5522 -0.3777
  116OSM   H12F12184   3.742   3.599   8.491  2.3110 -0.1749  2.3226
  116OSM   H12G12185   3.860   3.473   8.510  0.2056  1.4161 -0.4319
  116OSM   C13F12186   3.673   3.438   8.618  0.4573  0.3163 -0.3708
  116OSM   H13F12187   3.687   3.329   8.632 -0.3667  0.3689  1.0156
  116OSM   H13G12188   3.566   3.460   8.594  0.4214 -0.9482 -1.5039
  116OSM   C14F12189   3.714   3.515   8.741  0.3394 -0.3090 -0.3584
  116OSM   H14F12190   3.710   3.625   8.732  3.2085 -0.0778  0.3136
  116OSM   H14G12191   3.821   3.495   8.762 -0.4322 -2.1429  2.4087
  116OSM   C15F12192   3.630   3.495   8.864  0.4545  0.1700 -0.4455
  116OSM   H15F12193   3.534   3.547   8.845 -1.1147 -2.4528 -0.2160
  116OSM   H15G12194   3.690   3.539   8.946 -0.2687 -0.1940  0.2860
  116OSM   C16F12195   3.588   3.347   8.888  0.2425  0.0157  0.5702
  116OSM   H16F12196   3.533   3.305   8.801  2.8576 -2.6367  0.0471
  116OSM   H16G12197   3.516   3.356   8.972  0.6407  0.7510  0.8438
  116OSM   C17F12198   3.714   3.267   8.922  0.1061 -1.0043 -0.4758
  116OSM   H17F12199   3.790   3.325   8.977 -0.3353 -1.2308  0.3958
  116OSM   H17G12200   3.766   3.224   8.834 -0.2779 -0.6699 -0.8679
  116OSM   C18F12201   3.664   3.146   9.007 -0.2242  0.1723  0.0955
  116OSM   H18F12202   3.658   3.172   9.115  1.6948  0.6092  0.1257
  116OSM   H18G12203   3.746   3.072   8.996  0.1424  0.7134 -0.8543
  116OSM   H18H12204   3.567   3.101   8.975 -0.3762  0.6053 -0.0495
  117OSM      N12205   5.854   0.140   6.358  0.3186  0.1137  0.8684
  117OSM    C1512206   5.914   0.196   6.231  0.6860 -0.0298  0.4525
  117OSM   H15A12207   6.009   0.245   6.249  1.7790 -1.7830 -0.2362
  117OSM   H15B12208   5.854   0.273   6.186  1.1992 -0.2807 -0.6806
  117OSM   H15C12209   5.940   0.123   6.157 -0.1038  0.3981 -0.2567
  117OSM    C1412210   5.849   0.256   6.452  0.1528  0.0420 -0.8387
  117OSM   H14A12211   5.941   0.304   6.480 -0.2052  2.0329 -2.8231
  117OSM   H14B12212   5.807   0.223   6.546 -0.8139  0.3850 -1.1389
  117OSM   H14C12213   5.781   0.334   6.421  1.0216  1.8426  1.4704
  117OSM    C1312214   5.713   0.088   6.331 -0.4495 -0.3917 -0.2070
  117OSM   H13A12215   5.724   0.004   6.264 -1.5688  0.0451 -0.9632
  117OSM   H13B12216   5.646   0.165   6.295 -0.7325 -0.4911  0.1174
  117OSM   H13C12217   5.676   0.051   6.425 -1.9537  1.1078 -0.1565
  117OSM    C1212218   5.938   0.024   6.399 -0.0114  0.3249  0.8566
  117OSM   H12A12219   6.035   0.061   6.431  2.1079 -0.7940 -3.4364
  117OSM   H12B12220   5.952  -0.043   6.316  1.6056  1.2391  0.3375
  117OSM    C1112221   5.892  -0.060   6.519  0.3430 -1.1956 -0.0324
  117OSM   H11A12222   5.880   0.007   6.607 -3.2194  0.3076 -1.4646
  117OSM   H11B12223   5.959  -0.142   6.551 -1.2169 -2.7392 -0.5560
  117OSM      P12224   5.756  -0.257   6.419 -0.1483 -0.2642  0.3549
  117OSM    O1312225   5.612  -0.304   6.413  0.1960  0.0726  0.1547
  117OSM    O1412226   5.828  -0.244   6.292 -0.0988  0.3367  0.3555
  117OSM    O1112227   5.839  -0.357   6.514 -0.4840  0.4125  0.2568
  117OSM    O1212228   5.764  -0.119   6.494  0.2051  0.0168  0.2201
  117OSM    C1S12229   5.827  -0.365   6.657 -1.0393 -0.5286  0.0117
  117OSM    H1S12230   5.730  -0.320   6.688 -1.2227  0.5282 -1.9865
  117OSM    H1T12231   5.913  -0.312   6.702  1.4567 -3.1457 -1.3335
  117OSM     NF12232   5.808  -0.517   6.858 -0.0280  0.0351 -0.7592
  117OSM    HNF12233   5.877  -0.540   6.926 -0.0574  1.0074 -0.3922
  117OSM    C2S12234   5.837  -0.513   6.717 -0.1286 -0.0981 -0.1886
  117OSM    H2S12235   5.758  -0.576   6.671 -0.1201 -0.1415 -0.1438
  117OSM    C3S12236   5.980  -0.571   6.678 -0.1412  0.2686 -0.1574
  117OSM    H3S12237   6.052  -0.521   6.746 -0.1684 -1.2849  1.0808
  117OSM     O312238   6.019  -0.546   6.543  0.0780  0.2287 -0.1503
  117OSM    HO312239   5.946  -0.494   6.508 -0.2645  0.0159  0.2462
  117OSM    C4S12240   5.979  -0.718   6.703  1.0057 -0.6625  0.5940
  117OSM    H4S12241   5.903  -0.783   6.657  2.0385 -1.7044  0.3148
  117OSM    C5S12242   6.067  -0.787   6.774  0.5796 -0.2234  0.2612
  117OSM    H5S12243   6.143  -0.739   6.837  1.8168 -0.3084 -1.1224
  117OSM    C6S12244   6.055  -0.934   6.797 -0.1056 -0.0679  0.7387
  117OSM    H6S12245   6.149  -0.981   6.762  0.4245  0.0390  1.9716
  117OSM    H6T12246   5.980  -0.978   6.728  0.0239  2.5464 -1.1956
  117OSM    C7S12247   6.037  -0.978   6.939  0.0464 -0.0061 -0.2124
  117OSM    H7S12248   6.112  -0.932   7.008  1.2523 -1.7050 -0.3223
  117OSM    H7T12249   6.062  -1.086   6.940  0.0888 -0.0329 -1.8241
  117OSM    C8S12250   5.893  -0.964   6.992 -0.1553  0.1200  0.3442
  117OSM    H8S12251   5.814  -1.025   6.944  1.3010 -0.7120 -1.0973
  117OSM    H8T12252   5.877  -0.856   6.972  1.1333 -0.2996 -3.7106
  117OSM    C9S12253   5.892  -0.996   7.142  0.5811 -0.6496  1.0417
  117OSM    H9S12254   5.787  -0.980   7.172 -0.5381  1.2273 -3.1798
  117OSM    H9T12255   5.954  -0.926   7.203  0.7778  1.1512 -1.0891
  117OSM   C10S12256   5.932  -1.133   7.184  0.2764  0.1837  0.1249
  117OSM   H10S12257   6.042  -1.145   7.199  0.1597 -0.1700  0.7388
  117OSM   H10T12258   5.907  -1.203   7.101  1.4271 -0.1787  0.0621
  117OSM   C11S12259   5.850  -1.173   7.311 -0.0462  0.8784 -0.4449
  117OSM   H11S12260   5.757  -1.216   7.268  0.3301  0.3694 -0.7645
  117OSM   H11T12261   5.840  -1.084   7.377 -2.6174 -0.0084  0.4901
  117OSM   C12S12262   5.914  -1.289   7.391 -0.5585 -0.0582  0.0823
  117OSM   H12S12263   6.024  -1.282   7.401 -0.4865 -0.8149 -0.0767
  117OSM   H12T12264   5.903  -1.363   7.309 -0.6502  2.4264 -2.2583
  117OSM   C13S12265   5.845  -1.311   7.529  0.9574 -0.7359  0.5929
  117OSM   H13S12266   5.735  -1.303   7.519  0.5270 -1.8072  3.3948
  117OSM   H13T12267   5.879  -1.230   7.597  1.0144  0.6625 -1.0591
  117OSM   C14S12268   5.869  -1.446   7.587  0.5897 -0.0045 -0.8478
  117OSM   H14S12269   5.978  -1.435   7.607  0.7330  2.2992 -2.5594
  117OSM   H14T12270   5.846  -1.526   7.513  0.1479 -1.2405  0.5576
  117OSM   C15S12271   5.800  -1.474   7.725 -0.3513 -0.1065  1.0030
  117OSM   H15S12272   5.818  -1.582   7.746  1.8258  0.1121  0.5009
  117OSM   H15T12273   5.691  -1.453   7.725 -0.3288  0.3088 -1.3321
  117OSM   C16S12274   5.871  -1.399   7.845  0.1828 -0.0191  0.7597
  117OSM   H16S12275   5.885  -1.293   7.817  0.0697 -0.0989  0.3881
  117OSM   H16T12276   5.977  -1.431   7.855  0.8392  1.2464 -1.4133
  117OSM   C17S12277   5.794  -1.416   7.984 -0.7543 -0.1769  1.0167
  117OSM   H17S12278   5.792  -1.526   8.002 -0.5950 -0.7248 -1.7932
  117OSM   H17T12279   5.691  -1.382   7.961 -0.7578 -0.6185  0.3281
  117OSM   C18S12280   5.862  -1.342   8.101  0.1894 -0.2722  0.7952
  117OSM   H18S12281   5.860  -1.234   8.078  1.2014 -0.0570  1.6246
  117OSM   H18T12282   5.969  -1.370   8.114  0.8251  2.2842  1.5710
  117OSM   H18U12283   5.810  -1.363   8.197 -2.7140  0.7340 -0.4386
  117OSM    C1F12284   5.682  -0.498   6.898 -0.2502 -0.6352  0.5138
  117OSM     OF12285   5.591  -0.496   6.814  0.2041  0.3187 -0.5213
  117OSM    C2F12286   5.667  -0.484   7.048 -0.3109  0.3866  0.4582
  117OSM    H2F12287   5.615  -0.390   7.077 -1.2905 -0.6065  2.1568
  117OSM    H2G12288   5.765  -0.498   7.099  0.8173 -0.5861 -1.8264
  117OSM    C3F12289   5.571  -0.601   7.101 -0.5585 -0.6475  0.2534
  117OSM    H3F12290   5.613  -0.699   7.068  1.8715  1.0023 -1.9400
  117OSM    H3G12291   5.476  -0.593   7.043  0.3126 -0.2509 -1.1627
  117OSM    C4F12292   5.542  -0.599   7.249  0.4828  0.1650 -0.1994
  117OSM    H4F12293   5.469  -0.681   7.267  0.2187  0.5491  0.5012
  117OSM    H4G12294   5.493  -0.501   7.269  2.1314  1.4026 -1.7949
  117OSM    C5F12295   5.666  -0.602   7.339 -0.4711 -0.0583  0.4044
  117OSM    H5F12296   5.633  -0.614   7.445  1.6906  0.9248  1.2504
  117OSM    H5G12297   5.717  -0.504   7.330  1.1830 -0.9539 -0.3288
  117OSM    C6F12298   5.762  -0.721   7.316 -0.2059  0.1918  0.0419
  117OSM    H6F12299   5.798  -0.730   7.212  0.4975  1.3065  0.1650
  117OSM    H6G12300   5.706  -0.817   7.324  2.8835 -1.8915 -1.4641
  117OSM    C7F12301   5.879  -0.724   7.412 -0.3625  0.4275 -1.0477
  117OSM    H7F12302   5.943  -0.636   7.390  0.1305  0.1988 -0.5535
  117OSM    H7G12303   5.939  -0.816   7.395  2.2096  2.0468 -1.3438
  117OSM    C8F12304   5.839  -0.702   7.566 -0.5969  0.1647  0.8620
  117OSM    H8F12305   5.768  -0.780   7.601 -0.7893 -0.6874 -1.3026
  117OSM    H8G12306   5.783  -0.608   7.586 -0.7050  0.5894 -1.2546
  117OSM    C9F12307   5.963  -0.693   7.648 -0.5600 -0.1443 -0.2204
  117OSM    H9F12308   6.019  -0.599   7.635 -0.6289 -0.0224  0.3320
  117OSM   C10F12309   6.009  -0.779   7.740  0.0066  0.1545 -0.1732
  117OSM   H10F12310   6.112  -0.762   7.776  0.2271  0.3739 -0.8833
  117OSM   C11F12311   5.937  -0.911   7.778  0.3285 -0.2002 -0.8941
  117OSM   H11F12312   5.972  -1.001   7.724 -1.4308 -2.8870  2.0935
  117OSM   H11G12313   5.830  -0.897   7.753 -0.0266 -0.2968  0.5110
  117OSM   C12F12314   5.939  -0.936   7.932  0.0996 -0.4388 -0.7321
  117OSM   H12F12315   5.865  -1.015   7.958 -0.2907  0.1095 -0.1410
  117OSM   H12G12316   5.890  -0.850   7.983  1.1037 -1.1719  1.6007
  117OSM   C13F12317   6.074  -0.966   7.989 -0.1203 -0.3531 -0.8861
  117OSM   H13F12318   6.134  -0.873   8.000 -0.7953  0.1657 -1.4611
  117OSM   H13G12319   6.118  -1.038   7.916  0.3932 -2.2008  1.1571
  117OSM   C14F12320   6.067  -1.019   8.134 -0.3362  0.3073 -0.3942
  117OSM   H14F12321   6.166  -1.047   8.175 -0.4457  1.4152  0.6835
  117OSM   H14G12322   6.009  -1.114   8.133 -0.1161  0.1139  1.7287
  117OSM   C15F12323   6.004  -0.914   8.227 -0.2572 -0.5673 -0.0747
  117OSM   H15F12324   5.900  -0.894   8.192 -0.2345  1.3373  0.8758
  117OSM   H15G12325   6.057  -0.819   8.208  0.4996 -0.9482  0.0717
  117OSM   C16F12326   6.007  -0.950   8.380 -0.6926  0.3451 -0.0519
  117OSM   H16F12327   5.950  -0.872   8.435  0.0056 -0.5742  2.0806
  117OSM   H16G12328   6.111  -0.951   8.419 -0.9461 -2.4591  0.7606
  117OSM   C17F12329   5.948  -1.086   8.419  0.0387 -0.2577 -0.6842
  117OSM   H17F12330   5.849  -1.078   8.369  0.1947 -0.0248 -0.9584
  117OSM   H17G12331   6.003  -1.172   8.374 -0.5139 -0.1299 -1.6478
  117OSM   C18F12332   5.941  -1.097   8.573 -0.0764  0.2746 -0.0306
  117OSM   H18F12333   5.860  -1.033   8.614  1.2250  2.3688 -0.5699
  117OSM   H18G12334   6.042  -1.076   8.615  1.2595 -0.9859 -2.4070
  117OSM   H18H12335   5.917  -1.203   8.599 -0.3737  0.5067  0.6536
  118OSM      N12336   0.272   1.798   6.298  0.0267  0.2298  0.5077
  118OSM    C1512337   0.123   1.825   6.305  0.4190 -0.5214  0.1428
  118OSM   H15A12338   0.082   1.876   6.219 -1.1553 -1.1549  0.4743
  118OSM   H15B12339   0.095   1.873   6.398 -1.9102 -2.9929  0.8458
  118OSM   H15C12340   0.065   1.734   6.317 -0.0454 -0.2167  0.2720
  118OSM    C1412341   0.306   1.703   6.182 -0.8422  0.6637  0.2056
  118OSM   H14A12342   0.241   1.618   6.166  0.1046  0.1091 -0.8116
  118OSM   H14B12343   0.408   1.672   6.194 -1.2039 -0.5521  0.2066
  118OSM   H14C12344   0.311   1.761   6.091  0.9676  0.4759  0.1594
  118OSM    C1312345   0.339   1.925   6.284 -0.0838 -0.6311  0.0232
  118OSM   H13A12346   0.313   1.964   6.187 -1.2117 -1.3931 -0.0030
  118OSM   H13B12347   0.446   1.913   6.290 -0.3053 -2.2281  2.2908
  118OSM   H13C12348   0.307   2.001   6.354 -0.3739 -1.1224  0.4350
  118OSM    C1212349   0.306   1.725   6.430  0.1597 -0.2705  0.2092
  118OSM   H12A12350   0.252   1.632   6.430  1.2749 -0.9276  0.1207
  118OSM   H12B12351   0.274   1.788   6.512 -0.9839  0.9841 -1.1316
  118OSM    C1112352   0.449   1.685   6.455 -0.3755 -0.0235  0.0175
  118OSM   H11A12353   0.475   1.666   6.561  2.3489  1.9971 -0.1846
  118OSM   H11B12354   0.517   1.765   6.418 -0.3693 -0.0586 -0.0472
  118OSM      P12355   0.456   1.416   6.422 -0.1719  0.2474 -0.1343
  118OSM    O1312356   0.310   1.388   6.420 -0.4281 -0.7077  0.1075
  118OSM    O1412357   0.540   1.338   6.335  0.2931  0.1546 -0.1424
  118OSM    O1112358   0.511   1.400   6.572 -0.2830 -0.0026 -0.2145
  118OSM    O1212359   0.488   1.563   6.387  0.0083  0.0978 -0.2829
  118OSM    C1S12360   0.646   1.421   6.612  0.6261 -0.2746 -0.9605
  118OSM    H1S12361   0.673   1.529   6.620  1.5241 -0.5967  0.7204
  118OSM    H1T12362   0.724   1.370   6.552 -0.2853 -1.9675 -0.7701
  118OSM     NF12363   0.792   1.437   6.802  0.5043  0.1376 -0.6972
  118OSM    HNF12364   0.875   1.382   6.796  1.8091  1.9129  0.0004
  118OSM    C2S12365   0.658   1.379   6.763 -0.9917 -0.6304  0.0731
  118OSM    H2S12366   0.580   1.426   6.826 -1.1251 -0.3966 -0.2619
  118OSM    C3S12367   0.644   1.222   6.765 -0.1318  0.4407 -0.5690
  118OSM    H3S12368   0.718   1.189   6.689 -1.2344  2.3751 -2.5854
  118OSM     O312369   0.527   1.177   6.704  0.6932  0.1032  0.1419
  118OSM    HO312370   0.489   1.256   6.663 -1.4585 -0.9843 -0.0913
  118OSM    C4S12371   0.660   1.172   6.907  0.7423  0.4194 -0.1277
  118OSM    H4S12372   0.764   1.160   6.943  0.5507 -1.0739 -0.0165
  118OSM    C5S12373   0.561   1.165   7.003 -0.4333  0.4545  0.3582
  118OSM    H5S12374   0.455   1.181   6.977 -1.7839 -1.9494  3.6258
  118OSM    C6S12375   0.577   1.137   7.151  0.0959  0.7595 -0.6397
  118OSM    H6S12376   0.507   1.057   7.182 -0.0996  0.3254 -2.1056
  118OSM    H6T12377   0.547   1.222   7.215  1.9944  1.2967 -0.4142
  118OSM    C7S12378   0.718   1.078   7.193  0.9861  0.3329 -0.8949
  118OSM    H7S12379   0.799   1.151   7.170  2.6265 -0.9006  0.6653
  118OSM    H7T12380   0.740   0.984   7.140  1.7743  0.2147 -0.3782
  118OSM    C8S12381   0.737   1.043   7.343 -0.1090  0.4549  0.1254
  118OSM    H8S12382   0.756   1.138   7.398  0.8790  0.9463 -1.0110
  118OSM    H8T12383   0.838   1.000   7.354  0.5162  1.6881 -0.6034
  118OSM    C9S12384   0.634   0.953   7.404 -0.6065  0.1536 -0.2501
  118OSM    H9S12385   0.598   0.878   7.329  0.8680 -1.4828  0.6151
  118OSM    H9T12386   0.538   1.007   7.422 -1.4881 -0.5424 -2.4109
  118OSM   C10S12387   0.679   0.882   7.530 -0.4959  0.3297 -0.0848
  118OSM   H10S12388   0.786   0.900   7.550  0.1675 -1.9907 -1.2391
  118OSM   H10T12389   0.665   0.771   7.526 -0.8149  0.2535  1.8198
  118OSM   C11S12390   0.610   0.932   7.660  0.7749  0.4731  0.1932
  118OSM   H11S12391   0.501   0.912   7.657  0.8854 -0.2483  0.8572
  118OSM   H11T12392   0.629   1.041   7.667  0.3432  0.7501 -1.9828
  118OSM   C12S12393   0.657   0.852   7.784  0.8582  0.1695 -0.3969
  118OSM   H12S12394   0.765   0.860   7.808  0.7429 -1.0300  0.6294
  118OSM   H12T12395   0.638   0.744   7.765 -2.0132  0.3361  1.0111
  118OSM   C13S12396   0.570   0.894   7.909  0.1410 -0.2493 -0.7197
  118OSM   H13S12397   0.461   0.882   7.889 -0.5294  0.6292  2.0452
  118OSM   H13T12398   0.595   1.002   7.917  1.1385 -0.4739 -0.7105
  118OSM   C14S12399   0.616   0.832   8.043  0.2934  0.4294  1.0114
  118OSM   H14S12400   0.727   0.839   8.054  0.3160  1.6039  0.1890
  118OSM   H14T12401   0.590   0.724   8.037 -0.0085  0.5651 -0.3208
  118OSM   C15S12402   0.536   0.892   8.157 -1.0754 -0.3457  0.3091
  118OSM   H15S12403   0.430   0.860   8.154 -1.3242  0.4746  0.1412
  118OSM   H15T12404   0.541   1.002   8.146  0.1235 -0.6590 -3.7568
  118OSM   C16S12405   0.593   0.854   8.294  0.0822 -0.3999  0.8476
  118OSM   H16S12406   0.698   0.889   8.308  0.0169  0.1370  0.0370
  118OSM   H16T12407   0.590   0.743   8.290  1.2307 -0.4150 -2.0776
  118OSM   C17S12408   0.503   0.907   8.411  0.0609  0.2632 -0.1841
  118OSM   H17S12409   0.401   0.863   8.403  0.0239  0.2418  0.3845
  118OSM   H17T12410   0.500   1.017   8.392 -0.9194  0.1088 -1.0506
  118OSM   C18S12411   0.565   0.875   8.544 -0.1668 -0.1583 -0.8710
  118OSM   H18S12412   0.528   0.777   8.579  1.8506 -1.2882 -1.7250
  118OSM   H18T12413   0.533   0.959   8.611 -1.7785 -0.0530 -1.7369
  118OSM   H18U12414   0.676   0.869   8.544 -0.0083  1.1253  1.6268
  118OSM    C1F12415   0.806   1.567   6.837  0.0185  0.5148  0.3109
  118OSM     OF12416   0.707   1.639   6.836  0.3501 -0.3035  0.7117
  118OSM    C2F12417   0.941   1.614   6.890  1.0631 -0.0583  0.3249
  118OSM    H2F12418   0.980   1.700   6.831  1.4397 -1.8428 -2.1952
  118OSM    H2G12419   1.019   1.535   6.878 -0.1258 -1.2032 -0.1736
  118OSM    C3F12420   0.929   1.621   7.044 -0.0979 -0.3744 -0.4069
  118OSM    H3F12421   1.028   1.642   7.090 -0.1664 -0.9629  0.0221
  118OSM    H3G12422   0.909   1.519   7.083 -0.9690 -0.9649 -2.3130
  118OSM    C4F12423   0.825   1.721   7.099  0.0090  0.0175  0.8550
  118OSM    H4F12424   0.728   1.667   7.098  0.5830 -1.0543 -0.8598
  118OSM    H4G12425   0.817   1.812   7.035  0.4819 -1.2282 -1.0624
  118OSM    C5F12426   0.861   1.767   7.245  0.4674 -0.9067  0.9941
  118OSM    H5F12427   0.786   1.840   7.280 -0.9256 -0.5438 -2.3707
  118OSM    H5G12428   0.959   1.820   7.250  0.4488 -0.8684  0.9493
  118OSM    C6F12429   0.880   1.665   7.357 -0.1222  0.0373  0.9526
  118OSM    H6F12430   0.965   1.596   7.335  0.0171 -0.3609  2.5607
  118OSM    H6G12431   0.785   1.612   7.381 -0.7324  0.9232  0.5248
  118OSM    C7F12432   0.917   1.739   7.483 -0.5703  0.1526  0.2624
  118OSM    H7F12433   0.831   1.809   7.484 -2.5175 -2.1207  0.2339
  118OSM    H7G12434   1.011   1.798   7.478 -0.9921  0.8051 -0.0520
  118OSM    C8F12435   0.918   1.652   7.609 -0.7485 -0.0148 -0.6834
  118OSM    H8F12436   0.966   1.712   7.688 -0.1761 -0.5078 -0.6476
  118OSM    H8G12437   0.986   1.566   7.593 -0.4299 -0.5500  2.8613
  118OSM    C9F12438   0.790   1.602   7.662  0.5257  0.5839 -0.2544
  118OSM    H9F12439   0.717   1.681   7.688  1.1916  0.9047  0.6794
  118OSM   C10F12440   0.744   1.477   7.684  0.6816 -0.1471  0.0265
  118OSM   H10F12441   0.649   1.468   7.739  0.8696  0.5207  0.4767
  118OSM   C11F12442   0.814   1.342   7.672  0.1271  0.3081 -0.2795
  118OSM   H11F12443   0.924   1.359   7.675 -0.0665  1.5599  0.5680
  118OSM   H11G12444   0.789   1.286   7.579  1.5981  0.3089 -0.7019
  118OSM   C12F12445   0.786   1.246   7.791  0.8703 -0.1599 -0.1062
  118OSM   H12F12446   0.839   1.148   7.791 -0.2717 -0.7923  0.1927
  118OSM   H12G12447   0.677   1.227   7.796  0.6560  1.1640  0.6645
  118OSM   C13F12448   0.828   1.304   7.932 -0.2550 -0.4858 -0.1718
  118OSM   H13F12449   0.774   1.398   7.954  0.1865 -0.0096 -1.0913
  118OSM   H13G12450   0.935   1.335   7.932 -0.4645  0.2620  0.3129
  118OSM   C14F12451   0.813   1.197   8.047  0.5538 -0.5234 -0.1888
  118OSM   H14F12452   0.853   1.101   8.006  1.9491  0.8264 -2.1424
  118OSM   H14G12453   0.703   1.181   8.055  0.5037  0.4469  1.2818
  118OSM   C15F12454   0.883   1.239   8.174 -0.0759 -0.2984  0.2423
  118OSM   H15F12455   0.842   1.336   8.209 -0.6142 -1.9310  4.6793
  118OSM   H15G12456   0.991   1.252   8.152 -0.1458  0.5984  0.4010
  118OSM   C16F12457   0.869   1.130   8.286 -0.4472 -0.0811 -0.2298
  118OSM   H16F12458   0.961   1.067   8.287 -0.4472 -0.1596  2.2285
  118OSM   H16G12459   0.780   1.066   8.272 -0.3742 -0.6675  1.7107
  118OSM   C17F12460   0.865   1.211   8.422  0.0698  0.0656  0.2259
  118OSM   H17F12461   0.940   1.292   8.411  1.6460 -1.0583  2.0844
  118OSM   H17G12462   0.901   1.145   8.504  0.7843  0.8023  0.5121
  118OSM   C18F12463   0.729   1.277   8.452  0.6795  0.3143 -0.0192
  118OSM   H18F12464   0.739   1.356   8.529  2.7844  1.3817 -1.3041
  118OSM   H18G12465   0.656   1.196   8.475 -1.5658  2.0418 -0.7055
  118OSM   H18H12466   0.690   1.326   8.361 -0.2388  2.6506  1.5332
  119OSM      N12467   4.104   1.530   6.661 -0.0260 -0.2465 -0.3697
  119OSM    C1512468   4.024   1.578   6.777  0.4987 -0.0067  0.0469
  119OSM   H15A12469   3.923   1.541   6.776  0.6044 -0.3101  0.3055
  119OSM   H15B12470   4.015   1.685   6.794 -4.3619 -0.3780  1.2929
  119OSM   H15C12471   4.061   1.542   6.872 -1.3621  1.9628  1.6392
  119OSM    C1412472   4.046   1.601   6.539  0.0528 -0.2249 -0.1001
  119OSM   H14A12473   3.939   1.590   6.530  0.0186  1.1847 -2.0177
  119OSM   H14B12474   4.095   1.560   6.452  0.7236 -0.3639  0.3375
  119OSM   H14C12475   4.057   1.708   6.541  1.3699 -0.3169 -1.1974
  119OSM    C1312476   4.241   1.582   6.693  0.0386  0.7051 -0.6236
  119OSM   H13A12477   4.311   1.543   6.621 -0.3518 -1.5122  0.1385
  119OSM   H13B12478   4.260   1.541   6.791 -1.4760 -0.2091 -0.6754
  119OSM   H13C12479   4.262   1.688   6.697  1.4843  0.4748 -1.4429
  119OSM    C1212480   4.099   1.382   6.653 -0.0578  0.0627  0.3106
  119OSM   H12A12481   3.995   1.355   6.666  0.6910 -2.1420  2.5291
  119OSM   H12B12482   4.147   1.342   6.740 -0.5013 -0.0717  0.4976
  119OSM    C1112483   4.144   1.325   6.520 -0.1782  0.2171 -0.8037
  119OSM   H11A12484   4.068   1.355   6.445  0.0584  0.7637 -0.8357
  119OSM   H11B12485   4.137   1.215   6.526  2.8857 -0.0100  1.0109
  119OSM      P12486   4.396   1.267   6.484 -0.2574  0.4899  0.0090
  119OSM    O1312487   4.359   1.146   6.404 -0.1160  0.1697  0.4080
  119OSM    O1412488   4.520   1.335   6.443  0.2998  0.0485 -0.1988
  119OSM    O1112489   4.409   1.231   6.639 -0.7586  0.2223 -0.1431
  119OSM    O1212490   4.273   1.370   6.484  0.5175  0.3540 -0.3446
  119OSM    C1S12491   4.440   1.097   6.683 -0.0822  0.9575  0.0473
  119OSM    H1S12492   4.541   1.063   6.651 -1.0871 -1.0656 -1.1912
  119OSM    H1T12493   4.370   1.020   6.644  0.8047 -1.0620  2.2430
  119OSM     NF12494   4.442   0.936   6.859  0.8775 -0.0460 -0.3773
  119OSM    HNF12495   4.356   0.909   6.901  1.4711  0.3880  1.1500
  119OSM    C2S12496   4.438   1.085   6.835  0.4601 -0.1138  0.1308
  119OSM    H2S12497   4.531   1.131   6.875  1.6271 -1.1719 -1.2148
  119OSM    C3S12498   4.310   1.157   6.898 -0.0711 -0.3265  0.4793
  119OSM    H3S12499   4.213   1.129   6.851  0.7251 -2.9999  0.2592
  119OSM     O312500   4.314   1.303   6.893 -0.3104  0.5134  0.3096
  119OSM    HO312501   4.385   1.317   6.830 -0.2267  2.8550  0.8486
  119OSM    C4S12502   4.292   1.116   7.046  0.1176  0.4881  0.2110
  119OSM    H4S12503   4.358   1.169   7.116 -1.9540  1.7044  1.3253
  119OSM    C5S12504   4.196   1.034   7.083  0.4018 -0.3827 -0.0884
  119OSM    H5S12505   4.128   0.993   7.007  1.5640  0.1102 -1.4260
  119OSM    C6S12506   4.163   1.005   7.228  0.2888  0.1290  0.4166
  119OSM    H6S12507   4.054   1.020   7.244  0.1785 -1.0495  0.8571
  119OSM    H6T12508   4.206   1.090   7.286  1.5033 -0.8520  0.9863
  119OSM    C7S12509   4.209   0.861   7.271  1.0803  0.6026 -0.4618
  119OSM    H7S12510   4.319   0.859   7.281  1.0691 -1.7640 -0.1416
  119OSM    H7T12511   4.165   0.783   7.206  0.3959  0.5219  0.0821
  119OSM    C8S12512   4.167   0.826   7.416 -0.0862  0.4117  0.6512
  119OSM    H8S12513   4.202   0.722   7.431 -0.0803 -0.0499 -2.1236
  119OSM    H8T12514   4.058   0.827   7.397 -0.0264  1.7293  0.2203
  119OSM    C9S12515   4.222   0.918   7.516  0.8469  0.1349 -0.9649
  119OSM    H9S12516   4.193   1.025   7.507  0.9496  0.6125  2.7968
  119OSM    H9T12517   4.333   0.911   7.523  0.7519 -2.6033 -1.3391
  119OSM   C10S12518   4.164   0.889   7.655 -0.6132 -0.4175 -0.9474
  119OSM   H10S12519   4.158   0.779   7.667 -1.5846 -0.1582  1.7898
  119OSM   H10T12520   4.059   0.922   7.643 -0.2171  0.5179 -2.0924
  119OSM   C11S12521   4.239   0.956   7.771 -0.2302  0.0848  0.0745
  119OSM   H11S12522   4.221   1.065   7.762  1.2587  0.3318 -0.3460
  119OSM   H11T12523   4.348   0.945   7.752 -0.2125 -1.7084  0.9534
  119OSM   C12S12524   4.211   0.902   7.913 -0.2182  0.3670 -0.3124
  119OSM   H12S12525   4.223   0.792   7.914  0.0042  0.3924  0.6033
  119OSM   H12T12526   4.101   0.906   7.931 -0.3618 -0.5329 -0.9446
  119OSM   C13S12527   4.290   0.965   8.022 -0.3385 -0.3178  0.3495
  119OSM   H13S12528   4.310   1.070   7.994  2.2554 -1.5187 -3.0132
  119OSM   H13T12529   4.397   0.937   8.021  0.4543  2.4661 -0.9676
  119OSM   C14S12530   4.223   0.947   8.151 -0.3383  0.4759 -0.5656
  119OSM   H14S12531   4.240   0.842   8.185 -2.5446 -0.2164 -1.4228
  119OSM   H14T12532   4.113   0.959   8.147 -0.5715 -0.9454  0.6931
  119OSM   C15S12533   4.297   1.033   8.257  0.6884 -1.3677  0.3677
  119OSM   H15S12534   4.269   1.141   8.259 -0.1352 -1.5888  1.7010
  119OSM   H15T12535   4.406   1.027   8.238  1.1095  1.1453  1.6469
  119OSM   C16S12536   4.279   0.992   8.397  0.0999 -0.1734 -0.0403
  119OSM   H16S12537   4.345   1.051   8.465 -1.7307  0.6731  1.0795
  119OSM   H16T12538   4.303   0.885   8.410  0.9982 -0.6816 -4.4237
  119OSM   C17S12539   4.137   1.014   8.439 -0.2225 -0.1993  0.2270
  119OSM   H17S12540   4.079   0.951   8.369 -0.9884 -1.4638  1.9062
  119OSM   H17T12541   4.105   1.120   8.439 -0.1541 -0.1364 -1.8877
  119OSM   C18S12542   4.115   0.967   8.578 -0.4505 -0.1340  0.7762
  119OSM   H18S12543   4.164   1.033   8.653  0.2027  0.0199  0.2308
  119OSM   H18T12544   4.165   0.869   8.594  0.8160  0.4293  0.4235
  119OSM   H18U12545   4.008   0.970   8.607 -1.3222  1.1195 -2.1809
  119OSM    C1F12546   4.538   0.842   6.849  0.1058  0.3382 -0.3292
  119OSM     OF12547   4.639   0.872   6.785  1.2441  0.3755 -0.0239
  119OSM    C2F12548   4.526   0.707   6.911  0.9438 -0.4782 -0.1161
  119OSM    H2F12549   4.499   0.637   6.830 -1.6677 -0.6790  0.8185
  119OSM    H2G12550   4.453   0.712   6.995 -0.6963 -1.0725 -1.4389
  119OSM    C3F12551   4.648   0.659   6.986 -0.7593  0.4503  0.2847
  119OSM    H3F12552   4.739   0.667   6.923 -1.1287  1.2751 -0.1616
  119OSM    H3G12553   4.659   0.550   7.004  1.4380  0.7253  0.9268
  119OSM    C4F12554   4.686   0.744   7.118  0.3551 -0.3576  0.1987
  119OSM    H4F12555   4.641   0.845   7.104  2.3172  0.1866 -3.4231
  119OSM    H4G12556   4.793   0.744   7.148  0.6062 -0.6967 -0.6838
  119OSM    C5F12557   4.623   0.674   7.239 -0.0277  0.1910  0.0109
  119OSM    H5F12558   4.670   0.575   7.252 -1.8262 -0.6963  0.0176
  119OSM    H5G12559   4.520   0.649   7.206  0.3147  1.8894 -2.6547
  119OSM    C6F12560   4.619   0.761   7.359  0.1894  0.7233  0.0033
  119OSM    H6F12561   4.564   0.854   7.334 -1.7060  0.4696  2.7824
  119OSM    H6G12562   4.720   0.785   7.399  0.5426  1.1547 -1.1006
  119OSM    C7F12563   4.558   0.688   7.480 -0.6383  0.8360  0.1283
  119OSM    H7F12564   4.613   0.592   7.491 -1.9032 -0.1839 -1.8716
  119OSM    H7G12565   4.451   0.663   7.463 -0.1346 -2.4219  1.1143
  119OSM    C8F12566   4.570   0.768   7.609 -0.0505 -0.2575 -0.0486
  119OSM    H8F12567   4.484   0.759   7.678 -0.5282  0.1127 -0.5882
  119OSM    H8G12568   4.567   0.873   7.573 -2.0654  0.7138  2.6622
  119OSM    C9F12569   4.696   0.760   7.689  0.6304  0.5970  0.0105
  119OSM    H9F12570   4.748   0.664   7.674 -0.1286  0.5965 -3.3596
  119OSM   C10F12571   4.765   0.854   7.752  0.2180  0.0207 -0.0598
  119OSM   H10F12572   4.864   0.820   7.787  0.9498  2.5591  0.6093
  119OSM   C11F12573   4.728   1.001   7.771  0.4612  0.3368  0.1062
  119OSM   H11F12574   4.620   1.017   7.747  0.1812 -2.0060 -0.4419
  119OSM   H11G12575   4.792   1.060   7.703  1.1329  0.3985  0.7764
  119OSM   C12F12576   4.754   1.040   7.914 -0.2404  0.0569  0.0113
  119OSM   H12F12577   4.862   1.022   7.930 -0.2683  0.2460  0.4308
  119OSM   H12G12578   4.698   0.965   7.974 -0.9506 -1.4282 -2.3619
  119OSM   C13F12579   4.715   1.183   7.943 -0.4981  0.3248  0.1378
  119OSM   H13F12580   4.604   1.188   7.948 -0.5586 -1.5114  2.5423
  119OSM   H13G12581   4.751   1.238   7.853  1.7255 -1.2059  0.0127
  119OSM   C14F12582   4.759   1.236   8.078 -0.8363 -0.8670  0.8633
  119OSM   H14F12583   4.737   1.345   8.077  2.0835 -0.1946  0.0685
  119OSM   H14G12584   4.870   1.243   8.069 -1.0019 -0.6211 -1.8252
  119OSM   C15F12585   4.690   1.163   8.198 -0.3338 -0.2843  0.4797
  119OSM   H15F12586   4.707   1.056   8.174 -3.2814 -0.3441 -1.9307
  119OSM   H15G12587   4.581   1.173   8.178 -0.2867  0.4315  0.5368
  119OSM   C16F12588   4.742   1.190   8.345  0.1546 -0.1597  0.3306
  119OSM   H16F12589   4.845   1.149   8.350 -0.3318 -2.0679 -2.5951
  119OSM   H16G12590   4.677   1.127   8.409 -0.3641  1.0183  0.9781
  119OSM   C17F12591   4.746   1.337   8.395  0.7076  0.8977  0.6892
  119OSM   H17F12592   4.655   1.391   8.362  0.6525  0.0195 -0.7034
  119OSM   H17G12593   4.840   1.384   8.359  2.4282 -1.8172  1.3165
  119OSM   C18F12594   4.742   1.341   8.550 -0.7875 -0.0187 -0.1874
  119OSM   H18F12595   4.745   1.445   8.588 -0.9145  0.4542 -1.4208
  119OSM   H18G12596   4.833   1.290   8.590 -1.3592 -1.6464 -0.8781
  119OSM   H18H12597   4.650   1.284   8.577 -0.9275 -0.3213 -1.2636
  120OSM      N12598   5.750   4.420   6.888 -0.5315  0.6721  0.0793
  120OSM    C1512599   5.883   4.473   6.927  0.3718 -0.4706 -0.1989
  120OSM   H15A12600   5.925   4.392   6.984  1.4429 -0.3542 -0.8005
  120OSM   H15B12601   5.873   4.561   6.990  2.0831 -0.5863  0.2686
  120OSM   H15C12602   5.942   4.498   6.840 -0.4636  0.6477 -0.4718
  120OSM    C1412603   5.667   4.397   7.011 -0.0912 -0.0432  0.3194
  120OSM   H14A12604   5.562   4.375   6.996 -0.5839  1.5725  1.1595
  120OSM   H14B12605   5.680   4.472   7.087 -1.3278  0.9445 -0.4040
  120OSM   H14C12606   5.709   4.307   7.055  0.7030  1.4112  2.7514
  120OSM    C1312607   5.681   4.521   6.809 -0.5571 -0.2371  0.6436
  120OSM   H13A12608   5.655   4.609   6.866 -1.8614  0.9746 -1.7003
  120OSM   H13B12609   5.591   4.482   6.765  1.0413 -1.4840 -1.7238
  120OSM   H13C12610   5.743   4.552   6.726  0.9319 -0.7699  1.5196
  120OSM    C1212611   5.767   4.295   6.799 -0.9826 -0.3569  0.3686
  120OSM   H12A12612   5.840   4.314   6.723 -2.9860  0.2463 -1.5030
  120OSM   H12B12613   5.676   4.275   6.745 -0.5938  2.3608 -1.4646
  120OSM    C1112614   5.821   4.166   6.869  0.1656 -0.7169  0.6075
  120OSM   H11A12615   5.800   4.088   6.792  0.6342 -0.6014  0.3544
  120OSM   H11B12616   5.751   4.145   6.953 -2.1752  0.3500 -0.9787
  120OSM      P12617   6.069   4.175   6.804 -0.3906 -0.1144  0.0462
  120OSM    O1312618   6.157   4.062   6.838  0.2380 -0.0460  0.5109
  120OSM    O1412619   6.012   4.171   6.668 -0.0509  0.2192 -0.0299
  120OSM    O1112620   6.147   4.315   6.829  1.0026  0.1965 -0.1497
  120OSM    O1212621   5.957   4.180   6.908 -0.1408 -0.2931 -0.4210
  120OSM    C1S12622   6.186   4.365   6.955 -0.4448  0.4472 -0.0463
  120OSM    H1S12623   6.093   4.369   7.016 -1.2363 -0.8297 -1.0840
  120OSM    H1T12624   6.223   4.467   6.931  0.0950  0.1722 -0.4117
  120OSM     NF12625   6.312   4.349   7.163 -0.1698  0.5557  0.7586
  120OSM    HNF12626   6.357   4.438   7.172  2.8042 -0.6210 -0.8992
  120OSM    C2S12627   6.305   4.303   7.028 -0.3629  1.3777 -0.2983
  120OSM    H2S12628   6.297   4.193   7.040 -0.3220  1.5280  1.5135
  120OSM    C3S12629   6.441   4.319   6.957  0.1131 -0.0439  0.3718
  120OSM    H3S12630   6.462   4.427   6.939 -1.1360  0.5030  1.9248
  120OSM     O312631   6.449   4.255   6.823 -0.0036 -0.1587 -0.6109
  120OSM    HO312632   6.360   4.228   6.803  0.0337 -0.0015 -0.9937
  120OSM    C4S12633   6.562   4.273   7.037  0.1001 -0.7259  0.1615
  120OSM    H4S12634   6.625   4.355   7.073 -1.4652  0.4645  0.3269
  120OSM    C5S12635   6.611   4.151   7.054  0.5559 -0.3450 -0.8440
  120OSM    H5S12636   6.557   4.067   7.007  0.1567 -0.4897 -0.1293
  120OSM    C6S12637   6.736   4.129   7.127 -0.1006 -0.4562 -0.4984
  120OSM    H6S12638   6.801   4.218   7.138  0.7662 -0.8007 -2.3945
  120OSM    H6T12639   6.802   4.060   7.070  2.8724  2.6839 -1.1829
  120OSM    C7S12640   6.721   4.054   7.252  0.1257  0.0498  0.4077
  120OSM    H7S12641   6.821   4.022   7.287 -0.2754 -1.0223  0.6122
  120OSM    H7T12642   6.648   3.971   7.246 -1.4281  1.4371 -0.9052
  120OSM    C8S12643   6.687   4.141   7.378  0.0326  0.3425 -0.6566
  120OSM    H8S12644   6.589   4.189   7.356 -0.8518 -0.9015  0.3843
  120OSM    H8T12645   6.758   4.225   7.386 -0.0506  0.4898 -1.4022
  120OSM    C9S12646   6.677   4.050   7.508  0.5852 -1.0910 -0.1983
  120OSM    H9S12647   6.779   4.007   7.518  1.5702  0.9859 -0.7326
  120OSM    H9T12648   6.605   3.974   7.470 -1.2486  0.8036 -0.6707
  120OSM   C10S12649   6.631   4.110   7.641  0.5026 -0.1168  0.0881
  120OSM   H10S12650   6.521   4.101   7.644  0.3299  1.1697 -1.0872
  120OSM   H10T12651   6.660   4.211   7.676  0.8301 -0.6322  1.3755
  120OSM   C11S12652   6.686   4.021   7.754  0.0449  0.6680 -0.0484
  120OSM   H11S12653   6.797   4.017   7.760 -0.0034 -0.0233  0.6470
  120OSM   H11T12654   6.650   3.917   7.737 -1.1795  0.7864  1.5940
  120OSM   C12S12655   6.642   4.070   7.891 -0.0093 -0.6992  0.0605
  120OSM   H12S12656   6.544   4.123   7.896  1.4952  2.1783  1.5918
  120OSM   H12T12657   6.716   4.144   7.928 -0.8350 -0.7617  2.0011
  120OSM   C13S12658   6.648   3.969   8.000 -0.1019  0.0315 -0.4208
  120OSM   H13S12659   6.754   3.936   8.001 -0.2409 -0.4212 -0.4939
  120OSM   H13T12660   6.598   3.876   7.965  0.8087 -0.0709 -1.4718
  120OSM   C14S12661   6.597   4.029   8.133 -0.2975  0.4768 -0.4065
  120OSM   H14S12662   6.487   4.032   8.123 -0.2883 -1.3874 -1.5682
  120OSM   H14T12663   6.636   4.133   8.135 -0.7496  0.6417  0.3186
  120OSM   C15S12664   6.631   3.949   8.257  0.1269  0.0937  0.0734
  120OSM   H15S12665   6.741   3.936   8.266 -0.3176 -2.8652  3.0593
  120OSM   H15T12666   6.584   3.849   8.263 -1.1061  0.7695  3.5229
  120OSM   C16S12667   6.582   4.016   8.387  0.3572 -0.7138  0.6435
  120OSM   H16S12668   6.471   4.014   8.391  0.3873 -1.5270  3.8048
  120OSM   H16T12669   6.618   4.120   8.382  0.1490 -0.6420  0.6014
  120OSM   C17S12670   6.628   3.963   8.519  0.3126  0.4875  0.2136
  120OSM   H17S12671   6.739   3.966   8.525  0.3794 -0.3567 -0.4133
  120OSM   H17T12672   6.600   3.856   8.529  0.7543 -0.2640 -4.3269
  120OSM   C18S12673   6.563   4.045   8.630 -0.2392 -0.7961  0.5146
  120OSM   H18S12674   6.579   4.152   8.607  1.0978 -0.9523  0.6549
  120OSM   H18T12675   6.595   4.029   8.735  0.2783 -0.2883  0.4375
  120OSM   H18U12676   6.452   4.039   8.622 -0.1946  0.6630 -3.4587
  120OSM    C1F12677   6.246   4.306   7.264  0.1619 -0.8978  0.2616
  120OSM     OF12678   6.156   4.226   7.261  0.1579 -0.2825 -0.0402
  120OSM    C2F12679   6.296   4.359   7.391 -0.3490 -0.5660  1.9228
  120OSM    H2F12680   6.263   4.463   7.411  0.6658  0.4971 -1.3141
  120OSM    H2G12681   6.405   4.371   7.377 -0.5880 -0.2054 -0.0472
  120OSM    C3F12682   6.255   4.279   7.512 -0.4610 -0.6957 -0.0790
  120OSM    H3F12683   6.270   4.169   7.510  2.1881 -0.3841 -1.4865
  120OSM    H3G12684   6.146   4.299   7.512 -0.3010  0.5189 -2.0199
  120OSM    C4F12685   6.312   4.330   7.645 -0.1638  0.1352  0.0623
  120OSM    H4F12686   6.284   4.437   7.650 -0.9983 -0.0716 -0.0918
  120OSM    H4G12687   6.422   4.324   7.663  0.1727 -0.5679 -2.0043
  120OSM    C5F12688   6.249   4.250   7.766 -0.6298 -0.7941  0.8243
  120OSM    H5F12689   6.293   4.148   7.764 -0.8648 -0.9074  1.3141
  120OSM    H5G12690   6.140   4.244   7.745 -1.2181  3.1520  1.9707
  120OSM    C6F12691   6.285   4.307   7.908 -0.0276  0.4488  0.2094
  120OSM    H6F12692   6.228   4.401   7.921 -3.1098 -0.9730 -1.7007
  120OSM    H6G12693   6.393   4.329   7.896  0.5801 -2.2291  0.0031
  120OSM    C7F12694   6.255   4.207   8.021  0.4810  0.8384  0.2143
  120OSM    H7F12695   6.322   4.121   8.004 -0.2581  0.1802  0.5381
  120OSM    H7G12696   6.150   4.172   8.013  1.4591 -2.1227 -0.9572
  120OSM    C8F12697   6.283   4.262   8.161 -0.2165 -0.4857 -0.0740
  120OSM    H8F12698   6.392   4.286   8.167 -0.6149  1.0194  2.4885
  120OSM    H8G12699   6.263   4.179   8.232 -0.9688 -0.5761 -0.3853
  120OSM    C9F12700   6.191   4.379   8.199  0.4553 -0.1114 -0.0057
  120OSM    H9F12701   6.130   4.421   8.117 -3.1502 -1.0063  2.0123
  120OSM   C10F12702   6.180   4.433   8.325 -0.8251  0.2302  0.5375
  120OSM   H10F12703   6.135   4.533   8.336 -0.5448  0.2552  1.5746
  120OSM   C11F12704   6.260   4.385   8.443  0.0330 -0.3330  0.2250
  120OSM   H11F12705   6.325   4.466   8.481 -0.6838  0.8000 -0.8849
  120OSM   H11G12706   6.344   4.321   8.407  0.2129  0.9884 -1.9085
  120OSM   C12F12707   6.157   4.340   8.550  0.6857  0.2299 -0.5246
  120OSM   H12F12708   6.095   4.262   8.500  0.0529  0.1950  0.2905
  120OSM   H12G12709   6.085   4.418   8.584  0.0883 -1.3049  2.0312
  120OSM   C13F12710   6.223   4.279   8.679 -0.4369 -0.7797  0.0672
  120OSM   H13F12711   6.301   4.351   8.711  1.7093 -2.0433 -2.0383
  120OSM   H13G12712   6.272   4.188   8.637 -2.3973 -1.4331 -0.9025
  120OSM   C14F12713   6.124   4.227   8.785 -0.0583 -0.4701  0.6986
  120OSM   H14F12714   6.179   4.156   8.851  0.7737 -1.5665 -1.0883
  120OSM   H14G12715   6.056   4.164   8.723 -0.6557  0.3968  0.4518
  120OSM   C15F12716   6.055   4.341   8.867  0.1527  0.2990  0.2449
  120OSM   H15F12717   6.029   4.424   8.798 -1.1313  0.4161  0.8441
  120OSM   H15G12718   6.132   4.373   8.940  0.8969  0.4726 -0.6003
  120OSM   C16F12719   5.936   4.284   8.940  0.1855  0.8428 -0.6984
  120OSM   H16F12720   5.970   4.208   9.013 -2.4161  1.0176  0.7913
  120OSM   H16G12721   5.884   4.237   8.854 -1.4094  2.1356 -0.4888
  120OSM   C17F12722   5.830   4.384   8.996 -0.3562  0.2742 -0.4060
  120OSM   H17F12723   5.803   4.451   8.912  2.9269  1.7883 -0.4056
  120OSM   H17G12724   5.873   4.455   9.070  0.0068  2.3428 -2.4936
  120OSM   C18F12725   5.701   4.316   9.046 -0.2585 -0.1447 -0.8353
  120OSM   H18F12726   5.723   4.289   9.151  0.1461  1.5395 -0.4700
  120OSM   H18G12727   5.673   4.225   8.988 -0.9121 -0.1644 -0.4949
  120OSM   H18H12728   5.621   4.392   9.035 -1.2536 -1.3266 -2.2747
  121OSM      N12729   2.436   1.323   6.329  0.6862  0.3067  0.6809
  121OSM    C1512730   2.550   1.346   6.238 -0.4355 -0.1892 -0.0080
  121OSM   H15A12731   2.550   1.442   6.189  2.3198 -0.3747 -0.5288
  121OSM   H15B12732   2.536   1.280   6.153 -0.9530  0.0689 -0.1295
  121OSM   H15C12733   2.647   1.338   6.285 -0.4613  0.0824  0.0899
  121OSM    C1412734   2.454   1.441   6.421 -0.2113  0.2192 -0.3187
  121OSM   H14A12735   2.365   1.469   6.473 -0.2164  1.7399 -1.0867
  121OSM   H14B12736   2.486   1.529   6.367 -0.4926  1.6067  1.7096
  121OSM   H14C12737   2.532   1.417   6.492 -0.0735 -0.5372 -0.7054
  121OSM    C1312738   2.302   1.336   6.263  0.0249 -0.7949  0.6312
  121OSM   H13A12739   2.300   1.266   6.181  0.5663  0.1772 -0.2361
  121OSM   H13B12740   2.293   1.436   6.223  0.2817 -0.2828  1.8009
  121OSM   H13C12741   2.218   1.313   6.328 -1.1599 -1.1705 -0.9825
  121OSM    C1212742   2.443   1.182   6.393  0.2624  0.3609  0.5412
  121OSM   H12A12743   2.461   1.119   6.307  0.7054  0.8734  0.2504
  121OSM   H12B12744   2.343   1.157   6.424  1.1333 -2.7893  1.1257
  121OSM    C1112745   2.541   1.148   6.510  0.5553  0.1715  0.6553
  121OSM   H11A12746   2.506   1.064   6.574 -0.3319  1.3177  1.7214
  121OSM   H11B12747   2.542   1.235   6.580 -0.5803 -0.3309  1.3312
  121OSM      P12748   2.791   1.212   6.474  0.3654 -0.0928 -0.0283
  121OSM    O1312749   2.902   1.195   6.377 -0.2429 -0.3170 -0.0861
  121OSM    O1412750   2.737   1.349   6.495 -0.3483 -0.7176 -0.3029
  121OSM    O1112751   2.839   1.157   6.610 -0.0198  0.3180 -0.3035
  121OSM    O1212752   2.667   1.117   6.453 -0.0919  0.4181  0.5318
  121OSM    C1S12753   2.947   1.224   6.681  0.5370 -0.9725  0.4483
  121OSM    H1S12754   2.971   1.320   6.631  0.8476 -0.6263  1.2386
  121OSM    H1T12755   3.033   1.154   6.680  0.6924 -0.7944  0.8876
  121OSM     NF12756   3.019   1.329   6.890  0.5145  0.0602 -0.3496
  121OSM    HNF12757   3.086   1.276   6.942 -0.4142  0.5136  1.3925
  121OSM    C2S12758   2.917   1.248   6.831 -0.5141 -0.4930 -0.2484
  121OSM    H2S12759   2.823   1.306   6.844 -0.4714  0.4636 -3.3764
  121OSM    C3S12760   2.893   1.107   6.900 -0.0911  0.0526  0.5919
  121OSM    H3S12761   2.994   1.063   6.904  0.4954  1.3454  0.5305
  121OSM     O312762   2.799   1.019   6.840 -0.3656 -0.0566 -0.1490
  121OSM    HO312763   2.763   1.071   6.768  0.0971  0.1977 -0.1943
  121OSM    C4S12764   2.858   1.132   7.042  0.6524  0.1257 -0.8239
  121OSM    H4S12765   2.767   1.194   7.054  0.2361 -0.0289 -2.7690
  121OSM    C5S12766   2.924   1.071   7.142 -0.0341 -0.8713 -0.0723
  121OSM    H5S12767   3.007   1.005   7.115 -0.8636 -0.6096 -3.8878
  121OSM    C6S12768   2.897   1.088   7.289  0.7383 -0.4487  0.2145
  121OSM    H6S12769   2.795   1.130   7.302  0.1604 -0.5081 -3.1845
  121OSM    H6T12770   2.963   1.166   7.333 -1.3490  1.7884 -0.4145
  121OSM    C7S12771   2.897   0.955   7.360 -0.1862 -0.1609  0.5938
  121OSM    H7S12772   2.991   0.897   7.343  0.4774  0.9797  0.2682
  121OSM    H7T12773   2.809   0.903   7.317 -0.6761  1.5229 -0.5315
  121OSM    C8S12774   2.853   0.956   7.515  0.6807 -0.2883 -0.0568
  121OSM    H8S12775   2.936   1.006   7.570  0.0845 -0.2146  0.8051
  121OSM    H8T12776   2.852   0.849   7.545 -0.3106 -0.8198 -1.8423
  121OSM    C9S12777   2.707   1.025   7.540  0.5783  0.1007  0.2506
  121OSM    H9S12778   2.630   0.986   7.470 -1.3861  1.9549  1.2641
  121OSM    H9T12779   2.727   1.133   7.525  0.3291  0.1345  0.1667
  121OSM   C10S12780   2.650   1.023   7.686 -0.3528  0.2390  0.4766
  121OSM   H10S12781   2.643   0.918   7.721 -0.3415 -0.0787 -0.4614
  121OSM   H10T12782   2.554   1.080   7.687 -1.6940 -1.7900 -2.1845
  121OSM   C11S12783   2.750   1.093   7.790  0.0273 -0.4493  0.4935
  121OSM   H11S12784   2.769   1.199   7.760  1.9032 -1.0643 -0.6095
  121OSM   H11T12785   2.848   1.044   7.801  0.4887 -0.1825 -1.9288
  121OSM   C12S12786   2.681   1.094   7.928  0.3095 -0.2352  0.2380
  121OSM   H12S12787   2.637   0.992   7.930  0.3752 -0.2622  0.3241
  121OSM   H12T12788   2.611   1.180   7.925  1.4443  0.6959 -1.1446
  121OSM   C13S12789   2.778   1.110   8.044 -0.4730 -0.6520  0.6631
  121OSM   H13S12790   2.850   1.191   8.019 -1.9106  1.0340  1.8028
  121OSM   H13T12791   2.824   1.008   8.044 -0.3232 -0.5864  1.2634
  121OSM   C14S12792   2.727   1.132   8.182  0.0433  0.5129  0.3198
  121OSM   H14S12793   2.651   1.055   8.208  1.0275 -1.0938 -1.3519
  121OSM   H14T12794   2.697   1.238   8.198 -1.7780 -0.3489  3.7097
  121OSM   C15S12795   2.842   1.118   8.282 -0.5472  0.6014 -0.1451
  121OSM   H15S12796   2.934   1.168   8.245 -0.1217 -0.4164 -0.5097
  121OSM   H15T12797   2.880   1.014   8.289 -0.6906  0.6233  1.1240
  121OSM   C16S12798   2.811   1.162   8.426 -0.3341 -0.8238  0.4114
  121OSM   H16S12799   2.730   1.105   8.476 -0.0894 -0.8483  0.7856
  121OSM   H16T12800   2.773   1.266   8.427  1.6157  0.0052 -1.8762
  121OSM   C17S12801   2.946   1.170   8.505  0.2209 -0.6419  0.3073
  121OSM   H17S12802   3.010   1.250   8.463 -0.9962 -0.0937 -0.5595
  121OSM   H17T12803   3.003   1.076   8.491  0.3075 -0.6601  0.7581
  121OSM   C18S12804   2.919   1.200   8.655  0.3920 -0.1964 -0.3946
  121OSM   H18S12805   3.017   1.222   8.702  1.3094 -2.7885 -0.9326
  121OSM   H18T12806   2.867   1.117   8.706 -2.5650  0.6089 -1.8490
  121OSM   H18U12807   2.845   1.282   8.668  0.1046 -0.5516  0.2187
  121OSM    C1F12808   3.051   1.455   6.854 -0.1233 -0.6530 -0.3890
  121OSM     OF12809   2.975   1.515   6.778 -0.3925 -0.2465  0.4482
  121OSM    C2F12810   3.162   1.516   6.930  0.1619 -0.5399 -0.0874
  121OSM    H2F12811   3.238   1.554   6.859  1.3375  0.5776  1.6888
  121OSM    H2G12812   3.207   1.442   6.999 -2.4560 -2.3411 -0.1857
  121OSM    C3F12813   3.125   1.652   6.987 -0.2671 -0.1420 -0.2692
  121OSM    H3F12814   3.122   1.728   6.906 -1.5683  0.4050  0.2591
  121OSM    H3G12815   3.213   1.680   7.048  0.1131 -0.3862 -0.6954
  121OSM    C4F12816   3.009   1.659   7.086  0.6395  0.6395 -0.2929
  121OSM    H4F12817   2.914   1.638   7.032 -0.0933  0.3042  1.0655
  121OSM    H4G12818   2.994   1.758   7.133 -1.0189 -0.5657  1.9169
  121OSM    C5F12819   3.023   1.560   7.206 -0.1792  0.3734 -0.1907
  121OSM    H5F12820   3.114   1.588   7.263  0.7623 -2.3758 -0.1663
  121OSM    H5G12821   3.025   1.452   7.179  1.0982 -0.3975  2.6008
  121OSM    C6F12822   2.918   1.570   7.318  0.2354 -0.2293 -0.1074
  121OSM    H6F12823   2.909   1.677   7.348  0.0036 -0.1445 -0.4732
  121OSM    H6G12824   2.973   1.513   7.396 -0.6095  0.3550  0.9338
  121OSM    C7F12825   2.789   1.510   7.280  0.9363  0.4218  0.0908
  121OSM    H7F12826   2.805   1.408   7.240  0.2469 -0.2096  1.3779
  121OSM    H7G12827   2.739   1.558   7.193  0.3565 -3.6161 -1.9999
  121OSM    C8F12828   2.691   1.495   7.403 -0.5807  0.5450 -0.1031
  121OSM    H8F12829   2.744   1.435   7.480 -0.5949  1.8510  0.9565
  121OSM    H8G12830   2.608   1.427   7.374  1.1646 -1.0657 -1.5520
  121OSM    C9F12831   2.649   1.637   7.448 -0.4803  0.9594  0.0382
  121OSM    H9F12832   2.603   1.697   7.368 -2.3449  0.5581  0.7528
  121OSM   C10F12833   2.662   1.702   7.568  0.2952  0.9264 -0.4610
  121OSM   H10F12834   2.610   1.799   7.572 -1.7366 -0.0475 -1.6202
  121OSM   C11F12835   2.715   1.639   7.699 -0.4181 -0.2481  0.3416
  121OSM   H11F12836   2.697   1.530   7.705 -2.8195 -0.0936 -2.1654
  121OSM   H11G12837   2.662   1.685   7.786  2.0225 -1.7580  2.7822
  121OSM   C12F12838   2.867   1.665   7.715 -0.1819 -0.5014  0.4186
  121OSM   H12F12839   2.875   1.774   7.694 -0.1262 -0.4292  0.8031
  121OSM   H12G12840   2.913   1.607   7.632  0.3121  0.6090 -0.1183
  121OSM   C13F12841   2.920   1.633   7.856  0.2113  0.1380  0.1864
  121OSM   H13F12842   2.879   1.710   7.925  1.0432  0.5098  0.2784
  121OSM   H13G12843   3.030   1.647   7.852  0.2471 -0.2862 -0.4595
  121OSM   C14F12844   2.879   1.499   7.913  0.3046  0.2730 -0.0244
  121OSM   H14F12845   2.931   1.418   7.858  1.2947 -0.9489  2.5321
  121OSM   H14G12846   2.768   1.486   7.921  0.6317 -1.6357  3.8236
  121OSM   C15F12847   2.942   1.492   8.059 -0.1838  0.7049 -0.1822
  121OSM   H15F12848   3.048   1.524   8.050 -0.4215  1.7095  0.3741
  121OSM   H15G12849   2.947   1.387   8.094 -0.4541  1.3493  1.8859
  121OSM   C16F12850   2.877   1.586   8.161  0.0482  0.6970 -0.2635
  121OSM   H16F12851   2.779   1.609   8.115 -0.7305 -2.1377 -0.2162
  121OSM   H16G12852   2.922   1.681   8.196  1.9265  0.2424 -1.2763
  121OSM   C17F12853   2.859   1.517   8.295  0.2223  0.8874 -0.6560
  121OSM   H17F12854   2.858   1.407   8.284  0.7605  0.9883 -1.9200
  121OSM   H17G12855   2.754   1.528   8.332 -0.2526  0.2602 -1.7439
  121OSM   C18F12856   2.971   1.541   8.394  0.7248 -0.2607 -0.0468
  121OSM   H18F12857   2.995   1.649   8.389  2.2529 -0.5603  0.2182
  121OSM   H18G12858   3.055   1.482   8.352 -0.1557 -1.3610 -0.3303
  121OSM   H18H12859   2.954   1.490   8.491  2.4604 -2.0512 -0.6205
  122OSM      N12860   5.696   2.650   6.290  0.3571  0.5413 -0.1311
  122OSM    C1512861   5.799   2.695   6.196 -0.0552  0.5288  0.3500
  122OSM   H15A12862   5.831   2.609   6.139  0.8282 -0.2468  1.9419
  122OSM   H15B12863   5.876   2.740   6.256 -0.6256 -1.8623  3.1023
  122OSM   H15C12864   5.749   2.769   6.135 -0.8250 -0.3786 -0.1478
  122OSM    C1412865   5.579   2.600   6.208  1.1045 -0.4521  0.4203
  122OSM   H14A12866   5.540   2.681   6.148  1.1395  1.7212  3.1133
  122OSM   H14B12867   5.500   2.564   6.273  0.8007 -1.8719 -0.7009
  122OSM   H14C12868   5.612   2.521   6.144 -0.2112 -0.4644 -0.2667
  122OSM    C1312869   5.748   2.536   6.371 -0.2910  0.4343  0.4712
  122OSM   H13A12870   5.789   2.463   6.302 -3.6673 -0.5637 -0.6956
  122OSM   H13B12871   5.674   2.483   6.429 -1.3277  1.3032 -0.0260
  122OSM   H13C12872   5.833   2.564   6.431  0.0605  2.0480 -0.7208
  122OSM    C1212873   5.641   2.765   6.379  0.0064 -0.0003 -0.1575
  122OSM   H12A12874   5.729   2.794   6.434 -0.0965 -2.6063  1.5587
  122OSM   H12B12875   5.580   2.720   6.455 -1.2579 -1.1677 -1.7951
  122OSM    C1112876   5.567   2.891   6.320 -0.0715  0.2771 -0.6238
  122OSM   H11A12877   5.626   2.943   6.243  1.0039 -1.6474 -1.1724
  122OSM   H11B12878   5.558   2.967   6.400  0.5886  0.4296 -0.6916
  122OSM      P12879   5.318   2.833   6.367  0.2209  0.2845 -0.0449
  122OSM    O1312880   5.213   2.914   6.303  0.3810 -0.0157  0.1663
  122OSM    O1412881   5.291   2.691   6.384 -0.3802  0.1736 -0.0986
  122OSM    O1112882   5.357   2.889   6.506 -0.4634 -0.1277  0.1391
  122OSM    O1212883   5.444   2.848   6.268 -0.9384  0.0478  0.0803
  122OSM    C1S12884   5.252   2.913   6.609 -0.6931 -0.3282  0.1363
  122OSM    H1S12885   5.194   2.819   6.620  0.8196 -1.2400  0.5420
  122OSM    H1T12886   5.185   3.000   6.594 -1.6788 -0.1612  4.2769
  122OSM     NF12887   5.229   2.898   6.850 -0.0287  0.0568  0.6170
  122OSM    HNF12888   5.172   2.975   6.881  1.9917  1.9946 -0.2325
  122OSM    C2S12889   5.323   2.938   6.746 -0.6550  0.4628  0.3506
  122OSM    H2S12890   5.401   2.859   6.742 -2.3905 -1.2955 -1.7558
  122OSM    C3S12891   5.386   3.074   6.747  0.2577  0.1728 -0.1071
  122OSM    H3S12892   5.310   3.155   6.747  1.0395  0.9373 -1.3647
  122OSM     O312893   5.465   3.103   6.629  0.2452 -0.1047  0.3896
  122OSM    HO312894   5.461   3.019   6.582 -0.4791  0.5981 -0.8323
  122OSM    C4S12895   5.474   3.088   6.873 -0.3648 -0.5585 -0.5868
  122OSM    H4S12896   5.418   3.109   6.965  1.0021  3.4450 -0.5028
  122OSM    C5S12897   5.605   3.088   6.890 -0.0331 -0.0108 -0.0089
  122OSM    H5S12898   5.674   3.062   6.808  1.0506  1.2924  0.4513
  122OSM    C6S12899   5.663   3.095   7.028  0.3080  0.2160 -0.3747
  122OSM    H6S12900   5.682   3.204   7.043 -0.5292  0.3493 -0.2671
  122OSM    H6T12901   5.757   3.035   7.023  0.0239 -0.2642 -0.0977
  122OSM    C7S12902   5.577   3.042   7.151  0.2285 -0.1421  0.2944
  122OSM    H7S12903   5.525   2.946   7.132 -1.5833  0.1666  3.1354
  122OSM    H7T12904   5.491   3.112   7.158  1.3446  1.6131 -2.1349
  122OSM    C8S12905   5.648   3.022   7.282 -0.0150  0.5342 -0.4748
  122OSM    H8S12906   5.701   3.112   7.317  2.4688 -1.1196  0.2866
  122OSM    H8T12907   5.739   2.959   7.275  0.4224  1.2712 -1.6035
  122OSM    C9S12908   5.555   2.979   7.393  0.6613  0.3281  0.2677
  122OSM    H9S12909   5.492   2.891   7.367 -0.2969  0.8327  0.8770
  122OSM    H9T12910   5.485   3.062   7.416  0.5341  0.2584  0.1363
  122OSM   C10S12911   5.623   2.954   7.530 -0.2269 -0.3968 -0.6244
  122OSM   H10S12912   5.625   3.053   7.581  1.5508 -0.5346 -0.3405
  122OSM   H10T12913   5.731   2.929   7.523  0.2451  1.4875 -0.7616
  122OSM   C11S12914   5.557   2.846   7.613 -0.6548 -0.3955 -0.0209
  122OSM   H11S12915   5.549   2.748   7.562 -1.5726 -1.4661  2.0498
  122OSM   H11T12916   5.457   2.892   7.618 -0.4798  0.1588 -1.1908
  122OSM   C12S12917   5.625   2.827   7.753  0.0951  0.5797 -0.0290
  122OSM   H12S12918   5.698   2.909   7.768  1.2355 -0.2602 -0.7875
  122OSM   H12T12919   5.688   2.735   7.747 -1.5776 -0.5887 -0.4153
  122OSM   C13S12920   5.524   2.830   7.868  0.2553  0.3716  0.3434
  122OSM   H13S12921   5.451   2.748   7.850 -0.6596  0.8974  1.5186
  122OSM   H13T12922   5.472   2.928   7.858  0.7057  0.5982  0.1638
  122OSM   C14S12923   5.583   2.806   8.007  0.0622  0.4542 -0.5599
  122OSM   H14S12924   5.680   2.859   8.019 -0.0442  0.3082  1.0577
  122OSM   H14T12925   5.605   2.699   8.024 -1.8870  0.0851 -0.1002
  122OSM   C15S12926   5.485   2.846   8.114 -0.3994  0.2327  0.2183
  122OSM   H15S12927   5.402   2.774   8.104  0.3319 -0.5529 -0.4492
  122OSM   H15T12928   5.453   2.951   8.097  0.5559  0.5918  0.5736
  122OSM   C16S12929   5.539   2.838   8.261 -0.0276 -0.1900  0.8790
  122OSM   H16S12930   5.625   2.908   8.263 -1.3285  1.4952  0.7192
  122OSM   H16T12931   5.563   2.733   8.288  3.0983  0.4869  1.0656
  122OSM   C17S12932   5.436   2.901   8.350 -0.1926  0.7268  0.5799
  122OSM   H17S12933   5.344   2.841   8.332  1.3595 -2.1658  1.6069
  122OSM   H17T12934   5.410   3.006   8.326  0.1174  0.8180  0.6467
  122OSM   C18S12935   5.467   2.875   8.498  0.5890 -0.1322 -0.1639
  122OSM   H18S12936   5.371   2.864   8.552  1.1980  3.1907  1.8828
  122OSM   H18T12937   5.522   2.962   8.541  1.5734 -0.1432 -1.3313
  122OSM   H18U12938   5.528   2.782   8.504  1.9413  0.7640  0.4122
  122OSM    C1F12939   5.192   2.768   6.866 -0.5504 -0.0887 -0.7139
  122OSM     OF12940   5.228   2.678   6.796 -0.5576 -0.2433 -0.2920
  122OSM    C2F12941   5.091   2.744   6.973 -0.0811  0.0468  0.3224
  122OSM    H2F12942   5.088   2.636   7.000  0.1804 -0.1906 -0.5829
  122OSM    H2G12943   4.990   2.763   6.930  0.1080 -2.1079 -1.2370
  122OSM    C3F12944   5.101   2.836   7.109 -0.2621  0.0176  0.6537
  122OSM    H3F12945   5.095   2.941   7.072  0.8367 -0.1908 -0.1816
  122OSM    H3G12946   5.207   2.826   7.141 -0.6050 -0.3049  1.7191
  122OSM    C4F12947   5.001   2.799   7.215  0.5178 -0.0251  0.2725
  122OSM    H4F12948   4.898   2.812   7.176  0.2739 -0.1314  0.8616
  122OSM    H4G12949   5.018   2.866   7.302  0.7001 -2.0946  1.9119
  122OSM    C5F12950   5.007   2.660   7.280 -0.1488 -0.1382 -0.4438
  122OSM    H5F12951   5.096   2.665   7.346  1.4477 -0.8991 -2.4315
  122OSM    H5G12952   5.019   2.587   7.198 -0.0428 -0.8117  0.1578
  122OSM    C6F12953   4.876   2.632   7.360 -0.5099  0.2316  0.3347
  122OSM    H6F12954   4.794   2.643   7.286  1.9846  3.0541 -2.3006
  122OSM    H6G12955   4.869   2.719   7.429  3.3298  1.0323 -0.0349
  122OSM    C7F12956   4.865   2.509   7.445 -0.4209 -0.6661 -0.2813
  122OSM    H7F12957   4.862   2.411   7.393  1.1908 -0.5728 -0.6098
  122OSM    H7G12958   4.765   2.513   7.492  0.4874  0.7795  1.6539
  122OSM    C8F12959   4.976   2.507   7.558  0.3570  0.2606 -0.1446
  122OSM    H8F12960   4.966   2.608   7.604 -1.5685 -0.5715  1.4496
  122OSM    H8G12961   5.076   2.496   7.512  0.4603  1.6679 -0.2931
  122OSM    C9F12962   4.958   2.386   7.645  0.3565  0.2267 -0.0888
  122OSM    H9F12963   5.002   2.295   7.602 -0.5183  0.0948 -0.7205
  122OSM   C10F12964   4.915   2.379   7.772 -0.1019  0.6156 -0.6105
  122OSM   H10F12965   4.906   2.283   7.826  2.1874 -0.0705 -1.3488
  122OSM   C11F12966   4.869   2.500   7.849 -0.3398  0.3426  0.2155
  122OSM   H11F12967   4.758   2.497   7.845 -0.3035 -0.0849 -1.2648
  122OSM   H11G12968   4.911   2.592   7.804 -0.9526  0.7111  0.3959
  122OSM   C12F12969   4.934   2.488   7.987 -0.3139 -0.4845 -0.2019
  122OSM   H12F12970   5.042   2.460   7.991 -0.3279 -0.4301  1.1713
  122OSM   H12G12971   4.881   2.405   8.039  1.1578  0.3877  2.9944
  122OSM   C13F12972   4.915   2.623   8.070 -0.7965  0.5272  0.3051
  122OSM   H13F12973   4.811   2.645   8.040 -0.6086  1.1926  0.1297
  122OSM   H13G12974   4.983   2.698   8.024 -0.7591 -0.2583 -0.9846
  122OSM   C14F12975   4.930   2.600   8.221  1.0400  0.8868  0.0161
  122OSM   H14F12976   4.844   2.534   8.246 -0.6321  0.9712 -4.5545
  122OSM   H14G12977   4.913   2.706   8.250  3.9914  0.9698  1.8066
  122OSM   C15F12978   5.068   2.566   8.277  0.0973 -0.1885 -0.0244
  122OSM   H15F12979   5.148   2.642   8.267  0.0857  0.2196  2.2848
  122OSM   H15G12980   5.096   2.469   8.231  0.7316 -0.9089  1.7718
  122OSM   C16F12981   5.068   2.559   8.430 -0.4295 -0.3578  0.1936
  122OSM   H16F12982   5.168   2.532   8.472 -0.3742  3.9900  3.4959
  122OSM   H16G12983   4.985   2.496   8.469 -0.9133 -0.2202 -0.6111
  122OSM   C17F12984   5.051   2.691   8.497  0.4527 -0.3062  0.2320
  122OSM   H17F12985   4.950   2.719   8.534  0.3144 -1.1983  0.5516
  122OSM   H17G12986   5.076   2.773   8.427 -1.0414  2.0477  2.2693
  122OSM   C18F12987   5.148   2.704   8.616  0.1911  0.8139 -0.0145
  122OSM   H18F12988   5.145   2.806   8.660  1.4755  0.6879  0.4113
  122OSM   H18G12989   5.252   2.692   8.577 -1.3993 -0.3966 -4.5181
  122OSM   H18H12990   5.128   2.631   8.697 -1.4971  0.9065 -0.3288
  123OSM      N12991   2.838   3.714   6.461  0.3630 -0.1629 -0.3358
  123OSM    C1512992   2.921   3.695   6.340 -0.3863 -0.2002  0.0132
  123OSM   H15A12993   3.021   3.734   6.350 -0.9465  1.1519  0.5345
  123OSM   H15B12994   2.876   3.748   6.257 -1.0999 -0.9933 -0.1215
  123OSM   H15C12995   2.925   3.588   6.322 -0.3617  0.0340 -1.4594
  123OSM    C1412996   2.700   3.653   6.446 -0.1438  0.5545 -0.2295
  123OSM   H14A12997   2.705   3.546   6.434  0.4683  0.7532 -2.0482
  123OSM   H14B12998   2.649   3.692   6.359  1.4777 -1.4688 -2.2262
  123OSM   H14C12999   2.650   3.672   6.539  2.1865  0.5356  1.1111
  123OSM    C1313000   2.904   3.639   6.573 -0.0462 -0.2216  0.5717
  123OSM   H13A13001   2.841   3.657   6.658 -1.2560  0.9145 -0.5046
  123OSM   H13B13002   3.006   3.675   6.575 -0.5756  1.8492 -2.1762
  123OSM   H13C13003   2.894   3.533   6.560 -2.3270 -0.2435  2.0770
  123OSM    C1213004   2.823   3.861   6.499 -0.3870  0.7263  0.2753
  123OSM   H12A13005   2.766   3.909   6.420  1.7741  0.2143 -1.6838
  123OSM   H12B13006   2.919   3.910   6.509 -0.9789  1.8611  0.5983
  123OSM    C1113007   2.747   3.898   6.637  0.3506 -0.5276 -0.6004
  123OSM   H11A13008   2.760   4.007   6.652  1.4724 -0.8078  0.7000
  123OSM   H11B13009   2.782   3.846   6.728 -1.2792 -0.6973 -0.0515
  123OSM      P13010   2.499   3.995   6.585  0.2409  0.6611 -0.2945
  123OSM    O1313011   2.531   4.039   6.449 -0.0233  0.4862  0.1765
  123OSM    O1413012   2.358   3.952   6.603  0.6046 -0.8636 -0.0296
  123OSM    O1113013   2.539   4.107   6.688  0.3223 -0.3537 -0.3715
  123OSM    O1213014   2.597   3.874   6.623 -0.1938 -0.7781 -0.1054
  123OSM    C1S13015   2.501   4.104   6.826 -0.1225 -0.0592  0.5461
  123OSM    H1S13016   2.588   4.073   6.887 -0.1889  0.8622  1.1281
  123OSM    H1T13017   2.408   4.043   6.835  0.4256 -0.6649  2.2853
  123OSM     NF13018   2.403   4.237   7.013 -0.8088  0.6483 -0.6868
  123OSM    HNF13019   2.306   4.260   7.017 -0.7078  1.1753 -1.2593
  123OSM    C2S13020   2.464   4.246   6.883  0.1168  0.5276 -0.2705
  123OSM    H2S13021   2.558   4.304   6.896  0.7432 -0.4702 -0.2614
  123OSM    C3S13022   2.371   4.317   6.774  0.5598  0.4968  0.7729
  123OSM    H3S13023   2.286   4.246   6.767  0.5732  0.4972  0.6093
  123OSM     O313024   2.420   4.334   6.643  0.1644  0.5075  0.6650
  123OSM    HO313025   2.470   4.255   6.622 -2.6974 -0.8965 -1.5141
  123OSM    C4S13026   2.332   4.448   6.830  0.1349  1.1130 -0.1458
  123OSM    H4S13027   2.400   4.533   6.812 -1.1690  2.0285 -0.9708
  123OSM    C5S13028   2.213   4.468   6.891 -0.6371 -0.3310 -0.5319
  123OSM    H5S13029   2.134   4.391   6.893 -0.7278 -0.2241  0.3202
  123OSM    C6S13030   2.165   4.601   6.937 -0.2535  0.3693 -0.5717
  123OSM    H6S13031   2.075   4.638   6.883  0.2396  2.0138 -0.3232
  123OSM    H6T13032   2.239   4.682   6.920 -1.3353  1.7952  1.1722
  123OSM    C7S13033   2.128   4.590   7.088 -0.7670  0.0077 -0.0961
  123OSM    H7S13034   2.152   4.693   7.124  0.6803  0.1237 -1.3073
  123OSM    H7T13035   2.195   4.521   7.143 -1.4242 -0.9151 -0.4351
  123OSM    C8S13036   1.989   4.537   7.114  0.3925 -0.6758 -0.4092
  123OSM    H8S13037   1.979   4.439   7.061 -1.8469  0.0323 -1.4319
  123OSM    H8T13038   1.912   4.606   7.073 -0.8786  0.1697  3.0635
  123OSM    C9S13039   1.963   4.526   7.269  0.0703  0.2421  0.0264
  123OSM    H9S13040   2.053   4.472   7.307 -0.8952 -0.0920  1.9611
  123OSM    H9T13041   1.872   4.466   7.291 -0.5778  1.7374  1.6639
  123OSM   C10S13042   1.935   4.662   7.336  0.9920 -0.6410 -0.8164
  123OSM   H10S13043   1.831   4.694   7.316  0.0761 -0.9114  2.8693
  123OSM   H10T13044   1.996   4.744   7.293  0.0570  1.4065  1.5402
  123OSM   C11S13045   1.955   4.661   7.492 -0.1589 -0.0826 -0.8540
  123OSM   H11S13046   2.054   4.625   7.528 -1.0633 -0.8845  0.9414
  123OSM   H11T13047   1.880   4.584   7.518 -0.8220  0.2208 -1.8107
  123OSM   C12S13048   1.924   4.797   7.559  0.7088 -0.0243 -0.0102
  123OSM   H12S13049   1.816   4.820   7.545  0.0857 -2.8764 -0.5066
  123OSM   H12T13050   1.980   4.870   7.497 -0.3711  0.6314 -0.2546
  123OSM   C13S13051   1.980   4.811   7.707  0.7109 -0.2657  0.6500
  123OSM   H13S13052   1.966   4.911   7.754  0.5594 -0.4085  0.9088
  123OSM   H13T13053   2.089   4.793   7.707  0.6798 -0.4764  0.1314
  123OSM   C14S13054   1.922   4.711   7.812 -0.2463 -0.1777  0.7658
  123OSM   H14S13055   1.963   4.612   7.784  0.3652  0.5781 -1.1666
  123OSM   H14T13056   1.812   4.718   7.802 -0.3659 -2.0409  0.4498
  123OSM   C15S13057   1.970   4.717   7.961  0.6946  0.4084 -0.2343
  123OSM   H15S13058   1.922   4.810   7.998 -2.2779  0.1094 -2.9533
  123OSM   H15T13059   2.081   4.706   7.965  0.7716  0.8941 -0.8923
  123OSM   C16S13060   1.899   4.604   8.051 -0.6148  0.4924  0.8953
  123OSM   H16S13061   1.933   4.505   8.015 -2.3830 -0.9565  2.9617
  123OSM   H16T13062   1.790   4.620   8.037 -0.3712  0.6283 -1.1707
  123OSM   C17S13063   1.932   4.605   8.200 -0.0951  0.6465 -0.1104
  123OSM   H17S13064   1.873   4.682   8.253 -0.5770  0.2593 -0.0752
  123OSM   H17T13065   2.041   4.621   8.216  0.4415 -0.4965 -2.3324
  123OSM   C18S13066   1.903   4.468   8.274 -0.8520  0.4334  0.1452
  123OSM   H18S13067   1.955   4.472   8.372  1.7086 -2.7164 -0.8804
  123OSM   H18T13068   1.933   4.380   8.212 -2.6262  0.3140 -0.5980
  123OSM   H18U13069   1.794   4.460   8.293 -0.5217  1.6735  2.9942
  123OSM    C1F13070   2.459   4.188   7.125 -0.2900 -1.2728 -0.0502
  123OSM     OF13071   2.569   4.139   7.132 -0.0546  0.0638 -0.6945
  123OSM    C2F13072   2.384   4.219   7.255 -0.4932  0.8097  0.4007
  123OSM    H2F13073   2.274   4.224   7.237 -0.0697  1.4396 -2.3487
  123OSM    H2G13074   2.430   4.309   7.301  0.4180  0.2460  0.6030
  123OSM    C3F13075   2.404   4.101   7.361  0.5645 -0.1989  0.2192
  123OSM    H3F13076   2.500   4.121   7.413  0.0082 -1.7844  1.9809
  123OSM    H3G13077   2.407   4.006   7.303  0.9779 -0.1074  0.0956
  123OSM    C4F13078   2.297   4.086   7.461 -0.2178 -0.8829  0.8118
  123OSM    H4F13079   2.311   3.997   7.527 -1.5934 -1.7519 -0.0288
  123OSM    H4G13080   2.202   4.067   7.407  0.1024  1.8349 -0.9022
  123OSM    C5F13081   2.280   4.214   7.538 -0.8566  1.0662  0.3162
  123OSM    H5F13082   2.247   4.296   7.469 -1.8947  0.9185  0.6132
  123OSM    H5G13083   2.380   4.245   7.575 -0.4976  4.9948 -3.1346
  123OSM    C6F13084   2.191   4.194   7.665  0.0709 -0.1366  0.0843
  123OSM    H6F13085   2.230   4.106   7.720  0.8925 -0.3363 -0.7878
  123OSM    H6G13086   2.099   4.157   7.615 -0.7703  0.7333  0.9442
  123OSM    C7F13087   2.179   4.322   7.747  0.9878 -0.4622 -0.3613
  123OSM    H7F13088   2.111   4.321   7.835  1.8086  3.7093  0.5569
  123OSM    H7G13089   2.138   4.405   7.684  2.1873  1.0084  0.7167
  123OSM    C8F13090   2.312   4.372   7.809  0.2520  0.2834  0.0116
  123OSM    H8F13091   2.370   4.414   7.724 -0.5096  4.2855  1.2658
  123OSM    H8G13092   2.362   4.278   7.844 -0.2100  0.9205  2.5871
  123OSM    C9F13093   2.290   4.467   7.917 -0.8093 -0.2338 -0.8660
  123OSM    H9F13094   2.280   4.568   7.875 -1.6102 -0.8194 -2.1482
  123OSM   C10F13095   2.276   4.448   8.052 -0.1403  0.6960 -0.0462
  123OSM   H10F13096   2.263   4.537   8.116  1.4666  0.9062  0.0203
  123OSM   C11F13097   2.280   4.314   8.112 -0.3808 -0.2539 -0.0132
  123OSM   H11F13098   2.308   4.223   8.055  1.2971 -0.4569  1.0455
  123OSM   H11G13099   2.171   4.307   8.130 -0.4554  2.8749  1.4740
  123OSM   C12F13100   2.352   4.307   8.249 -0.2101  0.1911  0.0813
  123OSM   H12F13101   2.459   4.333   8.236 -1.1548  3.7424 -1.6283
  123OSM   H12G13102   2.332   4.208   8.295  2.0626 -0.4838 -0.2561
  123OSM   C13F13103   2.299   4.402   8.366  0.2823  0.0064 -0.5115
  123OSM   H13F13104   2.190   4.382   8.378  0.6627 -1.6743  0.5231
  123OSM   H13G13105   2.326   4.506   8.340 -1.1909  0.4206 -0.4791
  123OSM   C14F13106   2.364   4.364   8.493  0.2119  0.1491 -0.3533
  123OSM   H14F13107   2.474   4.379   8.491  0.3821 -0.8948 -3.1432
  123OSM   H14G13108   2.355   4.253   8.501  1.5331  0.0188 -0.4217
  123OSM   C15F13109   2.323   4.436   8.625  0.3203  0.2074  0.1136
  123OSM   H15F13110   2.375   4.410   8.720 -1.1248 -2.2722  0.3154
  123OSM   H15G13111   2.219   4.405   8.648  0.7464  0.7988  3.2982
  123OSM   C16F13112   2.328   4.589   8.611  0.4182  0.5241 -0.3320
  123OSM   H16F13113   2.279   4.633   8.701 -0.4633  1.4484 -1.2422
  123OSM   H16G13114   2.261   4.621   8.529 -1.2775  0.0180  0.8190
  123OSM   C17F13115   2.474   4.636   8.597 -0.2110 -0.6556  0.2785
  123OSM   H17F13116   2.508   4.608   8.495  0.3574  0.1458  0.2361
  123OSM   H17G13117   2.545   4.585   8.665  0.8177 -0.2179 -0.4361
  123OSM   C18F13118   2.481   4.788   8.600 -0.0262 -0.7064 -0.6943
  123OSM   H18F13119   2.439   4.822   8.697 -0.7935  3.2344 -2.2340
  123OSM   H18G13120   2.428   4.840   8.517  2.6054  1.5874 -1.0661
  123OSM   H18H13121   2.588   4.816   8.591 -0.3450  0.3517 -1.3652
  124OSM      N13122   0.858   1.243   6.150  0.0128 -0.1158  0.5692
  124OSM    C1513123   0.995   1.280   6.101 -0.1897 -0.9081  0.3602
  124OSM   H15A13124   1.078   1.227   6.144  1.3444  0.2475 -1.0503
  124OSM   H15B13125   1.012   1.386   6.113 -2.3008 -0.4808  0.0588
  124OSM   H15C13126   1.003   1.272   5.993 -1.1669  0.7808  0.1105
  124OSM    C1413127   0.754   1.336   6.082  0.1053 -0.2514  0.3626
  124OSM   H14A13128   0.655   1.303   6.110  0.4694 -2.4100 -0.6590
  124OSM   H14B13129   0.754   1.341   5.974 -1.7837  1.9951  0.3920
  124OSM   H14C13130   0.772   1.434   6.123  0.8831 -0.0200 -0.4902
  124OSM    C1313131   0.819   1.100   6.103  0.1557 -0.3896 -0.1739
  124OSM   H13A13132   0.873   1.030   6.164 -1.1657 -1.4588 -0.1889
  124OSM   H13B13133   0.839   1.093   5.997 -1.2179 -1.8933 -0.3536
  124OSM   H13C13134   0.716   1.076   6.121  0.4047 -0.3365  1.4518
  124OSM    C1213135   0.832   1.257   6.297  1.0563 -0.3311  0.1488
  124OSM   H12A13136   0.725   1.271   6.307  1.2344  0.4210  1.1618
  124OSM   H12B13137   0.871   1.351   6.335  0.4876  0.3291 -0.8437
  124OSM    C1113138   0.887   1.141   6.388 -0.7745  0.5859  0.2563
  124OSM   H11A13139   0.844   1.046   6.349  0.4184  0.4003 -0.6707
  124OSM   H11B13140   0.854   1.153   6.493 -0.5144  0.7047  0.3253
  124OSM      P13141   1.132   1.241   6.439  0.0956  0.3512 -0.1556
  124OSM    O1313142   1.263   1.228   6.370  0.3829 -0.0467  0.4441
  124OSM    O1413143   1.067   1.370   6.432  0.1223 -0.5157  0.6559
  124OSM    O1113144   1.157   1.201   6.586  0.0143 -0.0592 -0.0302
  124OSM    O1213145   1.034   1.128   6.379 -0.8052 -0.3140 -0.2938
  124OSM    C1S13146   1.123   1.067   6.634  0.3989  0.6752 -0.5093
  124OSM    H1S13147   1.169   0.990   6.568  1.1710  1.6671 -1.1575
  124OSM    H1T13148   1.013   1.058   6.622  0.5349 -0.0654 -1.2655
  124OSM     NF13149   1.163   0.900   6.824 -0.6086  0.1599 -0.3436
  124OSM    HNF13150   1.110   0.869   6.903 -0.0774 -0.7341 -0.3298
  124OSM    C2S13151   1.150   1.036   6.787 -0.1186 -0.7174  0.2543
  124OSM    H2S13152   1.251   1.075   6.809  0.1001 -2.0748  1.9022
  124OSM    C3S13153   1.041   1.115   6.869 -0.6954  0.3047 -0.2519
  124OSM    H3S13154   0.942   1.064   6.864 -0.9833  0.4731  2.3777
  124OSM     O313155   1.014   1.245   6.819  0.1182  0.1001  0.0328
  124OSM    HO313156   1.057   1.262   6.735 -0.7815  0.9304 -0.2727
  124OSM    C4S13157   1.074   1.123   7.016  0.3476 -0.0981 -1.0851
  124OSM    H4S13158   1.076   1.026   7.069 -0.4902 -0.0853 -1.0054
  124OSM    C5S13159   1.092   1.229   7.096 -0.1715 -0.2233  0.3801
  124OSM    H5S13160   1.061   1.323   7.050 -1.7286 -0.8780  0.0155
  124OSM    C6S13161   1.132   1.244   7.243  0.3440 -0.6874 -0.0349
  124OSM    H6S13162   1.058   1.299   7.305 -0.8391 -0.7426 -1.3310
  124OSM    H6T13163   1.229   1.297   7.247  1.2193 -2.0981 -1.5838
  124OSM    C7S13164   1.151   1.107   7.313 -0.1894  0.2325 -0.0197
  124OSM    H7S13165   1.239   1.062   7.262 -0.0642  0.1590  0.2591
  124OSM    H7T13166   1.061   1.045   7.292 -0.7256  0.7506  0.6760
  124OSM    C8S13167   1.197   1.124   7.458 -0.6483 -0.0406 -0.3598
  124OSM    H8S13168   1.273   1.202   7.480 -0.7778 -0.0445  0.1149
  124OSM    H8T13169   1.241   1.028   7.492  0.8244  0.4673 -0.7609
  124OSM    C9S13170   1.082   1.151   7.560 -0.4286  0.4908  0.0652
  124OSM    H9S13171   1.007   1.070   7.544  2.8745 -2.9691  0.8307
  124OSM    H9T13172   1.035   1.247   7.529  1.4449  0.7644 -2.1864
  124OSM   C10S13173   1.131   1.153   7.711 -0.7127  0.0476 -0.5397
  124OSM   H10S13174   1.062   1.212   7.775 -0.4225  0.7258 -0.8458
  124OSM   H10T13175   1.232   1.193   7.731 -2.0915  2.3573  2.6396
  124OSM   C11S13176   1.123   1.010   7.760 -0.6604  0.4848 -0.1911
  124OSM   H11S13177   1.204   0.949   7.714 -0.6058  2.5394 -3.0593
  124OSM   H11T13178   1.026   0.959   7.741 -0.2763 -1.2765  2.0701
  124OSM   C12S13179   1.127   1.003   7.918 -0.2523  0.0184  0.0386
  124OSM   H12S13180   1.062   1.083   7.961 -0.6715 -1.7056  2.8108
  124OSM   H12T13181   1.231   1.024   7.950 -0.8097  2.3650  0.5262
  124OSM   C13S13182   1.068   0.871   7.971 -0.0286  0.3016 -0.5548
  124OSM   H13S13183   1.119   0.797   7.905  1.4394  1.0980 -0.3767
  124OSM   H13T13184   0.959   0.868   7.954 -0.0762 -0.5679 -0.1318
  124OSM   C14S13185   1.117   0.848   8.118 -0.2667 -0.2062 -0.0083
  124OSM   H14S13186   1.062   0.930   8.168 -1.4192 -0.0838 -1.4113
  124OSM   H14T13187   1.222   0.884   8.126 -1.0526  2.0681  0.6831
  124OSM   C15S13188   1.092   0.706   8.177 -0.0180 -0.5188 -0.1001
  124OSM   H15S13189   1.127   0.711   8.283 -0.1894 -0.4339 -0.0474
  124OSM   H15T13190   1.153   0.625   8.132  0.5853 -1.0406  1.5617
  124OSM   C16S13191   0.940   0.678   8.177  0.1998 -0.4278 -0.0774
  124OSM   H16S13192   0.883   0.677   8.082 -0.6964 -3.7131  0.3596
  124OSM   H16T13193   0.898   0.761   8.237  3.2728  0.3691  1.2121
  124OSM   C17S13194   0.907   0.552   8.258 -0.5286  0.4698 -0.8116
  124OSM   H17S13195   0.933   0.579   8.363 -0.8630  1.3298 -0.9403
  124OSM   H17T13196   0.968   0.466   8.223  0.2398  1.0793 -1.0056
  124OSM   C18S13197   0.763   0.497   8.258 -0.7323  0.3825 -0.0349
  124OSM   H18S13198   0.740   0.458   8.157  2.7558  0.0053 -0.8083
  124OSM   H18T13199   0.691   0.581   8.265  0.4881  1.6164 -1.5144
  124OSM   H18U13200   0.748   0.412   8.328  3.7527  0.7581  1.7313
  124OSM    C1F13201   1.267   0.818   6.789  0.0558 -0.4267 -0.4231
  124OSM     OF13202   1.356   0.856   6.718 -0.1937 -0.1893  0.4193
  124OSM    C2F13203   1.271   0.682   6.840 -0.9164 -0.1516  0.0551
  124OSM    H2F13204   1.290   0.601   6.766 -0.7591 -1.2274  1.2172
  124OSM    H2G13205   1.173   0.658   6.888 -0.8600  0.3098  0.4045
  124OSM    C3F13206   1.376   0.659   6.953  0.5390 -0.6556  0.0501
  124OSM    H3F13207   1.472   0.662   6.898  0.4771  0.9367 -0.0098
  124OSM    H3G13208   1.358   0.555   6.988  2.2003 -0.4247  1.7012
  124OSM    C4F13209   1.373   0.764   7.065  0.6956  0.1883 -0.0529
  124OSM    H4F13210   1.271   0.791   7.099  0.9804  1.0691  0.1219
  124OSM    H4G13211   1.415   0.856   7.019  1.0784  0.1937  0.3026
  124OSM    C5F13212   1.469   0.726   7.172 -0.5623  0.6985  0.3347
  124OSM    H5F13213   1.560   0.721   7.108 -0.8657  3.5413 -0.4809
  124OSM    H5G13214   1.452   0.627   7.220 -0.0917  0.3486 -0.2087
  124OSM    C6F13215   1.489   0.839   7.283  0.1871 -0.3769 -0.6078
  124OSM    H6F13216   1.399   0.838   7.347 -0.9870 -1.8494 -2.1666
  124OSM    H6G13217   1.509   0.934   7.228  0.2290 -0.5955 -0.9753
  124OSM    C7F13218   1.610   0.818   7.379 -0.1374 -0.3849  0.0891
  124OSM    H7F13219   1.621   0.897   7.456  1.2226  0.1512 -0.6073
  124OSM    H7G13220   1.703   0.818   7.318 -0.6720  1.2900 -0.7833
  124OSM    C8F13221   1.597   0.680   7.449  0.1115 -0.3336  0.6192
  124OSM    H8F13222   1.637   0.600   7.383  0.5675 -0.0567  0.5584
  124OSM    H8G13223   1.492   0.652   7.473 -1.2592  1.0282 -2.9779
  124OSM    C9F13224   1.681   0.682   7.575  0.5868 -0.1827  0.1500
  124OSM    H9F13225   1.786   0.676   7.542  0.3875  0.1014 -0.5475
  124OSM   C10F13226   1.646   0.684   7.702  0.6159 -1.1417  0.2847
  124OSM   H10F13227   1.723   0.675   7.780 -0.3028  0.7010  1.4905
  124OSM   C11F13228   1.499   0.691   7.740 -0.0674 -0.1597 -1.0261
  124OSM   H11F13229   1.438   0.615   7.686 -0.1070 -0.1094 -1.0513
  124OSM   H11G13230   1.478   0.797   7.719  0.1241 -0.0107 -0.4894
  124OSM   C12F13231   1.477   0.674   7.892  0.5723  0.4498  0.0923
  124OSM   H12F13232   1.526   0.584   7.936 -1.0133  0.2173  1.4972
  124OSM   H12G13233   1.367   0.662   7.904  0.5661  0.2362 -0.1640
  124OSM   C13F13234   1.538   0.782   7.976 -0.3036  0.1728  0.7263
  124OSM   H13F13235   1.495   0.880   7.947 -1.6230 -0.5895  0.0282
  124OSM   H13G13236   1.648   0.792   7.967 -0.5291  2.0074 -0.5689
  124OSM   C14F13237   1.500   0.764   8.126  0.0311 -0.2626  0.0707
  124OSM   H14F13238   1.393   0.736   8.137  0.5823 -2.7956 -0.5008
  124OSM   H14G13239   1.534   0.857   8.176 -1.6102 -0.3860  1.5063
  124OSM   C15F13240   1.594   0.664   8.199 -0.1473 -0.1856 -0.1898
  124OSM   H15F13241   1.702   0.688   8.185 -0.0423 -0.2290  0.5233
  124OSM   H15G13242   1.577   0.560   8.165  0.2197 -0.3594  0.1526
  124OSM   C16F13243   1.573   0.674   8.346  0.4973 -0.4640  0.5798
  124OSM   H16F13244   1.606   0.772   8.385 -0.1510  0.9016 -2.1120
  124OSM   H16G13245   1.628   0.594   8.401 -0.3897 -1.0664  0.6173
  124OSM   C17F13246   1.425   0.669   8.398 -0.1161  0.7328 -0.2122
  124OSM   H17F13247   1.396   0.569   8.361 -2.1347  1.6668 -1.3525
  124OSM   H17G13248   1.363   0.738   8.337 -0.4482 -0.9231 -1.8135
  124OSM   C18F13249   1.421   0.686   8.545 -0.5028  0.1613 -0.1338
  124OSM   H18F13250   1.489   0.618   8.600 -1.6437 -0.9701 -0.0715
  124OSM   H18G13251   1.329   0.707   8.605  0.5846  0.6071  1.4493
  124OSM   H18H13252   1.478   0.780   8.558 -0.5496  0.3939 -1.4852
  125OSM      N13253   2.027   4.302   6.455  0.0253 -0.6144 -0.2251
  125OSM    C1513254   2.120   4.217   6.377 -0.0694  0.0114  0.6920
  125OSM   H15A13255   2.068   4.125   6.355 -1.8548  1.1616 -0.1078
  125OSM   H15B13256   2.215   4.199   6.426  0.4684 -3.6060 -1.2918
  125OSM   H15C13257   2.149   4.259   6.281  0.8081 -0.4615  0.7408
  125OSM    C1413258   1.912   4.315   6.366  0.1514 -0.7288  0.2171
  125OSM   H14A13259   1.872   4.216   6.349  0.3907 -0.5676 -1.4927
  125OSM   H14B13260   1.942   4.370   6.277 -0.5621 -0.4646  0.1292
  125OSM   H14C13261   1.844   4.378   6.423  1.0093  0.7918 -0.3690
  125OSM    C1313262   1.988   4.223   6.575  0.3415  0.0406  0.0144
  125OSM   H13A13263   2.079   4.187   6.620  0.8336  1.2792  0.0703
  125OSM   H13B13264   1.932   4.135   6.547 -1.7480  0.0498  3.5911
  125OSM   H13C13265   1.925   4.271   6.649 -1.1932  0.0003 -1.2076
  125OSM    C1213266   2.085   4.439   6.487  0.0476 -0.2671 -0.0746
  125OSM   H12A13267   2.109   4.493   6.396  4.0682  0.3994  1.1657
  125OSM   H12B13268   2.187   4.423   6.519 -0.2007 -1.2098  0.2721
  125OSM    C1113269   2.002   4.528   6.581 -0.6922  0.4500 -0.0219
  125OSM   H11A13270   2.058   4.616   6.620 -2.2806 -0.5183  5.0993
  125OSM   H11B13271   1.984   4.474   6.676  1.2820 -1.0920 -0.4702
  125OSM      P13272   1.867   4.681   6.413 -0.2160  0.3743 -0.1044
  125OSM    O1313273   1.974   4.662   6.317 -0.1131  0.5790  0.2406
  125OSM    O1413274   1.734   4.690   6.352  0.7841 -0.4281 -0.0674
  125OSM    O1113275   1.897   4.818   6.486  0.0817  0.2007 -0.0595
  125OSM    O1213276   1.875   4.566   6.524  0.5827 -0.4217 -0.7671
  125OSM    C1S13277   1.809   4.858   6.593  0.2127 -0.2417  0.5942
  125OSM    H1S13278   1.714   4.802   6.609 -0.8628  1.0395 -0.9830
  125OSM    H1T13279   1.771   4.961   6.580 -0.4205 -0.6014 -0.5246
  125OSM     NF13280   1.792   4.901   6.828  0.2269 -0.4659  0.4761
  125OSM    HNF13281   1.797   4.996   6.858  2.6825 -0.9975  2.0422
  125OSM    C2S13282   1.887   4.864   6.724 -0.0884  0.0550  0.3630
  125OSM    H2S13283   1.919   4.759   6.742  0.6930 -0.2469 -2.3951
  125OSM    C3S13284   2.013   4.944   6.716  0.4829 -0.3368 -0.2618
  125OSM    H3S13285   2.001   5.041   6.662 -0.1599  0.0130  0.4972
  125OSM     O313286   2.126   4.882   6.649  0.0705  0.7855  0.3096
  125OSM    HO313287   2.094   4.804   6.602  0.2544  0.6328  0.4334
  125OSM    C4S13288   2.064   4.967   6.853  0.7177  0.7080  0.3273
  125OSM    H4S13289   2.072   4.878   6.917 -3.4655  0.7912  1.2010
  125OSM    C5S13290   2.083   5.087   6.912  0.8147 -0.2866  0.6469
  125OSM    H5S13291   2.059   5.178   6.854  0.1994 -0.1376  1.1205
  125OSM    C6S13292   2.114   5.127   7.057  0.4662 -0.2578  0.7361
  125OSM    H6S13293   2.030   5.191   7.094 -1.5368 -1.3722 -1.6065
  125OSM    H6T13294   2.195   5.203   7.049 -1.0123  1.3598  0.6134
  125OSM    C7S13295   2.150   5.007   7.151 -0.3033 -0.6557 -0.3313
  125OSM    H7S13296   2.237   4.953   7.106 -0.8108 -1.2937 -0.5712
  125OSM    H7T13297   2.065   4.936   7.139  0.7108 -1.8124 -0.9034
  125OSM    C8S13298   2.156   5.057   7.297 -1.1804  0.2328  0.5289
  125OSM    H8S13299   2.059   5.083   7.345 -1.5673 -1.0649  0.5000
  125OSM    H8T13300   2.225   5.142   7.281 -0.1934 -0.3654  1.4867
  125OSM    C9S13301   2.230   4.960   7.388  0.0141  0.4024 -0.1889
  125OSM    H9S13302   2.324   4.934   7.335 -0.7335 -1.1787 -0.7947
  125OSM    H9T13303   2.183   4.860   7.394  0.0150  0.3492 -0.9040
  125OSM   C10S13304   2.250   5.023   7.525 -0.5711  0.2839 -0.5665
  125OSM   H10S13305   2.160   5.039   7.587  0.8140 -1.0854  1.9625
  125OSM   H10T13306   2.296   5.124   7.520 -0.1731  0.0862 -0.9732
  125OSM   C11S13307   2.335   4.929   7.619 -0.2685 -0.2594  0.0626
  125OSM   H11S13308   2.437   4.901   7.586 -0.4159 -0.7984  0.0626
  125OSM   H11T13309   2.284   4.831   7.622  0.1204 -0.4355  1.2491
  125OSM   C12S13310   2.331   4.977   7.766 -0.4991  0.4953  0.2328
  125OSM   H12S13311   2.229   5.020   7.782  0.3772  2.9673 -0.4659
  125OSM   H12T13312   2.402   5.061   7.782 -0.9537  0.4415  3.1741
  125OSM   C13S13313   2.345   4.867   7.876  0.1350  0.4796  0.1160
  125OSM   H13S13314   2.435   4.805   7.854  1.3382  2.2225 -0.0978
  125OSM   H13T13315   2.256   4.801   7.879 -0.3145  1.0005 -1.0541
  125OSM   C14S13316   2.360   4.931   8.010 -0.4689 -0.4336  0.4225
  125OSM   H14S13317   2.267   4.989   8.028  0.8382  1.5100  1.2158
  125OSM   H14T13318   2.448   4.998   8.027  1.4504 -3.0851  1.7696
  125OSM   C15S13319   2.380   4.836   8.133  0.0248  0.5632  0.5009
  125OSM   H15S13320   2.475   4.778   8.128  0.2830  1.0004  0.2063
  125OSM   H15T13321   2.301   4.758   8.129  1.2271 -0.6499 -0.6317
  125OSM   C16S13322   2.370   4.896   8.272 -0.1089 -0.4979  0.1025
  125OSM   H16S13323   2.446   4.974   8.295 -0.0593 -0.8963  1.3402
  125OSM   H16T13324   2.396   4.810   8.337  0.4928 -0.3090  0.1167
  125OSM   C17S13325   2.233   4.949   8.297  0.2746  0.4516 -0.8470
  125OSM   H17S13326   2.157   4.875   8.262  0.4037  0.1596 -0.5065
  125OSM   H17T13327   2.228   5.037   8.229  0.8884  0.1738 -1.2615
  125OSM   C18S13328   2.209   4.995   8.431  0.1011  0.2520 -0.1127
  125OSM   H18S13329   2.273   5.085   8.435  1.0357 -0.1570 -3.2869
  125OSM   H18T13330   2.233   4.918   8.508  0.3702  0.3108 -0.1391
  125OSM   H18U13331   2.099   5.015   8.436  0.4684  2.8402 -1.1001
  125OSM    C1F13332   1.697   4.823   6.887  0.2415  0.0814 -0.4126
  125OSM     OF13333   1.668   4.712   6.855 -0.1392  0.2089  0.0010
  125OSM    C2F13334   1.619   4.892   7.010 -0.5332  0.1160  1.4620
  125OSM    H2F13335   1.562   4.974   6.959 -2.1723 -1.9932 -0.3022
  125OSM    H2G13336   1.696   4.935   7.077  1.0038 -0.9656  0.4350
  125OSM    C3F13337   1.528   4.802   7.083  0.7603  0.9278  0.0264
  125OSM    H3F13338   1.578   4.709   7.120 -1.2492 -0.8077 -1.3978
  125OSM    H3G13339   1.447   4.759   7.022  0.5010 -2.3575  2.3799
  125OSM    C4F13340   1.472   4.861   7.212  0.5262 -0.1969  0.3800
  125OSM    H4F13341   1.392   4.794   7.250 -0.6861  0.8651 -0.1678
  125OSM    H4G13342   1.426   4.959   7.184  2.1305 -0.1374 -2.4411
  125OSM    C5F13343   1.574   4.860   7.327  1.1124  0.2933  0.2855
  125OSM    H5F13344   1.667   4.915   7.298  0.9086 -1.2406 -4.1664
  125OSM    H5G13345   1.599   4.757   7.359  0.4549 -0.1875 -0.7018
  125OSM    C6F13346   1.504   4.937   7.447 -0.0746 -0.1868 -0.1439
  125OSM    H6F13347   1.454   5.027   7.406 -1.2306  0.6009  2.7898
  125OSM    H6G13348   1.584   4.972   7.515  0.6295 -0.0141 -1.0332
  125OSM    C7F13349   1.409   4.848   7.523  0.2506  0.8101 -0.3299
  125OSM    H7F13350   1.459   4.754   7.554  0.1619  1.1489  0.9103
  125OSM    H7G13351   1.315   4.833   7.465 -1.5697  1.2593  2.2784
  125OSM    C8F13352   1.365   4.910   7.657 -0.0311  0.2256  0.9936
  125OSM    H8F13353   1.301   4.999   7.637 -1.2591 -0.5148  1.4715
  125OSM    H8G13354   1.455   4.948   7.710  0.9223 -1.6869  0.8370
  125OSM    C9F13355   1.294   4.809   7.747 -0.6984 -0.2860  0.0242
  125OSM    H9F13356   1.186   4.800   7.727 -1.0438 -0.4967  1.8434
  125OSM   C10F13357   1.348   4.736   7.843 -0.6057  0.0939 -0.1401
  125OSM   H10F13358   1.279   4.671   7.898 -0.6678 -0.3456 -0.7221
  125OSM   C11F13359   1.486   4.750   7.896  0.3015  0.1158  0.0156
  125OSM   H11F13360   1.530   4.847   7.865  1.2863 -0.6066 -0.9321
  125OSM   H11G13361   1.548   4.676   7.841  0.1434  0.1881 -0.2628
  125OSM   C12F13362   1.499   4.728   8.058  0.6077  0.0184  0.0698
  125OSM   H12F13363   1.433   4.805   8.103 -3.0518 -2.4155 -0.6852
  125OSM   H12G13364   1.605   4.755   8.077  0.2127  1.1522  0.7632
  125OSM   C13F13365   1.460   4.591   8.092  0.0019 -0.2534 -0.1708
  125OSM   H13F13366   1.500   4.506   8.032 -1.6446 -0.7508 -0.6094
  125OSM   H13G13367   1.350   4.576   8.098  0.0034 -0.5484 -0.8259
  125OSM   C14F13368   1.510   4.559   8.237 -0.3851  0.2247 -0.4745
  125OSM   H14F13369   1.463   4.629   8.309  0.3808  1.4238 -1.1092
  125OSM   H14G13370   1.621   4.565   8.240 -0.2537 -2.0137  1.0023
  125OSM   C15F13371   1.476   4.417   8.279 -0.3757 -0.0184 -0.7056
  125OSM   H15F13372   1.505   4.357   8.190  1.2826  1.4601 -1.2001
  125OSM   H15G13373   1.365   4.418   8.285 -0.3393  2.2068  1.5007
  125OSM   C16F13374   1.537   4.367   8.411  0.0205  0.6889  0.5492
  125OSM   H16F13375   1.646   4.348   8.408  0.1504  1.2212  1.4317
  125OSM   H16G13376   1.481   4.276   8.441 -1.0353  1.0855 -0.1489
  125OSM   C17F13377   1.513   4.461   8.531 -0.1718 -0.1360 -0.4599
  125OSM   H17F13378   1.403   4.467   8.548  0.2824  0.7750  2.7226
  125OSM   H17G13379   1.547   4.565   8.512  1.9527 -0.0017  3.2042
  125OSM   C18F13380   1.572   4.395   8.658  0.2778 -0.5920  0.0199
  125OSM   H18F13381   1.561   4.466   8.743 -0.0632  1.6053 -1.7659
  125OSM   H18G13382   1.681   4.379   8.647  0.2829 -0.9794  0.5996
  125OSM   H18H13383   1.513   4.302   8.673 -1.0883  0.2448 -0.0417
  126OSM      N13384   2.809   4.381   6.388 -0.3293  0.0367  0.3227
  126OSM    C1513385   2.874   4.267   6.321 -0.4830  0.3394  0.2097
  126OSM   H15A13386   2.903   4.199   6.400  0.6034 -1.1068 -1.3335
  126OSM   H15B13387   2.971   4.301   6.287  1.3431 -2.5104  2.1245
  126OSM   H15C13388   2.812   4.217   6.247 -1.0763  1.0105  0.2476
  126OSM    C1413389   2.800   4.492   6.297 -0.1845  0.0275  0.5729
  126OSM   H14A13390   2.716   4.476   6.232 -0.6580 -1.4691  1.5056
  126OSM   H14B13391   2.891   4.508   6.242 -0.4529  1.7577  0.5894
  126OSM   H14C13392   2.790   4.582   6.356  1.2913 -0.6986  2.0306
  126OSM    C1313393   2.676   4.348   6.445 -1.0871  0.2821  0.3845
  126OSM   H13A13394   2.602   4.333   6.367 -1.9047  0.0225  1.1912
  126OSM   H13B13395   2.639   4.432   6.502  1.8730  1.2375  1.0600
  126OSM   H13C13396   2.679   4.252   6.493  0.7424 -0.6046 -1.3650
  126OSM    C1213397   2.896   4.423   6.506  0.4811  1.7154  0.0376
  126OSM   H12A13398   2.853   4.518   6.535 -0.4437  1.3864 -0.2468
  126OSM   H12B13399   2.995   4.445   6.469  0.7238  0.4051 -0.1183
  126OSM    C1113400   2.909   4.325   6.626  0.4760 -1.1765 -0.6955
  126OSM   H11A13401   2.817   4.324   6.688  1.4861 -1.2174  0.8862
  126OSM   H11B13402   2.982   4.377   6.692  0.6053 -1.0722 -0.9208
  126OSM      P13403   3.077   4.132   6.666  0.1050 -0.1794 -0.1337
  126OSM    O1313404   3.074   3.990   6.623 -0.0181 -0.1730 -0.0692
  126OSM    O1413405   3.196   4.220   6.635 -0.0979 -0.0614  0.4411
  126OSM    O1113406   3.042   4.135   6.819 -0.0597 -0.2502 -0.5416
  126OSM    O1213407   2.948   4.193   6.600  0.6890  0.6020  0.8529
  126OSM    C1S13408   2.924   4.074   6.875  0.5472 -0.6840 -0.9877
  126OSM    H1S13409   2.911   3.968   6.845 -1.0148 -0.3772 -1.5002
  126OSM    H1T13410   2.835   4.137   6.850 -0.4501 -0.8161  1.8699
  126OSM     NF13411   2.798   3.995   7.074  0.1458 -0.2526 -0.5335
  126OSM    HNF13412   2.705   4.033   7.084  0.6076  1.8796 -3.1349
  126OSM    C2S13413   2.908   4.084   7.037  0.0994  0.3249 -0.2099
  126OSM    H2S13414   3.001   4.040   7.079  0.9337 -0.0162 -2.2937
  126OSM    C3S13415   2.889   4.236   7.079 -0.0934 -0.1077  0.8641
  126OSM    H3S13416   2.794   4.268   7.030 -1.5997 -2.7214  1.8255
  126OSM     O313417   2.992   4.326   7.041 -0.9905 -0.1133  0.1779
  126OSM    HO313418   3.047   4.273   6.982  0.4052  0.5093  0.8570
  126OSM    C4S13419   2.863   4.246   7.229  0.5866  0.4491 -0.0209
  126OSM    H4S13420   2.772   4.191   7.255 -1.1328  2.2254 -1.9600
  126OSM    C5S13421   2.942   4.287   7.329  0.1391  0.1732 -0.7514
  126OSM    H5S13422   3.048   4.305   7.305  0.6716 -2.6251 -0.7684
  126OSM    C6S13423   2.919   4.286   7.475  0.2871 -0.0065  0.3170
  126OSM    H6S13424   2.812   4.268   7.498 -1.4843  4.0556 -3.3990
  126OSM    H6T13425   2.931   4.389   7.516  2.1947 -0.0538 -0.0488
  126OSM    C7S13426   3.018   4.198   7.548 -0.4088 -0.3860 -0.9527
  126OSM    H7S13427   3.117   4.244   7.529 -0.8314 -0.2407 -3.0343
  126OSM    H7T13428   3.031   4.099   7.500  3.4585 -0.2951 -0.4334
  126OSM    C8S13429   3.003   4.181   7.702  0.6668  0.8014  0.0112
  126OSM    H8S13430   3.075   4.100   7.730 -0.7554 -0.9301 -1.0979
  126OSM    H8T13431   2.896   4.159   7.725  0.6251  0.8638 -0.1227
  126OSM    C9S13432   3.048   4.303   7.796 -0.0754 -0.1958  0.2977
  126OSM    H9S13433   2.994   4.389   7.750  1.1194  0.4819  0.1272
  126OSM    H9T13434   3.151   4.329   7.764  0.0653  0.4357  1.2174
  126OSM   C10S13435   3.041   4.291   7.950  0.0287  0.5547 -0.0895
  126OSM   H10S13436   2.964   4.214   7.970  1.2632 -0.6180  0.3454
  126OSM   H10T13437   3.006   4.387   7.994 -2.5992  0.3759 -1.5975
  126OSM   C11S13438   3.175   4.253   8.027  0.0541  0.1832  0.0181
  126OSM   H11S13439   3.238   4.343   8.041 -2.6732  2.0153  1.4617
  126OSM   H11T13440   3.240   4.180   7.975  0.5840 -0.2760  1.2805
  126OSM   C12S13441   3.146   4.194   8.172 -0.7464 -0.5866  0.3326
  126OSM   H12S13442   3.082   4.104   8.159  0.1025 -1.4394  1.7255
  126OSM   H12T13443   3.078   4.265   8.224 -0.6998  0.1349 -0.5580
  126OSM   C13S13444   3.274   4.159   8.244  0.4883  0.1434 -0.4666
  126OSM   H13S13445   3.340   4.248   8.236  1.2496 -0.2990  0.5342
  126OSM   H13T13446   3.323   4.078   8.186  1.0180  0.4037 -0.3967
  126OSM   C14S13447   3.236   4.117   8.387 -0.4055 -0.4263  0.1210
  126OSM   H14S13448   3.321   4.054   8.422  0.1182 -0.2173 -0.7562
  126OSM   H14T13449   3.154   4.042   8.384  0.2987 -1.1946 -0.1738
  126OSM   C15S13450   3.193   4.232   8.478 -0.1343 -0.0263 -0.8639
  126OSM   H15S13451   3.091   4.262   8.448 -0.7403  1.1812  2.0894
  126OSM   H15T13452   3.261   4.320   8.475 -0.4951  0.3022  0.2334
  126OSM   C16S13453   3.178   4.183   8.630 -0.0924  0.0295 -0.0302
  126OSM   H16S13454   3.161   4.284   8.674  0.5915  1.4512 -2.7567
  126OSM   H16T13455   3.276   4.143   8.663  0.6909  0.2787 -1.9049
  126OSM   C17S13456   3.052   4.099   8.646  0.3639 -0.2820 -0.6892
  126OSM   H17S13457   3.068   4.000   8.598  0.1270  0.7610 -3.0904
  126OSM   H17T13458   2.968   4.141   8.587 -0.2173  1.1056  1.0362
  126OSM   C18S13459   3.009   4.098   8.794 -0.0401 -0.0733 -0.1442
  126OSM   H18S13460   2.899   4.087   8.796 -0.0043 -0.3664  1.1880
  126OSM   H18T13461   3.050   4.188   8.846  1.3881 -0.9586  0.3089
  126OSM   H18U13462   3.044   4.006   8.845  0.9015 -0.0618 -0.7409
  126OSM    C1F13463   2.810   3.866   7.080  0.2712 -0.1027 -0.1087
  126OSM     OF13464   2.930   3.825   7.077  0.0332  0.0575 -0.0067
  126OSM    C2F13465   2.684   3.779   7.085  0.6317  0.7604 -0.5354
  126OSM    H2F13466   2.674   3.707   7.001 -2.1350  1.1041 -0.6051
  126OSM    H2G13467   2.598   3.848   7.072  1.3068  1.4418 -1.4252
  126OSM    C3F13468   2.670   3.705   7.220 -0.8142 -0.4050  0.6624
  126OSM    H3F13469   2.761   3.641   7.222  0.0114  0.6824 -0.2451
  126OSM    H3G13470   2.583   3.637   7.222 -3.6585  2.7033 -2.1438
  126OSM    C4F13471   2.667   3.800   7.341  0.1158 -0.1776  0.7059
  126OSM    H4F13472   2.584   3.873   7.327 -1.9795 -2.5718 -0.1056
  126OSM    H4G13473   2.763   3.853   7.359  0.0536  0.2127 -0.0679
  126OSM    C5F13474   2.623   3.734   7.466  0.0481  0.1227 -0.4551
  126OSM    H5F13475   2.685   3.644   7.486  0.4201  0.3404 -0.6270
  126OSM    H5G13476   2.520   3.702   7.438 -0.1644 -2.1948  2.4915
  126OSM    C6F13477   2.604   3.827   7.587 -0.4550  0.2400 -0.4789
  126OSM    H6F13478   2.545   3.917   7.558 -0.0096  1.0449  0.9974
  126OSM    H6G13479   2.700   3.861   7.629 -0.6237 -0.0470  0.1417
  126OSM    C7F13480   2.526   3.755   7.692  0.2190 -1.0160 -0.3055
  126OSM    H7F13481   2.597   3.680   7.733  0.7544 -0.2941  0.1114
  126OSM    H7G13482   2.443   3.711   7.633 -0.6137  0.9885 -0.6997
  126OSM    C8F13483   2.468   3.838   7.808  0.7709 -0.2975  0.2558
  126OSM    H8F13484   2.413   3.925   7.767  0.2483 -1.0031 -0.5534
  126OSM    H8G13485   2.548   3.882   7.873  0.4609  0.0921  0.3741
  126OSM    C9F13486   2.381   3.748   7.897  0.2437  0.7550  0.4751
  126OSM    H9F13487   2.374   3.646   7.857  1.0630  1.1186 -0.6473
  126OSM   C10F13488   2.297   3.789   7.990  0.3109  0.0348 -0.6418
  126OSM   H10F13489   2.244   3.707   8.040 -0.0936  1.1173  0.7898
  126OSM   C11F13490   2.269   3.927   8.042  0.0411  0.2165  0.3312
  126OSM   H11F13491   2.162   3.944   8.017 -0.4383 -0.5259  1.7959
  126OSM   H11G13492   2.326   4.008   7.991  0.0480 -1.1473 -1.9701
  126OSM   C12F13493   2.294   3.924   8.190 -0.2794  0.3490 -0.1213
  126OSM   H12F13494   2.263   4.027   8.217 -1.6330  0.1587 -0.8779
  126OSM   H12G13495   2.397   3.899   8.224 -1.5162 -1.1371  2.9353
  126OSM   C13F13496   2.196   3.834   8.275 -0.9228 -0.6126 -0.5071
  126OSM   H13F13497   2.199   3.731   8.234  1.0964 -0.5745 -0.5799
  126OSM   H13G13498   2.096   3.880   8.266  0.6997  3.1278 -1.1392
  126OSM   C14F13499   2.230   3.837   8.422 -0.2378 -0.7794  0.0093
  126OSM   H14F13500   2.270   3.940   8.435 -1.3019  0.1079 -2.8490
  126OSM   H14G13501   2.312   3.767   8.447  3.0521  2.5462 -0.6033
  126OSM   C15F13502   2.109   3.831   8.519  0.0735  0.2534 -0.0286
  126OSM   H15F13503   2.071   3.726   8.524 -1.5238  0.8010 -0.0474
  126OSM   H15G13504   2.032   3.905   8.491 -1.1731 -1.0197 -0.0785
  126OSM   C16F13505   2.141   3.873   8.661 -0.5242 -0.0503 -0.3362
  126OSM   H16F13506   2.233   3.826   8.700  0.1322  1.0421 -0.5245
  126OSM   H16G13507   2.055   3.831   8.718  0.6394 -1.0842  0.6970
  126OSM   C17F13508   2.140   4.024   8.687  0.0586 -0.2190  0.0123
  126OSM   H17F13509   2.039   4.058   8.655 -0.7344  0.3763  2.8637
  126OSM   H17G13510   2.221   4.079   8.633 -0.9327  2.2676  0.9243
  126OSM   C18F13511   2.153   4.052   8.833 -0.2539  0.4305 -0.1761
  126OSM   H18F13512   2.176   4.157   8.860  3.3225  0.2264 -1.8467
  126OSM   H18G13513   2.239   3.990   8.866  0.2917  0.7731 -0.9288
  126OSM   H18H13514   2.066   4.018   8.892  1.1630 -2.1819  0.5917
  127OSM      N13515   1.677   5.923   6.154 -0.1380  0.2143  0.0032
  127OSM    C1513516   1.624   5.791   6.101 -0.2925 -0.1674 -0.0799
  127OSM   H15A13517   1.662   5.770   6.003 -0.6428  0.1977 -0.2968
  127OSM   H15B13518   1.517   5.781   6.100 -0.1971 -1.3500  0.3373
  127OSM   H15C13519   1.665   5.713   6.163  0.3993  0.6177  0.4784
  127OSM    C1413520   1.821   5.905   6.131  0.0745 -0.4966 -0.2345
  127OSM   H14A13521   1.857   5.819   6.185  1.1499  0.1271  0.0539
  127OSM   H14B13522   1.881   5.993   6.150 -1.7210  0.5593  0.9010
  127OSM   H14C13523   1.833   5.879   6.027  0.5465 -0.8233 -0.0978
  127OSM    C1313524   1.629   6.041   6.073  0.4041  0.5992 -0.7970
  127OSM   H13A13525   1.651   6.018   5.970  1.2957  0.9544 -0.6899
  127OSM   H13B13526   1.688   6.127   6.100  0.2028  0.6189 -0.4107
  127OSM   H13C13527   1.524   6.058   6.090  0.5852  1.3581 -0.4211
  127OSM    C1213528   1.637   5.931   6.296 -0.1952 -0.2343  0.2887
  127OSM   H12A13529   1.530   5.930   6.306 -0.1111 -2.1366  1.7446
  127OSM   H12B13530   1.665   6.028   6.333 -1.2833 -0.2443  1.2038
  127OSM    C1113531   1.701   5.821   6.396  0.2264  0.2451  0.0305
  127OSM   H11A13532   1.658   5.840   6.497  1.5324  0.4279  0.5814
  127OSM   H11B13533   1.810   5.841   6.411  0.2239 -0.1614  0.6315
  127OSM      P13534   1.569   5.593   6.422  0.0076 -0.0015  0.2319
  127OSM    O1313535   1.435   5.615   6.365  0.1117  0.2873 -0.0767
  127OSM    O1413536   1.611   5.453   6.409 -0.7633  0.1503  0.2434
  127OSM    O1113537   1.563   5.629   6.575 -0.7280  0.0827  0.0284
  127OSM    O1213538   1.670   5.684   6.350 -0.2634  0.6270 -0.1055
  127OSM    C1S13539   1.470   5.573   6.664  0.3285  0.0120 -0.6589
  127OSM    H1S13540   1.450   5.465   6.645 -2.0681  0.6090 -1.9293
  127OSM    H1T13541   1.376   5.627   6.642  1.8286  3.1397  0.0683
  127OSM     NF13542   1.387   5.531   6.897 -0.5456  0.4055 -0.4384
  127OSM    HNF13543   1.324   5.596   6.938 -0.1279  0.8832 -0.5444
  127OSM    C2S13544   1.498   5.586   6.816 -0.5977 -0.3117 -0.3360
  127OSM    H2S13545   1.598   5.543   6.837  0.5596  1.9485 -0.9282
  127OSM    C3S13546   1.517   5.739   6.847 -0.8483 -0.4648  0.4205
  127OSM    H3S13547   1.415   5.778   6.865 -1.0677 -1.4904  1.5063
  127OSM     O313548   1.583   5.821   6.742 -0.0852 -0.2227  0.2310
  127OSM    HO313549   1.578   5.754   6.673 -0.7153  1.0419 -0.9924
  127OSM    C4S13550   1.585   5.757   6.981  0.1289  0.1288  0.3944
  127OSM    H4S13551   1.509   5.783   7.055  0.4224  0.3581  0.6190
  127OSM    C5S13552   1.720   5.744   6.998  0.2854  0.2253  0.1057
  127OSM    H5S13553   1.782   5.718   6.911 -1.6886  0.0120 -1.3065
  127OSM    C6S13554   1.786   5.743   7.134  0.0389 -0.5126 -0.5078
  127OSM    H6S13555   1.822   5.845   7.158 -0.1539  0.3139 -3.4186
  127OSM    H6T13556   1.867   5.667   7.140 -0.1192 -0.6616 -0.1740
  127OSM    C7S13557   1.705   5.689   7.260 -0.0165 -0.0647 -0.3138
  127OSM    H7S13558   1.685   5.580   7.245  2.1196 -0.3653 -1.2767
  127OSM    H7T13559   1.606   5.740   7.264  0.2147  0.3167  0.9294
  127OSM    C8S13560   1.782   5.713   7.382 -0.1297  0.1416 -0.8004
  127OSM    H8S13561   1.783   5.821   7.409  0.6395 -0.1082  0.2467
  127OSM    H8T13562   1.886   5.678   7.366  0.3182  0.2477  1.5671
  127OSM    C9S13563   1.708   5.647   7.501  0.0557 -0.0596 -0.5348
  127OSM    H9S13564   1.700   5.537   7.486  0.2360  0.1610 -2.5754
  127OSM    H9T13565   1.604   5.686   7.509  0.0042 -0.2361 -0.3292
  127OSM   C10S13566   1.779   5.681   7.637 -0.6543  0.4016  0.2510
  127OSM   H10S13567   1.746   5.781   7.671 -1.2726  0.2397  0.1513
  127OSM   H10T13568   1.890   5.676   7.636 -0.6835 -3.5476  0.3359
  127OSM   C11S13569   1.723   5.590   7.743  0.8600 -0.0806 -0.4118
  127OSM   H11S13570   1.751   5.484   7.723  1.2384  0.4204 -2.8201
  127OSM   H11T13571   1.613   5.591   7.752  1.0099  1.0856  3.0598
  127OSM   C12S13572   1.749   5.635   7.883 -0.0837  0.2823 -0.2800
  127OSM   H12S13573   1.686   5.723   7.908 -0.4141 -0.3467  1.2368
  127OSM   H12T13574   1.853   5.671   7.895 -0.1163  0.2184  0.1993
  127OSM   C13S13575   1.708   5.525   7.982 -0.3519 -0.3752 -0.6549
  127OSM   H13S13576   1.787   5.448   7.974 -0.1935 -0.0524 -2.8691
  127OSM   H13T13577   1.609   5.476   7.970 -0.7023  0.2959 -0.5787
  127OSM   C14S13578   1.711   5.586   8.122 -0.1319  0.0164  0.5319
  127OSM   H14S13579   1.649   5.678   8.119 -0.3032 -0.1215 -1.3483
  127OSM   H14T13580   1.815   5.610   8.153 -0.1502 -0.6284  1.1111
  127OSM   C15S13581   1.652   5.488   8.223 -0.3494 -0.0347 -0.0894
  127OSM   H15S13582   1.702   5.389   8.220 -1.4159 -0.5556 -2.1933
  127OSM   H15T13583   1.546   5.476   8.190 -0.6904  2.0716  0.0951
  127OSM   C16S13584   1.644   5.548   8.364  0.1165  0.2934 -0.2235
  127OSM   H16S13585   1.552   5.610   8.366 -1.8784 -2.4538 -0.8965
  127OSM   H16T13586   1.738   5.607   8.377 -0.9487  2.0390 -0.2192
  127OSM   C17S13587   1.634   5.438   8.481  0.3215 -0.0402 -0.2961
  127OSM   H17S13588   1.616   5.474   8.585  0.4936 -1.7065  0.3365
  127OSM   H17T13589   1.732   5.388   8.496  0.1162 -0.1619  0.6933
  127OSM   C18S13590   1.526   5.331   8.449 -0.0047  0.0151 -0.6310
  127OSM   H18S13591   1.520   5.263   8.536 -0.7386 -0.0592 -0.7265
  127OSM   H18T13592   1.567   5.271   8.365 -0.1240 -2.0208  0.7075
  127OSM   H18U13593   1.421   5.363   8.431 -0.0405 -0.4143 -1.2277
  127OSM    C1F13594   1.374   5.400   6.911 -0.3514  0.6910 -0.1273
  127OSM     OF13595   1.443   5.320   6.847  0.2803 -0.6020 -0.5400
  127OSM    C2F13596   1.269   5.361   7.015 -0.8277 -0.0925  1.2194
  127OSM    H2F13597   1.229   5.455   7.060 -0.6783 -1.4153  4.3953
  127OSM    H2G13598   1.307   5.298   7.098  1.3620 -0.7930 -0.2350
  127OSM    C3F13599   1.150   5.286   6.941  0.2102 -0.1602 -0.7588
  127OSM    H3F13600   1.186   5.188   6.905  0.0544 -0.1918 -0.8271
  127OSM    H3G13601   1.117   5.337   6.848 -1.2316 -1.6786 -1.1267
  127OSM    C4F13602   1.037   5.248   7.040  0.2775  0.8543  0.5578
  127OSM    H4F13603   0.955   5.197   6.986  2.7011 -1.4168 -1.1839
  127OSM    H4G13604   0.990   5.338   7.085 -0.1268  0.8474  0.1533
  127OSM    C5F13605   1.091   5.146   7.143 -0.2180  0.7577 -0.0326
  127OSM    H5F13606   1.180   5.186   7.196  0.8497  1.8287 -2.5162
  127OSM    H5G13607   1.141   5.061   7.093 -0.4753 -0.0276  1.0180
  127OSM    C6F13608   1.001   5.099   7.250  0.8101  0.2772 -0.7650
  127OSM    H6F13609   0.921   5.036   7.205  0.9638 -1.2992  1.0678
  127OSM    H6G13610   0.949   5.181   7.305 -0.6421 -0.6236 -0.7383
  127OSM    C7F13611   1.077   5.009   7.357 -0.2111 -0.1888  0.4169
  127OSM    H7F13612   1.163   5.071   7.390 -0.3174  0.1663  0.0255
  127OSM    H7G13613   1.121   4.922   7.304  0.9008  0.9485 -0.5863
  127OSM    C8F13614   1.006   4.962   7.483  0.3618 -0.5899 -0.1348
  127OSM    H8F13615   0.992   5.047   7.553 -2.4978 -1.5152  0.5888
  127OSM    H8G13616   1.071   4.891   7.539  0.0948  0.4147  1.5030
  127OSM    C9F13617   0.875   4.897   7.443  0.4674  0.2046  0.2976
  127OSM    H9F13618   0.822   4.952   7.364  1.0680  1.6840  0.8877
  127OSM   C10F13619   0.819   4.790   7.492  0.0998 -0.2140 -0.7309
  127OSM   H10F13620   0.718   4.769   7.454  0.0629 -0.4540 -0.5000
  127OSM   C11F13621   0.887   4.706   7.597  0.3298 -0.5963 -0.8892
  127OSM   H11F13622   0.997   4.707   7.588  0.2926  0.7365 -1.3211
  127OSM   H11G13623   0.849   4.604   7.574 -2.9864  0.2938  0.0344
  127OSM   C12F13624   0.849   4.746   7.736  0.2222 -0.6741  0.5008
  127OSM   H12F13625   0.740   4.745   7.757 -0.5925 -0.5289 -2.9905
  127OSM   H12G13626   0.883   4.851   7.744  0.2980 -0.4732 -1.7574
  127OSM   C13F13627   0.924   4.660   7.834 -0.1085  0.3541 -0.9057
  127OSM   H13F13628   1.030   4.660   7.802  0.0498  1.0511 -0.4058
  127OSM   H13G13629   0.901   4.551   7.830  0.7960  0.0595  0.8386
  127OSM   C14F13630   0.920   4.704   7.972  0.1050 -0.8242  0.0064
  127OSM   H14F13631   0.821   4.735   8.010  0.1530 -1.9039  1.0908
  127OSM   H14G13632   0.989   4.790   7.977  2.6151 -2.7588  0.9607
  127OSM   C15F13633   0.976   4.606   8.074  0.2354 -0.7817 -0.0225
  127OSM   H15F13634   1.069   4.556   8.040  0.2296  0.2902 -1.7362
  127OSM   H15G13635   0.892   4.535   8.095  0.4249 -0.4895  1.8721
  127OSM   C16F13636   1.000   4.668   8.209 -0.8991  0.1279 -0.4190
  127OSM   H16F13637   0.920   4.741   8.234 -3.1616 -2.0088 -1.0220
  127OSM   H16G13638   1.097   4.723   8.219 -1.5914  1.1380  1.1003
  127OSM   C17F13639   0.986   4.560   8.313 -0.1164 -0.3260  0.3492
  127OSM   H17F13640   1.068   4.488   8.294  1.6906  1.8766 -0.6860
  127OSM   H17G13641   0.881   4.524   8.304 -0.4764 -0.0625  2.6338
  127OSM   C18F13642   0.982   4.607   8.455 -0.1959  0.6651 -0.0716
  127OSM   H18F13643   0.947   4.524   8.521  1.9542  1.6578  2.5061
  127OSM   H18G13644   0.910   4.691   8.467 -1.9763 -0.8989  0.8595
  127OSM   H18H13645   1.085   4.636   8.483 -0.3318  1.9405 -0.8161
  128OSM      N13646   4.971   6.687   6.165  0.0530  0.0218 -0.0933
  128OSM    C1513647   4.861   6.787   6.181 -0.0787  0.1939  0.0044
  128OSM   H15A13648   4.874   6.840   6.274  1.2799 -0.9581  0.5182
  128OSM   H15B13649   4.762   6.743   6.184 -0.8238  1.8262  0.5623
  128OSM   H15C13650   4.851   6.846   6.092  0.2841 -0.9222 -0.8080
  128OSM    C1413651   4.957   6.584   6.271  0.5909  0.0530  0.7506
  128OSM   H14A13652   4.868   6.524   6.259  1.2539 -0.5980 -1.2970
  128OSM   H14B13653   4.948   6.637   6.365  2.3521 -0.0953  1.0390
  128OSM   H14C13654   5.042   6.519   6.282  0.2648  0.0276  3.9153
  128OSM    C1313655   4.950   6.623   6.040 -0.4623 -0.6385  0.4574
  128OSM   H13A13656   4.857   6.568   6.042 -1.1624  0.5206  0.7601
  128OSM   H13B13657   5.027   6.549   6.027  0.1310 -0.4559  2.5593
  128OSM   H13C13658   4.946   6.686   5.952 -1.0394 -1.1083  0.1430
  128OSM    C1213659   5.104   6.760   6.183  0.4335 -0.2896  1.0918
  128OSM   H12A13660   5.178   6.688   6.149  1.8649  1.8750 -0.6459
  128OSM   H12B13661   5.125   6.786   6.286 -0.8511  1.4514  0.9493
  128OSM    C1113662   5.138   6.888   6.106  1.0465 -0.9393  0.3044
  128OSM   H11A13663   5.076   6.973   6.143  1.5810 -0.8365  0.9771
  128OSM   H11B13664   5.114   6.889   5.997 -0.3254  3.6445  0.4394
  128OSM      P13665   5.344   7.019   6.209 -0.2552  0.2685  0.1221
  128OSM    O1313666   5.491   7.006   6.187 -0.1908  0.2204 -0.0582
  128OSM    O1413667   5.286   7.153   6.185  0.7058  0.0801 -0.1553
  128OSM    O1113668   5.305   6.961   6.348  0.3059  0.5752 -0.0512
  128OSM    O1213669   5.278   6.906   6.120 -0.2591 -0.2798  0.1802
  128OSM    C1S13670   5.381   6.861   6.418 -0.4695  0.2120 -0.3219
  128OSM    H1S13671   5.477   6.912   6.445  0.5575 -1.1559 -1.2505
  128OSM    H1T13672   5.406   6.778   6.350  0.1876  0.6904 -0.6812
  128OSM     NF13673   5.410   6.731   6.633 -0.2994 -0.2390 -0.2495
  128OSM    HNF13674   5.389   6.634   6.635 -0.7614 -0.1430 -0.2773
  128OSM    C2S13675   5.319   6.812   6.547  0.2214  0.0174 -0.1289
  128OSM    H2S13676   5.297   6.900   6.612  0.5739 -0.3340  0.4734
  128OSM    C3S13677   5.178   6.742   6.519  1.0868 -0.3632  0.0109
  128OSM    H3S13678   5.200   6.662   6.445 -1.4302 -2.4024  1.3149
  128OSM     O313679   5.079   6.832   6.478 -0.0508  0.1804  0.1644
  128OSM    HO313680   5.135   6.906   6.453  0.6485  0.3295  2.0455
  128OSM    C4S13681   5.136   6.659   6.632  0.6623 -0.1957 -0.0401
  128OSM    H4S13682   5.195   6.568   6.651  1.1727  0.6341  2.8779
  128OSM    C5S13683   5.028   6.679   6.717  0.1637  0.0033  0.1970
  128OSM    H5S13684   4.955   6.759   6.701 -1.3848 -1.6682 -1.4255
  128OSM    C6S13685   4.994   6.592   6.833 -0.0443 -0.6557 -0.2077
  128OSM    H6S13686   5.044   6.493   6.828  0.6617 -0.5711  3.2455
  128OSM    H6T13687   4.884   6.576   6.832 -0.1114 -0.2180 -0.7109
  128OSM    C7S13688   5.018   6.667   6.969 -0.7174  0.1790 -0.7048
  128OSM    H7S13689   4.959   6.761   6.977 -1.2282 -0.3010  2.3765
  128OSM    H7T13690   5.122   6.706   6.973 -0.6666  0.1879 -1.8037
  128OSM    C8S13691   4.994   6.590   7.105 -0.1491 -0.5333 -0.0929
  128OSM    H8S13692   5.059   6.500   7.110 -1.4483 -1.5118 -0.2074
  128OSM    H8T13693   4.889   6.552   7.102 -0.4914  0.2471  1.3982
  128OSM    C9S13694   4.996   6.671   7.227 -0.4194 -0.3862 -0.0509
  128OSM    H9S13695   4.926   6.758   7.223 -0.4355 -0.0900  3.4162
  128OSM    H9T13696   5.095   6.717   7.246 -1.2285  2.0500 -1.2538
  128OSM   C10S13697   4.968   6.584   7.344  0.5932  0.0113 -0.6748
  128OSM   H10S13698   5.057   6.521   7.365  0.5631  0.1354 -0.1744
  128OSM   H10T13699   4.891   6.510   7.311  1.1041 -0.0566 -1.7517
  128OSM   C11S13700   4.929   6.662   7.460  0.6912 -0.3350 -0.4619
  128OSM   H11S13701   4.852   6.730   7.418  1.3462  0.5546 -0.2404
  128OSM   H11T13702   5.015   6.715   7.505  0.9863  0.0182 -1.4143
  128OSM   C12S13703   4.854   6.576   7.573  0.2569 -0.7827 -0.4791
  128OSM   H12S13704   4.922   6.488   7.585 -0.7972 -1.6203 -0.5303
  128OSM   H12T13705   4.760   6.541   7.525  0.1630  0.9498 -1.6187
  128OSM   C13S13706   4.833   6.645   7.718  0.2172 -0.2808 -0.1079
  128OSM   H13S13707   4.734   6.695   7.724  1.1222  1.5687  0.1307
  128OSM   H13T13708   4.907   6.726   7.737 -0.4080 -0.2919  2.7727
  128OSM   C14S13709   4.860   6.544   7.833 -0.0873 -0.1845  0.1260
  128OSM   H14S13710   4.793   6.457   7.818 -1.6055  0.8531  0.6578
  128OSM   H14T13711   4.827   6.589   7.928  0.8290  2.2598 -0.6318
  128OSM   C15S13712   5.009   6.524   7.856  0.2383  0.1226 -0.3361
  128OSM   H15S13713   5.050   6.619   7.895 -1.6014  0.7059  0.2448
  128OSM   H15T13714   5.057   6.493   7.761 -0.1367 -1.9513  0.0959
  128OSM   C16S13715   5.040   6.420   7.964 -0.2438 -0.3204  0.4000
  128OSM   H16S13716   4.986   6.326   7.942 -0.7403 -0.4122  1.8828
  128OSM   H16T13717   4.995   6.459   8.058  3.4940  1.2930  1.7105
  128OSM   C17S13718   5.186   6.412   7.983 -0.3284  0.5079 -0.1650
  128OSM   H17S13719   5.246   6.454   7.899 -0.0104  2.0646  0.7891
  128OSM   H17T13720   5.229   6.310   7.990  0.7325  0.9126 -0.4989
  128OSM   C18S13721   5.238   6.478   8.110 -0.4168  0.1011  0.9326
  128OSM   H18S13722   5.190   6.422   8.193 -1.0653  1.1702  1.2906
  128OSM   H18T13723   5.209   6.584   8.123  0.3119  0.7689 -2.0245
  128OSM   H18U13724   5.349   6.476   8.118 -0.2560 -0.6773 -0.8830
  128OSM    C1F13725   5.524   6.777   6.679 -0.2146 -0.1871 -0.0262
  128OSM     OF13726   5.568   6.889   6.644  0.0930  0.9607 -0.0057
  128OSM    C2F13727   5.610   6.687   6.770  0.5310  0.0107  0.2566
  128OSM    H2F13728   5.712   6.731   6.769 -0.2977  2.1093  0.6615
  128OSM    H2G13729   5.613   6.585   6.727 -2.3812  0.0374 -0.2210
  128OSM    C3F13730   5.560   6.699   6.913 -0.2440 -0.4684  0.4047
  128OSM    H3F13731   5.549   6.800   6.958  2.0254 -0.7557  1.7899
  128OSM    H3G13732   5.627   6.642   6.981 -0.2032 -0.4278  0.3976
  128OSM    C4F13733   5.421   6.642   6.922  0.1216  0.1683  0.9337
  128OSM    H4F13734   5.398   6.572   6.839 -1.0441 -0.0395  1.4076
  128OSM    H4G13735   5.357   6.731   6.900 -1.0917 -1.0657 -0.8425
  128OSM    C5F13736   5.390   6.580   7.059 -0.2154  0.7559  1.1409
  128OSM    H5F13737   5.460   6.495   7.076  1.3317  1.4835 -1.1298
  128OSM    H5G13738   5.283   6.547   7.057  0.7126 -2.6546  0.4968
  128OSM    C6F13739   5.401   6.661   7.189  0.2143 -0.3753  0.1894
  128OSM    H6F13740   5.326   6.744   7.197  0.1792 -0.5620  2.2090
  128OSM    H6G13741   5.497   6.716   7.198  0.6973 -1.0065 -0.9001
  128OSM    C7F13742   5.396   6.565   7.315  0.7712  0.3853  0.1028
  128OSM    H7F13743   5.462   6.479   7.291 -4.7014 -4.0322 -1.3830
  128OSM    H7G13744   5.290   6.530   7.318 -0.1309  2.8831  1.9935
  128OSM    C8F13745   5.432   6.619   7.459  0.1306  0.3109  1.2695
  128OSM    H8F13746   5.368   6.709   7.468  0.4234  0.6582  0.0610
  128OSM    H8G13747   5.537   6.657   7.455  0.9168 -1.7158  1.1852
  128OSM    C9F13748   5.406   6.533   7.582  0.0437 -0.4881 -0.2692
  128OSM    H9F13749   5.300   6.506   7.593  0.2766 -1.0566  0.7105
  128OSM   C10F13750   5.497   6.500   7.674  0.2658  0.2823  1.0872
  128OSM   H10F13751   5.457   6.446   7.761  1.1571  0.2390  1.4827
  128OSM   C11F13752   5.645   6.537   7.694  0.5624  0.2879 -0.3125
  128OSM   H11F13753   5.696   6.576   7.603  1.5347  2.7519  1.1956
  128OSM   H11G13754   5.703   6.445   7.717  1.8725  1.3733  0.8992
  128OSM   C12F13755   5.676   6.641   7.804 -0.8992 -0.8461 -0.0394
  128OSM   H12F13756   5.648   6.746   7.783  1.5141 -0.5417 -2.0727
  128OSM   H12G13757   5.786   6.641   7.813 -1.0115 -0.4976  1.6677
  128OSM   C13F13758   5.631   6.606   7.945 -0.2425  0.2514 -0.2819
  128OSM   H13F13759   5.640   6.496   7.961  1.8635  0.4470  0.1722
  128OSM   H13G13760   5.524   6.636   7.953  0.1325  1.2938  1.1725
  128OSM   C14F13761   5.703   6.682   8.051  0.3557 -0.6495  0.5467
  128OSM   H14F13762   5.679   6.789   8.030  2.7478 -0.1495  0.1429
  128OSM   H14G13763   5.809   6.653   8.038 -0.6082 -3.9721 -0.9956
  128OSM   C15F13764   5.651   6.657   8.194 -0.2703  0.2927  0.2668
  128OSM   H15F13765   5.542   6.674   8.201 -0.4033 -0.6558  0.4973
  128OSM   H15G13766   5.696   6.735   8.260 -0.1364  1.6515 -1.3447
  128OSM   C16F13767   5.690   6.526   8.253 -0.9593 -0.1044  0.4617
  128OSM   H16F13768   5.791   6.545   8.294 -1.3521  0.8411  1.0235
  128OSM   H16G13769   5.701   6.455   8.168  1.0112  2.5372 -1.6756
  128OSM   C17F13770   5.594   6.477   8.361  0.2990  0.1377 -0.1625
  128OSM   H17F13771   5.643   6.379   8.382  2.7893  0.6140 -2.9929
  128OSM   H17G13772   5.495   6.471   8.311 -0.2186  0.5558  0.7927
  128OSM   C18F13773   5.603   6.570   8.480  0.8068 -0.6972 -0.1286
  128OSM   H18F13774   5.555   6.666   8.450 -1.0917 -1.0626  1.5450
  128OSM   H18G13775   5.711   6.577   8.502  1.1982 -1.9654 -1.4523
  128OSM   H18H13776   5.554   6.520   8.566 -2.2951 -0.9153 -1.8555
  129OSM      N13777   5.720   3.377   6.326 -0.3418  0.6974 -0.3824
  129OSM    C1513778   5.652   3.412   6.199  0.1338  0.3056  0.1952
  129OSM   H15A13779   5.675   3.341   6.121 -1.5115 -0.4798  0.3890
  129OSM   H15B13780   5.668   3.514   6.168  0.8900  0.4654  1.0702
  129OSM   H15C13781   5.546   3.404   6.219 -0.0445 -0.8532 -1.0595
  129OSM    C1413782   5.867   3.402   6.317  0.3077 -0.0046  0.1105
  129OSM   H14A13783   5.894   3.507   6.311  0.4888 -0.0752 -0.3634
  129OSM   H14B13784   5.910   3.353   6.231  1.0304 -1.8898  1.4803
  129OSM   H14C13785   5.922   3.371   6.404  1.3212 -1.6151 -1.0445
  129OSM    C1313786   5.669   3.479   6.427  1.4457 -0.1094 -0.4619
  129OSM   H13A13787   5.561   3.490   6.426  1.0872 -2.7478  0.2484
  129OSM   H13B13788   5.706   3.574   6.392  0.0558 -0.5707 -3.4228
  129OSM   H13C13789   5.698   3.451   6.527  0.1552 -0.9649 -0.2979
  129OSM    C1213790   5.687   3.236   6.374  0.2046 -0.2088 -0.0314
  129OSM   H12A13791   5.704   3.157   6.303 -1.1546 -1.0511  0.5475
  129OSM   H12B13792   5.580   3.235   6.384  0.0828 -1.4672 -1.2194
  129OSM    C1113793   5.745   3.203   6.513 -1.0448  0.0673 -0.2017
  129OSM   H11A13794   5.696   3.113   6.556  0.8174  0.6790  3.5639
  129OSM   H11B13795   5.731   3.283   6.588  1.4995  1.6540 -1.2963
  129OSM      P13796   5.939   3.040   6.430  0.2900 -0.1274 -0.4221
  129OSM    O1313797   5.876   3.005   6.304  0.2545  0.0138  0.5547
  129OSM    O1413798   6.082   3.041   6.437  0.4712 -0.4534  0.4342
  129OSM    O1113799   5.877   2.934   6.527  0.0492  0.6533 -0.1037
  129OSM    O1213800   5.886   3.175   6.495  0.0552  0.3107  0.7490
  129OSM    C1S13801   5.962   2.854   6.611 -0.3530 -0.9381  0.2232
  129OSM    H1S13802   6.059   2.903   6.634 -0.8819 -0.6613  1.9586
  129OSM    H1T13803   5.996   2.761   6.559  1.7553 -0.2911  0.3284
  129OSM     NF13804   5.997   2.732   6.820 -0.8429  0.0699 -0.0503
  129OSM    HNF13805   5.968   2.641   6.848 -1.2775  0.8983  2.4505
  129OSM    C2S13806   5.908   2.820   6.746 -0.8110 -0.0155  0.6413
  129OSM    H2S13807   5.905   2.916   6.801  1.9052  0.4051  0.2217
  129OSM    C3S13808   5.760   2.758   6.737  0.2204  0.7641 -0.4118
  129OSM    H3S13809   5.768   2.665   6.677  0.8550  2.0107 -2.3549
  129OSM     O313810   5.674   2.841   6.664 -0.5215  0.1933 -0.1040
  129OSM    HO313811   5.735   2.898   6.615 -1.9950  2.1364  0.1935
  129OSM    C4S13812   5.708   2.739   6.873  0.0925 -0.4444 -0.5282
  129OSM    H4S13813   5.703   2.834   6.929  2.5908  0.4346 -1.6340
  129OSM    C5S13814   5.666   2.623   6.925  0.3695 -0.3785  0.9935
  129OSM    H5S13815   5.688   2.533   6.866  1.4715  0.9369 -0.7188
  129OSM    C6S13816   5.609   2.617   7.066  0.1537 -0.4418  0.0553
  129OSM    H6S13817   5.588   2.717   7.110 -1.9979 -0.9391  0.2627
  129OSM    H6T13818   5.686   2.575   7.136  1.1183 -0.7161 -1.1329
  129OSM    C7S13819   5.477   2.539   7.077  0.7796  0.4048 -0.0837
  129OSM    H7S13820   5.505   2.432   7.075  1.9019  0.6925 -0.2764
  129OSM    H7T13821   5.413   2.567   6.991 -1.2362  0.1221  1.2579
  129OSM    C8S13822   5.403   2.549   7.209  0.5966 -0.2188 -0.3515
  129OSM    H8S13823   5.311   2.487   7.198 -0.8712  1.9364 -0.8762
  129OSM    H8T13824   5.366   2.653   7.219 -3.5967 -1.7265  2.9724
  129OSM    C9S13825   5.479   2.497   7.333 -0.0147 -1.3348  0.1007
  129OSM    H9S13826   5.565   2.565   7.352 -0.3404 -0.4354 -1.4900
  129OSM    H9T13827   5.515   2.395   7.308 -0.0901 -1.7741  1.6645
  129OSM   C10S13828   5.399   2.506   7.467  0.2008  0.5446  0.1637
  129OSM   H10S13829   5.319   2.434   7.441  0.2867  0.6670 -0.4561
  129OSM   H10T13830   5.355   2.607   7.478 -0.9322  0.7369 -4.3403
  129OSM   C11S13831   5.485   2.474   7.588 -0.5799 -0.0210 -0.4310
  129OSM   H11S13832   5.571   2.541   7.611  1.3588 -3.3415  3.0488
  129OSM   H11T13833   5.529   2.373   7.578  1.2816  0.5740  1.0330
  129OSM   C12S13834   5.401   2.474   7.717  0.2454 -0.0542 -0.3839
  129OSM   H12S13835   5.328   2.392   7.723  0.8787 -0.5790  0.2601
  129OSM   H12T13836   5.355   2.575   7.729  0.3029 -0.2793  2.2169
  129OSM   C13S13837   5.489   2.434   7.832 -0.4289  0.6169  0.0589
  129OSM   H13S13838   5.574   2.504   7.819 -1.5253  1.8676 -0.6992
  129OSM   H13T13839   5.544   2.340   7.812  1.6287  2.4515 -4.0822
  129OSM   C14S13840   5.419   2.438   7.966 -0.7492 -0.5743  0.1608
  129OSM   H14S13841   5.316   2.398   7.953 -0.5173 -0.9848 -0.4349
  129OSM   H14T13842   5.413   2.547   7.991 -2.7491 -0.6799  0.3529
  129OSM   C15S13843   5.509   2.370   8.071  0.4864 -0.0378 -0.4652
  129OSM   H15S13844   5.597   2.437   8.082 -0.2833  0.9139  0.0572
  129OSM   H15T13845   5.553   2.273   8.040 -1.4267 -1.9385  2.3055
  129OSM   C16S13846   5.440   2.356   8.215 -0.8344  0.5053  1.1224
  129OSM   H16S13847   5.355   2.286   8.203 -0.4741  0.2385  0.0533
  129OSM   H16T13848   5.395   2.457   8.228 -1.9647  0.3788 -1.1328
  129OSM   C17S13849   5.539   2.323   8.324  0.6844 -0.3779  0.4148
  129OSM   H17S13850   5.621   2.397   8.318 -0.1317  0.4993 -0.2685
  129OSM   H17T13851   5.581   2.221   8.311  3.0376  0.7815 -2.0558
  129OSM   C18S13852   5.473   2.337   8.465 -0.5897 -0.4189  0.0924
  129OSM   H18S13853   5.387   2.266   8.464  0.9421 -2.3451 -0.6752
  129OSM   H18T13854   5.433   2.440   8.471 -0.6379 -0.3367 -1.2423
  129OSM   H18U13855   5.546   2.314   8.545 -0.3373  0.8263  0.2468
  129OSM    C1F13856   6.121   2.779   6.853  0.3877 -0.9047 -0.2920
  129OSM     OF13857   6.144   2.896   6.848 -0.6797 -0.3541  0.0018
  129OSM    C2F13858   6.225   2.689   6.907 -0.5705  0.3204  0.1013
  129OSM    H2F13859   6.322   2.704   6.855 -0.1225  2.8019  1.5002
  129OSM    H2G13860   6.193   2.583   6.896 -2.6368  0.8017  1.0688
  129OSM    C3F13861   6.252   2.713   7.052 -0.6719  0.1775 -0.4474
  129OSM    H3F13862   6.157   2.691   7.105 -0.6800 -0.6604 -0.8070
  129OSM    H3G13863   6.285   2.817   7.073  0.8012 -0.4782  0.6460
  129OSM    C4F13864   6.364   2.623   7.113 -0.4139 -0.2455  0.4860
  129OSM    H4F13865   6.463   2.664   7.084 -1.2788  1.8794  0.3750
  129OSM    H4G13866   6.365   2.522   7.068 -0.7649  0.6551 -1.6385
  129OSM    C5F13867   6.354   2.600   7.263 -0.3738  0.0038 -0.4752
  129OSM    H5F13868   6.256   2.551   7.285  0.2597 -0.9335  0.3287
  129OSM    H5G13869   6.357   2.699   7.314 -2.1769 -0.5562  0.8497
  129OSM    C6F13870   6.476   2.529   7.328  0.7136 -0.7600 -0.1553
  129OSM    H6F13871   6.563   2.597   7.311 -0.1513  0.6615  0.8870
  129OSM    H6G13872   6.493   2.431   7.278  1.2847 -1.6895  1.7409
  129OSM    C7F13873   6.450   2.501   7.480 -0.0054 -0.5597 -0.0828
  129OSM    H7F13874   6.521   2.430   7.528 -2.6123 -2.6454  0.8984
  129OSM    H7G13875   6.356   2.443   7.481  0.8741 -2.0480  0.1088
  129OSM    C8F13876   6.447   2.637   7.554 -0.6395 -0.0670 -0.8640
  129OSM    H8F13877   6.350   2.687   7.534 -1.3343 -1.2233 -0.5389
  129OSM    H8G13878   6.533   2.697   7.519 -0.4392  1.7419  2.3536
  129OSM    C9F13879   6.457   2.619   7.705 -0.2784 -0.0139 -0.3887
  129OSM    H9F13880   6.375   2.563   7.752  1.0500 -0.3858  1.6004
  129OSM   C10F13881   6.555   2.658   7.790  0.7641  0.8516  0.4252
  129OSM   H10F13882   6.540   2.654   7.899 -1.8003  1.9036  0.1805
  129OSM   C11F13883   6.676   2.738   7.746  0.0548  0.0437 -0.4306
  129OSM   H11F13884   6.709   2.808   7.825 -0.6692  0.3123 -0.3582
  129OSM   H11G13885   6.646   2.807   7.665  0.2888 -0.4500 -0.9510
  129OSM   C12F13886   6.797   2.656   7.712 -0.4854  0.5263 -0.1561
  129OSM   H12F13887   6.767   2.562   7.661 -0.5732 -1.6308  3.5488
  129OSM   H12G13888   6.839   2.613   7.806 -0.5218 -0.8517 -0.7409
  129OSM   C13F13889   6.913   2.738   7.645 -0.1269 -0.6514  0.3771
  129OSM   H13F13890   7.015   2.699   7.665  0.7093  1.6508  0.8974
  129OSM   H13G13891   6.906   2.838   7.694 -1.2638 -0.4387 -0.1846
  129OSM   C14F13892   6.897   2.740   7.491 -0.1151 -0.1513  0.4193
  129OSM   H14F13893   6.980   2.801   7.451 -1.3230  0.6614 -0.9480
  129OSM   H14G13894   6.809   2.803   7.465  0.3424 -0.8909 -3.6991
  129OSM   C15F13895   6.899   2.605   7.418  0.2764  0.0777 -0.6493
  129OSM   H15F13896   6.794   2.570   7.407  0.4289 -0.5356 -0.1871
  129OSM   H15G13897   6.958   2.541   7.488 -0.4800 -1.0989 -1.0503
  129OSM   C16F13898   6.976   2.614   7.288  0.8746  0.4911  0.3911
  129OSM   H16F13899   6.980   2.518   7.232  0.6200  0.2457  0.7872
  129OSM   H16G13900   7.084   2.625   7.313  1.0281 -0.0310 -0.0189
  129OSM   C17F13901   6.929   2.716   7.174  0.1157 -0.2134 -0.0870
  129OSM   H17F13902   6.915   2.809   7.235 -1.1826  0.0116 -0.6939
  129OSM   H17G13903   6.828   2.685   7.141  0.4804 -2.5419  0.8349
  129OSM   C18F13904   7.015   2.736   7.045  0.3289  0.3637 -0.1141
  129OSM   H18F13905   6.994   2.651   6.977 -0.8907  0.5832 -0.0327
  129OSM   H18G13906   7.124   2.729   7.066  0.2769 -1.8671 -0.4035
  129OSM   H18H13907   7.003   2.831   6.988  1.7204 -0.5038 -1.9601
  130OSM      N13908   4.145   5.946   6.340 -0.4230 -0.1255 -0.1375
  130OSM    C1513909   4.284   5.971   6.296  0.2486 -0.2267 -0.0908
  130OSM   H15A13910   4.352   5.888   6.312 -0.0976 -0.6191 -0.6440
  130OSM   H15B13911   4.315   6.057   6.354 -2.9287  0.7047  0.4275
  130OSM   H15C13912   4.275   5.998   6.192 -4.6936 -0.3002  0.0894
  130OSM    C1413913   4.081   6.077   6.320  0.5778  0.5965  0.5426
  130OSM   H14A13914   3.974   6.069   6.327  0.5108 -2.4630 -1.7454
  130OSM   H14B13915   4.092   6.111   6.218 -0.7225 -2.1135 -0.6067
  130OSM   H14C13916   4.126   6.151   6.385  1.5720  0.4026  0.0949
  130OSM    C1313917   4.083   5.845   6.247 -0.4878  0.1415 -0.0310
  130OSM   H13A13918   3.978   5.841   6.271 -0.9905 -2.0928 -2.1857
  130OSM   H13B13919   4.127   5.748   6.264  0.6103 -0.2387 -4.1333
  130OSM   H13C13920   4.094   5.873   6.144  0.6756 -1.5184 -0.4118
  130OSM    C1213921   4.139   5.902   6.486  0.3759 -0.0676  0.2547
  130OSM   H12A13922   4.158   5.988   6.548  4.2018 -0.6077  0.1177
  130OSM   H12B13923   4.220   5.835   6.511  0.8451  0.7400  0.9320
  130OSM    C1113924   4.001   5.847   6.522 -0.1527 -0.3125 -0.2423
  130OSM   H11A13925   4.001   5.831   6.632 -0.5188  1.8702  0.1214
  130OSM   H11B13926   3.995   5.738   6.500  0.2471 -0.1512 -1.1856
  130OSM      P13927   3.743   5.850   6.465  0.1001 -0.3762 -0.7456
  130OSM    O1313928   3.639   5.954   6.476  0.0290 -0.3206 -0.4614
  130OSM    O1413929   3.743   5.769   6.340  0.4007 -0.1534  0.2925
  130OSM    O1113930   3.728   5.764   6.593 -0.9138  0.0338 -0.5250
  130OSM    O1213931   3.886   5.924   6.480  0.2649  0.2655  0.1931
  130OSM    C1S13932   3.750   5.824   6.721 -0.3302  0.2124 -0.2631
  130OSM    H1S13933   3.786   5.929   6.721 -0.1819  0.1703  0.3403
  130OSM    H1T13934   3.831   5.761   6.764 -1.5912 -0.4331  1.2692
  130OSM     NF13935   3.638   5.875   6.935 -0.1296 -0.5283  0.3012
  130OSM    HNF13936   3.668   5.811   7.005  2.0186 -0.9014 -0.8779
  130OSM    C2S13937   3.618   5.810   6.808 -0.8615  0.0487 -0.2288
  130OSM    H2S13938   3.529   5.852   6.757 -0.5759  1.4265  0.3716
  130OSM    C3S13939   3.577   5.661   6.822 -0.4018 -0.1063 -0.2111
  130OSM    H3S13940   3.667   5.617   6.868  0.1437  0.9859 -0.1982
  130OSM     O313941   3.561   5.593   6.697 -0.0072  0.1494 -0.2471
  130OSM    HO313942   3.611   5.646   6.634  1.1429 -1.9745 -1.2183
  130OSM    C4S13943   3.463   5.649   6.923  0.0400  0.6394 -0.2985
  130OSM    H4S13944   3.504   5.670   7.022 -1.3100  0.5713  0.2973
  130OSM    C5S13945   3.331   5.613   6.896 -0.0484  0.7513  0.0492
  130OSM    H5S13946   3.309   5.592   6.791 -2.6335  1.5763  0.3513
  130OSM    C6S13947   3.220   5.594   6.993 -0.1237 -0.0134  0.5419
  130OSM    H6S13948   3.187   5.489   7.010  0.6936 -0.1072  1.6923
  130OSM    H6T13949   3.129   5.633   6.943 -0.9114 -0.8414  1.2919
  130OSM    C7S13950   3.239   5.652   7.138 -0.5267  0.0589  0.0304
  130OSM    H7S13951   3.257   5.760   7.121 -0.0961 -0.2585 -1.7507
  130OSM    H7T13952   3.323   5.605   7.193 -0.3161 -2.1650 -1.9798
  130OSM    C8S13953   3.115   5.626   7.225  0.6138 -0.1393  0.0856
  130OSM    H8S13954   3.058   5.534   7.197 -0.6297  0.8390 -0.7149
  130OSM    H8T13955   3.051   5.714   7.205  0.7550 -0.1222 -0.2921
  130OSM    C9S13956   3.147   5.612   7.377 -0.2357 -0.1035 -0.2122
  130OSM    H9S13957   3.191   5.704   7.422  2.4126 -1.3416 -0.0516
  130OSM    H9T13958   3.225   5.536   7.398  0.3360  0.7591  0.9772
  130OSM   C10S13959   3.031   5.566   7.471 -0.0179  0.7841 -0.4942
  130OSM   H10S13960   2.999   5.463   7.446 -1.9903  1.3659 -0.5863
  130OSM   H10T13961   2.945   5.626   7.432  0.8772  0.9975 -2.2701
  130OSM   C11S13962   3.051   5.595   7.619  0.1080 -0.2594 -0.1702
  130OSM   H11S13963   3.117   5.685   7.626 -1.2612  0.9045 -1.4332
  130OSM   H11T13964   3.119   5.516   7.656  0.7331 -0.2607 -1.2728
  130OSM   C12S13965   2.921   5.612   7.703 -0.5795 -0.1903 -0.2244
  130OSM   H12S13966   2.854   5.524   7.688  0.6998 -1.4743  1.2051
  130OSM   H12T13967   2.860   5.701   7.674 -1.0893 -0.1376  0.9199
  130OSM   C13S13968   2.950   5.597   7.857 -0.5623  0.5086 -0.2486
  130OSM   H13S13969   3.025   5.665   7.902  0.4580 -0.6459 -0.1410
  130OSM   H13T13970   2.993   5.498   7.885 -0.7128  0.7221  0.7864
  130OSM   C14S13971   2.817   5.609   7.935 -0.6519 -0.3453 -0.5168
  130OSM   H14S13972   2.725   5.573   7.884 -0.8464  2.8838 -2.7441
  130OSM   H14T13973   2.784   5.714   7.951 -0.5611 -0.2890 -0.6937
  130OSM   C15S13974   2.837   5.559   8.076  0.2513 -0.1705 -0.0034
  130OSM   H15S13975   2.908   5.629   8.126  0.8567 -0.7817 -0.0017
  130OSM   H15T13976   2.882   5.458   8.081 -0.7136 -0.5947  0.4655
  130OSM   C16S13977   2.715   5.569   8.166  0.6377  0.3198  0.5468
  130OSM   H16S13978   2.635   5.502   8.127 -0.5073  2.3379 -0.7894
  130OSM   H16T13979   2.670   5.671   8.164  0.9584  0.4534 -0.6756
  130OSM   C17S13980   2.758   5.536   8.308  0.7168 -0.1416  0.5362
  130OSM   H17S13981   2.818   5.625   8.338  2.2689 -0.8521 -0.3631
  130OSM   H17T13982   2.823   5.446   8.302  1.8542  0.7343 -3.1098
  130OSM   C18S13983   2.643   5.544   8.415  0.0764 -0.3058 -0.1805
  130OSM   H18S13984   2.664   5.481   8.504  0.1195 -0.2588 -0.1581
  130OSM   H18T13985   2.541   5.515   8.380 -0.4394 -1.7011  2.2465
  130OSM   H18U13986   2.638   5.650   8.447  2.1219 -0.0705 -0.5046
  130OSM    C1F13987   3.655   6.007   6.941  0.6095 -0.5509  0.2974
  130OSM     OF13988   3.648   6.077   6.843 -0.4832 -1.1955  0.2979
  130OSM    C2F13989   3.703   6.063   7.071 -0.0394 -0.4753  0.2358
  130OSM    H2F13990   3.795   6.124   7.057 -1.0102  0.8686 -0.6135
  130OSM    H2G13991   3.719   5.976   7.138  0.7241 -0.6200 -0.1261
  130OSM    C3F13992   3.596   6.162   7.134 -0.7118 -0.7797  0.0864
  130OSM    H3F13993   3.506   6.103   7.161 -0.6311 -0.1127  1.9724
  130OSM    H3G13994   3.573   6.236   7.055  0.4766  1.5483  1.7825
  130OSM    C4F13995   3.653   6.243   7.247  0.0094  0.9073 -0.4515
  130OSM    H4F13996   3.713   6.322   7.198 -0.3577  0.6041 -1.4328
  130OSM    H4G13997   3.713   6.174   7.310 -1.1571 -1.9810 -2.3099
  130OSM    C5F13998   3.541   6.302   7.325 -0.5234 -0.1577  0.0436
  130OSM    H5F13999   3.452   6.242   7.354 -0.3416 -0.9095 -0.9142
  130OSM    H5G14000   3.501   6.380   7.256  0.2333 -0.2902 -0.5648
  130OSM    C6F14001   3.590   6.364   7.446  0.9044  0.4074 -0.6798
  130OSM    H6F14002   3.669   6.438   7.422  0.5299  1.1988  0.4105
  130OSM    H6G14003   3.629   6.286   7.515  0.8169  3.3233  2.9700
  130OSM    C7F14004   3.483   6.435   7.531  0.6629 -0.9217  0.2435
  130OSM    H7F14005   3.429   6.358   7.589 -0.6127  0.1314  0.5011
  130OSM    H7G14006   3.403   6.475   7.465  0.1874 -1.3891  0.5311
  130OSM    C8F14007   3.544   6.544   7.614 -0.0451  0.3751 -0.1835
  130OSM    H8F14008   3.593   6.616   7.545 -1.8309 -0.3737 -2.3284
  130OSM    H8G14009   3.629   6.505   7.674 -0.3485  0.7223  0.4858
  130OSM    C9F14010   3.462   6.620   7.718  0.0246  0.1652  0.3957
  130OSM    H9F14011   3.462   6.727   7.691  0.0954  0.5096  1.6889
  130OSM   C10F14012   3.409   6.571   7.829  0.1229  0.2199 -0.3470
  130OSM   H10F14013   3.340   6.631   7.890  0.5216  1.7249 -1.2930
  130OSM   C11F14014   3.412   6.421   7.861 -0.0212 -0.8927  0.0029
  130OSM   H11F14015   3.516   6.382   7.864  0.2353 -0.1993  0.2637
  130OSM   H11G14016   3.357   6.366   7.782 -0.8316 -0.7079  0.4274
  130OSM   C12F14017   3.350   6.394   8.002  0.0629  0.4341 -0.0919
  130OSM   H12F14018   3.241   6.414   7.998  0.0908  0.4914 -0.6462
  130OSM   H12G14019   3.388   6.472   8.071  1.3223  0.0976 -0.3716
  130OSM   C13F14020   3.380   6.254   8.064 -0.0929  0.2412  1.1576
  130OSM   H13F14021   3.489   6.233   8.063  0.3440  1.6898 -3.4034
  130OSM   H13G14022   3.331   6.182   7.996  2.4053 -1.5091  1.1033
  130OSM   C14F14023   3.317   6.230   8.202 -0.3521  0.0244 -0.2558
  130OSM   H14F14024   3.297   6.121   8.213  0.8636 -0.1162  0.8728
  130OSM   H14G14025   3.225   6.292   8.206 -0.1255  0.3478 -0.1010
  130OSM   C15F14026   3.417   6.274   8.309  0.1431 -0.3187 -0.1564
  130OSM   H15F14027   3.451   6.376   8.280  0.7679 -0.6381 -0.5697
  130OSM   H15G14028   3.506   6.209   8.322  1.1432  1.2500  1.3111
  130OSM   C16F14029   3.351   6.298   8.449 -0.2315 -0.0210  0.6613
  130OSM   H16F14030   3.263   6.366   8.445  0.8435  1.3805 -0.2786
  130OSM   H16G14031   3.428   6.345   8.514  1.1631 -2.7441  1.1000
  130OSM   C17F14032   3.302   6.166   8.521  0.0309  0.2018  0.2711
  130OSM   H17F14033   3.380   6.089   8.505  0.5897  0.6980  0.5853
  130OSM   H17G14034   3.211   6.137   8.465  0.0373 -2.5011  1.5202
  130OSM   C18F14035   3.268   6.172   8.665  0.0210  0.0267  0.4093
  130OSM   H18F14036   3.237   6.072   8.702  1.4025 -0.2484  0.8944
  130OSM   H18G14037   3.184   6.244   8.675  0.8009  0.8745  1.1040
  130OSM   H18H14038   3.356   6.202   8.726  1.6886 -0.7488 -1.4947
  131OSM      N14039   3.308   4.926   6.376  0.1518  0.1997  0.5431
  131OSM    C1514040   3.443   4.968   6.334 -0.9768  0.6063  0.0106
  131OSM   H15A14041   3.447   5.071   6.304 -0.5760  0.7948  0.6822
  131OSM   H15B14042   3.487   4.908   6.256  1.6446  2.6735 -0.2505
  131OSM   H15C14043   3.521   4.959   6.409 -1.6839 -0.8865  0.6075
  131OSM    C1414044   3.268   5.024   6.481  0.0177 -0.0007 -0.5224
  131OSM   H14A14045   3.283   5.124   6.443 -0.5530  0.8272  1.3350
  131OSM   H14B14046   3.332   4.996   6.564 -0.6157 -0.8752 -0.3217
  131OSM   H14C14047   3.161   5.025   6.494  0.0242 -2.8148  0.4111
  131OSM    C1314048   3.217   4.945   6.258  0.1332  0.4416  0.5311
  131OSM   H13A14049   3.207   5.047   6.226 -0.6034  0.7708  1.7523
  131OSM   H13B14050   3.117   4.912   6.280 -0.5787  2.7748  1.0289
  131OSM   H13C14051   3.250   4.888   6.172 -0.4930 -0.5422  0.9254
  131OSM    C1214052   3.303   4.781   6.431 -0.1004 -0.3704  0.1119
  131OSM   H12A14053   3.388   4.756   6.493  0.0004 -0.2464  0.0244
  131OSM   H12B14054   3.299   4.715   6.345 -0.5337  1.4897 -1.3613
  131OSM    C1114055   3.189   4.736   6.522  0.2322 -0.0391  0.0711
  131OSM   H11A14056   3.201   4.794   6.616 -0.1289  1.4782 -0.7937
  131OSM   H11B14057   3.197   4.631   6.556 -2.5212 -0.0689  0.8820
  131OSM      P14058   2.927   4.791   6.546  0.3310  0.2410 -0.3841
  131OSM    O1314059   2.943   4.912   6.625 -0.5533 -0.4671  0.1587
  131OSM    O1414060   2.811   4.787   6.455 -0.5869  0.0369  0.5500
  131OSM    O1114061   2.925   4.659   6.630  0.2628  0.1135 -0.0323
  131OSM    O1214062   3.061   4.773   6.469  0.3167  0.4731  0.1983
  131OSM    C1S14063   2.991   4.665   6.762 -0.2584  0.2361  0.7354
  131OSM    H1S14064   3.070   4.744   6.769  0.4266 -0.1251 -1.8961
  131OSM    H1T14065   3.054   4.574   6.765  0.1449  0.4376 -0.7434
  131OSM     NF14066   2.976   4.618   7.002  0.2686 -0.1841 -0.4558
  131OSM    HNF14067   2.995   4.525   7.034  2.5159  0.2088 -0.5200
  131OSM    C2S14068   2.903   4.648   6.887  0.5362  0.3287  0.5286
  131OSM    H2S14069   2.859   4.750   6.893 -0.2582 -0.0401  1.1440
  131OSM    C3S14070   2.792   4.545   6.867  0.4683  0.1411 -0.1439
  131OSM    H3S14071   2.842   4.446   6.860 -0.8384 -0.7086  1.8253
  131OSM     O314072   2.713   4.562   6.754 -0.1179  0.5679  0.2309
  131OSM    HO314073   2.767   4.612   6.693 -0.6294  0.4996 -0.2900
  131OSM    C4S14074   2.705   4.537   6.991  0.0192 -0.2582 -0.0005
  131OSM    H4S14075   2.739   4.473   7.073 -1.2803 -2.2583 -0.9380
  131OSM    C5S14076   2.590   4.602   7.014 -0.7130 -1.1730  0.1553
  131OSM    H5S14077   2.548   4.669   6.938 -1.1156  0.3200  1.6331
  131OSM    C6S14078   2.513   4.607   7.139  0.6921  0.1041  0.4643
  131OSM    H6S14079   2.425   4.540   7.127  0.4952  0.2924  0.8642
  131OSM    H6T14080   2.467   4.705   7.162 -1.3996 -0.1401 -2.2210
  131OSM    C7S14081   2.589   4.564   7.269 -0.2746 -0.3812 -0.5030
  131OSM    H7S14082   2.688   4.615   7.271  0.4506 -1.7532  0.7419
  131OSM    H7T14083   2.616   4.457   7.259  1.5245  0.0768 -0.9641
  131OSM    C8S14084   2.519   4.604   7.399 -0.6675  0.0047 -0.5060
  131OSM    H8S14085   2.433   4.538   7.425  0.6723 -1.7828 -0.4374
  131OSM    H8T14086   2.500   4.713   7.410 -0.9606 -0.0610 -0.3587
  131OSM    C9S14087   2.622   4.588   7.519 -0.5471  0.6994  1.2524
  131OSM    H9S14088   2.715   4.644   7.498  0.7331 -0.2533  3.9412
  131OSM    H9T14089   2.657   4.482   7.517 -0.5275  0.6919 -1.4011
  131OSM   C10S14090   2.570   4.627   7.654  0.1295 -0.5981  0.3575
  131OSM   H10S14091   2.460   4.610   7.651  0.0723 -0.1841 -1.3140
  131OSM   H10T14092   2.584   4.734   7.678 -0.0476 -0.2133 -1.1243
  131OSM   C11S14093   2.644   4.556   7.759  0.7432  0.5790  0.9948
  131OSM   H11S14094   2.754   4.557   7.743  0.4653  0.9094 -1.1773
  131OSM   H11T14095   2.607   4.453   7.776 -0.2333  1.1213  2.3443
  131OSM   C12S14096   2.640   4.636   7.895  0.2853 -0.0597 -0.6820
  131OSM   H12S14097   2.534   4.637   7.928  0.2435 -1.6827 -0.6679
  131OSM   H12T14098   2.675   4.740   7.883 -0.7005  0.4082  0.3751
  131OSM   C13S14099   2.719   4.554   8.001  0.0199  0.2586  0.0595
  131OSM   H13S14100   2.809   4.515   7.948 -1.1703  0.5790 -2.3414
  131OSM   H13T14101   2.664   4.461   8.026  3.1529 -1.3004  1.7452
  131OSM   C14S14102   2.748   4.621   8.134  0.4879  0.0892 -0.3459
  131OSM   H14S14103   2.648   4.633   8.181 -0.0544 -3.0851 -0.4425
  131OSM   H14T14104   2.808   4.713   8.122 -1.1008  0.8522 -3.4679
  131OSM   C15S14105   2.818   4.539   8.240 -0.5157  0.8617 -0.0482
  131OSM   H15S14106   2.925   4.528   8.215  0.8051  2.6658  3.9576
  131OSM   H15T14107   2.764   4.443   8.256 -0.7599  1.1087  0.6884
  131OSM   C16S14108   2.829   4.622   8.364 -0.3571  0.1981 -0.2468
  131OSM   H16S14109   2.723   4.646   8.387 -1.1065 -1.9247 -1.1963
  131OSM   H16T14110   2.882   4.717   8.345  1.1650  0.1509  3.0720
  131OSM   C17S14111   2.906   4.540   8.480 -0.5363 -0.3030 -0.5053
  131OSM   H17S14112   2.910   4.603   8.572 -1.0174  1.0535 -1.3911
  131OSM   H17T14113   3.005   4.514   8.438 -0.0481  1.0377 -0.2023
  131OSM   C18S14114   2.840   4.411   8.528  0.1206  0.6463  0.3071
  131OSM   H18S14115   2.846   4.333   8.449  0.9231 -0.5130  1.4511
  131OSM   H18T14116   2.734   4.433   8.554  0.5590  1.1747  1.7717
  131OSM   H18U14117   2.904   4.374   8.611  0.7483 -1.6263 -1.0818
  131OSM    C1F14118   3.056   4.703   7.062  0.0536  0.1001 -0.2861
  131OSM     OF14119   3.062   4.818   7.019  0.0155 -0.1668  0.2575
  131OSM    C2F14120   3.150   4.639   7.165 -0.6646 -0.1728 -0.6079
  131OSM    H2F14121   3.241   4.602   7.114  0.3110  2.7776 -1.2079
  131OSM    H2G14122   3.101   4.551   7.211  0.5040  0.0792  1.2365
  131OSM    C3F14123   3.196   4.746   7.265  0.1513 -0.2423 -0.3568
  131OSM    H3F14124   3.229   4.836   7.210 -0.4758  1.8196  2.4176
  131OSM    H3G14125   3.287   4.709   7.317  1.4796  2.0513 -0.9547
  131OSM    C4F14126   3.094   4.799   7.362  0.8455  0.2561  0.3520
  131OSM    H4F14127   3.038   4.717   7.412 -1.7477  0.6594 -1.6902
  131OSM    H4G14128   3.011   4.858   7.318  0.8246 -0.1003 -0.0989
  131OSM    C5F14129   3.158   4.878   7.478 -0.2670  0.0020 -0.1661
  131OSM    H5F14130   3.086   4.940   7.535  0.8051  0.1931  1.0340
  131OSM    H5G14131   3.242   4.940   7.439 -0.1434  0.4949  0.8592
  131OSM    C6F14132   3.226   4.776   7.576  0.5409 -0.0116 -0.2911
  131OSM    H6F14133   3.330   4.809   7.598  0.0993  0.3363  1.3299
  131OSM    H6G14134   3.231   4.676   7.527  1.3081 -0.1442  0.0406
  131OSM    C7F14135   3.140   4.757   7.698  0.2522 -0.0776  0.4713
  131OSM    H7F14136   3.042   4.716   7.664  1.5358 -0.3691 -3.2969
  131OSM    H7G14137   3.113   4.858   7.736  3.2257  1.2633 -0.6831
  131OSM    C8F14138   3.203   4.682   7.814  0.9904  0.1486 -0.4232
  131OSM    H8F14139   3.297   4.732   7.844  2.1819 -0.3931 -3.0107
  131OSM    H8G14140   3.230   4.581   7.779  0.0033 -0.9798  1.8539
  131OSM    C9F14141   3.108   4.667   7.931 -0.4434 -0.6014  0.2214
  131OSM    H9F14142   3.011   4.620   7.913  0.4449 -2.1571 -0.7207
  131OSM   C10F14143   3.123   4.724   8.058  0.7911  0.2876  0.9708
  131OSM   H10F14144   3.046   4.700   8.132  0.7184 -1.8144  0.2835
  131OSM   C11F14145   3.232   4.806   8.114  0.3118  0.6931  0.4416
  131OSM   H11F14146   3.198   4.864   8.202  0.1481 -0.0349  0.8715
  131OSM   H11G14147   3.270   4.874   8.035  1.4764  1.0649  1.2875
  131OSM   C12F14148   3.354   4.720   8.163 -0.6515 -0.0778  0.5803
  131OSM   H12F14149   3.438   4.783   8.201  0.4504 -0.7411 -0.6296
  131OSM   H12G14150   3.404   4.672   8.076 -0.2778  1.0496  0.1503
  131OSM   C13F14151   3.326   4.613   8.267 -0.2329 -0.4950  0.2034
  131OSM   H13F14152   3.418   4.563   8.305  0.6172  0.1402 -0.9613
  131OSM   H13G14153   3.254   4.543   8.220 -4.4454  2.5355  1.5015
  131OSM   C14F14154   3.259   4.676   8.391  0.4429  0.0615  0.4902
  131OSM   H14F14155   3.245   4.612   8.480 -2.2657  0.8654  0.7543
  131OSM   H14G14156   3.154   4.711   8.379 -0.6513 -3.2891 -0.8754
  131OSM   C15F14157   3.337   4.797   8.445 -0.7619 -0.1645 -0.1043
  131OSM   H15F14158   3.341   4.881   8.373  3.6749 -0.7393 -0.8127
  131OSM   H15G14159   3.439   4.762   8.470  0.1708 -1.8041 -5.0502
  131OSM   C16F14160   3.251   4.853   8.570 -0.2389  0.5053  0.4551
  131OSM   H16F14161   3.142   4.856   8.546 -0.3033 -2.1562  0.0610
  131OSM   H16G14162   3.293   4.953   8.592  3.6241 -0.7390 -0.4363
  131OSM   C17F14163   3.264   4.770   8.696  0.3625 -0.1210 -0.9537
  131OSM   H17F14164   3.214   4.671   8.681 -1.6026  0.1204  2.6731
  131OSM   H17G14165   3.191   4.816   8.766 -0.2988  0.3562 -1.9440
  131OSM   C18F14166   3.402   4.782   8.767  0.1985 -0.4630  0.6619
  131OSM   H18F14167   3.387   4.732   8.865 -2.8550 -1.4293 -0.1818
  131OSM   H18G14168   3.414   4.890   8.790  3.4688 -0.8425  1.2493
  131OSM   H18H14169   3.488   4.744   8.707  0.0263  0.0464  0.0794
  132OSM      N14170   2.626   2.696   6.309  0.0956  0.3906 -0.1670
  132OSM    C1514171   2.514   2.773   6.240 -0.2622  0.2155  0.3314
  132OSM   H15A14172   2.418   2.740   6.278  1.0967 -1.6552  2.3727
  132OSM   H15B14173   2.509   2.760   6.133 -0.6645 -1.6902  0.5411
  132OSM   H15C14174   2.524   2.877   6.268 -2.4575  0.7657 -0.6872
  132OSM    C1414175   2.754   2.758   6.263  0.2699  0.3378  0.5174
  132OSM   H14A14176   2.753   2.767   6.155  1.2254  1.1644  0.5580
  132OSM   H14B14177   2.837   2.703   6.304 -0.2318 -0.4246  0.5379
  132OSM   H14C14178   2.759   2.861   6.296 -1.5385  0.3083  1.0007
  132OSM    C1314179   2.612   2.715   6.453 -0.1388  0.4319 -0.2453
  132OSM   H13A14180   2.519   2.684   6.497 -1.2214  0.2552 -2.5203
  132OSM   H13B14181   2.637   2.819   6.467 -0.2266 -0.0332  5.3308
  132OSM   H13C14182   2.688   2.653   6.499 -0.3386  1.5096  1.6419
  132OSM    C1214183   2.625   2.552   6.266 -0.9369  0.2802  0.2923
  132OSM   H12A14184   2.631   2.545   6.159 -1.2956 -3.8319  0.3743
  132OSM   H12B14185   2.526   2.512   6.279 -1.4457  0.3842 -2.6312
  132OSM    C1114186   2.731   2.454   6.314 -0.1605  0.3998  0.6602
  132OSM   H11A14187   2.824   2.472   6.255 -1.0275  5.4051  0.4365
  132OSM   H11B14188   2.693   2.355   6.278 -0.4407  1.1598 -1.2591
  132OSM      P14189   2.807   2.328   6.529 -0.5905  0.1478  0.1129
  132OSM    O1314190   2.697   2.279   6.616  0.4714 -0.2891 -0.0707
  132OSM    O1414191   2.877   2.242   6.432  0.2701  0.1476  0.4156
  132OSM    O1114192   2.917   2.396   6.624 -0.1509  0.1954 -0.4286
  132OSM    O1214193   2.750   2.453   6.451  0.0026  0.3435 -0.7588
  132OSM    C1S14194   2.877   2.444   6.757 -0.5371  0.1904 -0.3007
  132OSM    H1S14195   2.770   2.475   6.764 -0.7009 -0.1264 -1.1529
  132OSM    H1T14196   2.944   2.529   6.783  0.1868 -1.0453  2.0817
  132OSM     NF14197   2.892   2.382   6.993  0.1372  0.0585  0.9483
  132OSM    HNF14198   2.953   2.449   7.034  0.0832  0.3711  0.5227
  132OSM    C2S14199   2.923   2.336   6.861  0.0642  1.0646 -0.0628
  132OSM    H2S14200   2.867   2.242   6.841  1.5312  0.6326 -2.5071
  132OSM    C3S14201   3.073   2.315   6.845 -0.0787  0.9532  0.1781
  132OSM    H3S14202   3.109   2.420   6.851 -2.6366  1.9276 -0.1784
  132OSM     O314203   3.120   2.259   6.722  0.1618 -0.4320  0.5275
  132OSM    HO314204   3.042   2.264   6.667 -0.1915 -0.6269  1.0070
  132OSM    C4S14205   3.122   2.228   6.953 -0.5862 -0.0427 -0.4505
  132OSM    H4S14206   3.063   2.135   6.954 -2.3218  0.9142  2.8129
  132OSM    C5S14207   3.223   2.257   7.043 -0.1171  0.0553 -0.0264
  132OSM    H5S14208   3.279   2.351   7.043  2.2730 -1.2963  1.0798
  132OSM    C6S14209   3.250   2.150   7.154 -0.5691  0.2208  0.1829
  132OSM    H6S14210   3.262   2.198   7.254 -0.2888 -1.3795  0.9412
  132OSM    H6T14211   3.353   2.111   7.140 -1.1240 -1.4492  0.5566
  132OSM    C7S14212   3.159   2.034   7.172 -0.1310 -0.5679 -0.6909
  132OSM    H7S14213   3.140   1.977   7.079 -0.3173 -1.2021 -0.2764
  132OSM    H7T14214   3.062   2.074   7.208  0.5907  0.8707 -0.2711
  132OSM    C8S14215   3.205   1.938   7.278 -0.4302 -0.0982 -0.1295
  132OSM    H8S14216   3.293   1.876   7.247 -1.5452 -0.8299 -2.0304
  132OSM    H8T14217   3.132   1.854   7.277  0.8737 -1.2967 -1.5751
  132OSM    C9S14218   3.210   1.980   7.426 -0.3520  0.4602  0.3136
  132OSM    H9S14219   3.126   2.050   7.442 -0.0129  1.3531 -1.4925
  132OSM    H9T14220   3.297   2.049   7.435 -0.3669  0.9619 -2.4848
  132OSM   C10S14221   3.205   1.868   7.526 -0.1094  0.9180  0.0942
  132OSM   H10S14222   3.278   1.794   7.486 -1.7177 -0.2555 -0.7863
  132OSM   H10T14223   3.112   1.808   7.520  0.5029 -0.1792  1.1714
  132OSM   C11S14224   3.246   1.914   7.667 -1.2979  0.2673 -1.1998
  132OSM   H11S14225   3.167   1.985   7.699 -1.6674  0.2125 -1.9503
  132OSM   H11T14226   3.339   1.973   7.674 -2.1330  1.4787  0.1018
  132OSM   C12S14227   3.255   1.793   7.763 -0.0747 -0.1196  0.3385
  132OSM   H12S14228   3.354   1.753   7.732 -0.6451 -0.8834 -0.5558
  132OSM   H12T14229   3.180   1.712   7.750 -1.9028  1.3643  1.1380
  132OSM   C13S14230   3.270   1.827   7.915  0.2047  1.1269 -0.6676
  132OSM   H13S14231   3.179   1.887   7.941 -0.1907  0.1017  0.4226
  132OSM   H13T14232   3.349   1.903   7.936 -1.7054  2.6966  1.4448
  132OSM   C14S14233   3.285   1.698   8.004 -0.0906  0.0015 -0.0575
  132OSM   H14S14234   3.350   1.626   7.950  0.1413  0.0767  0.1157
  132OSM   H14T14235   3.187   1.650   8.026 -0.3702  0.9632  0.8607
  132OSM   C15S14236   3.339   1.718   8.142 -0.8907 -0.5849 -0.3594
  132OSM   H15S14237   3.297   1.814   8.178  1.1202  0.4195 -0.5275
  132OSM   H15T14238   3.448   1.737   8.128 -0.8639 -0.2699  0.2215
  132OSM   C16S14239   3.302   1.610   8.240  0.4359 -0.8596  0.2274
  132OSM   H16S14240   3.350   1.514   8.212 -0.2813 -1.5768  1.3771
  132OSM   H16T14241   3.191   1.605   8.246  0.3493  1.0981  0.9869
  132OSM   C17S14242   3.357   1.656   8.375  0.0995  0.0578 -0.1150
  132OSM   H17S14243   3.309   1.748   8.414  0.2456  0.5062 -0.9763
  132OSM   H17T14244   3.462   1.687   8.356  0.3381 -1.8421 -2.4536
  132OSM   C18S14245   3.348   1.551   8.490 -1.0293  0.1471  0.1648
  132OSM   H18S14246   3.404   1.583   8.580  1.2334 -3.0646  0.1129
  132OSM   H18T14247   3.381   1.457   8.441 -1.8230  0.7129 -1.5225
  132OSM   H18U14248   3.239   1.542   8.512 -0.3406 -1.1454  3.7843
  132OSM    C1F14249   2.763   2.385   7.032  0.3517 -0.4717  0.5420
  132OSM     OF14250   2.680   2.315   6.969  0.0142  0.0045 -0.4282
  132OSM    C2F14251   2.734   2.474   7.151 -0.6084  0.1345 -0.0849
  132OSM    H2F14252   2.639   2.530   7.139 -0.4107  1.0796  2.3370
  132OSM    H2G14253   2.817   2.547   7.146  0.6303 -1.2773 -1.0186
  132OSM    C3F14254   2.746   2.382   7.270  0.4663 -0.0308  0.7035
  132OSM    H3F14255   2.668   2.303   7.268  1.3202 -0.8911  0.5832
  132OSM    H3G14256   2.722   2.442   7.361 -5.2083 -0.3590 -0.2191
  132OSM    C4F14257   2.882   2.317   7.305 -1.1266 -0.3599  0.7474
  132OSM    H4F14258   2.958   2.388   7.267  0.0871 -2.1721 -0.3718
  132OSM    H4G14259   2.895   2.225   7.245  0.0808 -0.4131  1.0729
  132OSM    C5F14260   2.903   2.279   7.446 -0.5195 -0.5210 -0.5706
  132OSM    H5F14261   2.906   2.370   7.509 -1.6989  0.6511 -2.1012
  132OSM    H5G14262   2.997   2.223   7.460  0.9773  1.8154 -0.7896
  132OSM    C6F14263   2.785   2.183   7.494  0.2617  0.5856 -0.1878
  132OSM    H6F14264   2.735   2.144   7.403  0.8778  1.3285 -0.8647
  132OSM    H6G14265   2.719   2.260   7.541  0.8033  2.4627 -2.3049
  132OSM    C7F14266   2.831   2.076   7.605  0.0839 -0.7771  0.0559
  132OSM    H7F14267   2.893   2.001   7.552  0.7732 -0.8283  0.9140
  132OSM    H7G14268   2.738   2.027   7.640  0.4568 -0.1149  2.1111
  132OSM    C8F14269   2.898   2.146   7.726 -0.5009  0.9100 -0.4560
  132OSM    H8F14270   2.834   2.236   7.743 -4.3345 -1.4834 -0.9458
  132OSM    H8G14271   2.996   2.188   7.697  0.9244 -1.6004  0.4127
  132OSM    C9F14272   2.926   2.056   7.847  0.7903 -0.4144 -0.1267
  132OSM    H9F14273   2.992   1.972   7.825 -0.6957 -1.7656  0.4025
  132OSM   C10F14274   2.875   2.078   7.972  0.3367 -0.6731  0.5564
  132OSM   H10F14275   2.895   2.005   8.052  1.4145  0.3557  1.2600
  132OSM   C11F14276   2.775   2.182   8.011  0.3170 -0.6527  0.8556
  132OSM   H11F14277   2.676   2.140   8.041 -2.1624  4.4201  0.6874
  132OSM   H11G14278   2.743   2.246   7.927  1.7214  1.8467  2.1105
  132OSM   C12F14279   2.809   2.265   8.137 -1.0211 -0.1417 -0.4237
  132OSM   H12F14280   2.749   2.358   8.146  1.2869  1.4872 -0.9878
  132OSM   H12G14281   2.903   2.323   8.127 -0.7859 -0.5743 -0.7725
  132OSM   C13F14282   2.802   2.192   8.270 -0.0323 -0.4994 -0.5897
  132OSM   H13F14283   2.876   2.110   8.268 -1.1691 -1.6837  1.6717
  132OSM   H13G14284   2.699   2.159   8.298 -0.5106 -0.0933 -1.7947
  132OSM   C14F14285   2.845   2.286   8.384  0.4755 -0.2969  0.1666
  132OSM   H14F14286   2.779   2.375   8.383  3.2951  1.9353 -0.4213
  132OSM   H14G14287   2.948   2.317   8.355 -0.8251  2.9402 -1.5169
  132OSM   C15F14288   2.841   2.218   8.516  0.6424  0.4058  0.0404
  132OSM   H15F14289   2.770   2.134   8.504 -0.4096  1.0055  1.7143
  132OSM   H15G14290   2.787   2.289   8.582 -1.7811  0.5232 -1.9305
  132OSM   C16F14291   2.979   2.171   8.573 -0.3622 -0.7910  0.0400
  132OSM   H16F14292   3.027   2.262   8.615  1.8953  0.5553 -4.7680
  132OSM   H16G14293   3.038   2.130   8.489 -0.6171  0.8690 -0.9870
  132OSM   C17F14294   2.971   2.061   8.683  0.2100  0.1209  0.5251
  132OSM   H17F14295   2.910   1.977   8.643  0.5244  0.0356  0.2150
  132OSM   H17G14296   2.918   2.090   8.776  1.1581 -1.3777  1.5713
  132OSM   C18F14297   3.101   1.995   8.722  0.0728  0.0573  0.2534
  132OSM   H18F14298   3.174   2.056   8.780 -0.8235  1.2843  0.1373
  132OSM   H18G14299   3.151   1.958   8.631 -1.1715  2.4975 -1.5426
  132OSM   H18H14300   3.082   1.907   8.787  0.1112  1.0385  1.6469
  133SAPE     N14301   4.535   6.320  11.310 -0.2341 -0.6692 -0.7116
  133SAPE   HN114302   4.559   6.221  11.331 -0.9127 -0.3178  2.0447
  133SAPE   HN214303   4.534   6.371  11.400  0.2069 -3.3576  0.9378
  133SAPE   HN314304   4.440   6.312  11.267  0.7379 -2.4441 -2.7211
  133SAPE   C1214305   4.617   6.366  11.203 -0.5012 -0.3172  0.5139
  133SAPE  H12A14306   4.722   6.331  11.213  0.4677  1.9913 -0.6699
  133SAPE  H12B14307   4.630   6.476  11.214  0.0479 -0.4636  1.5356
  133SAPE   C1114308   4.554   6.312  11.074 -0.2745  0.0374 -0.1147
  133SAPE  H11A14309   4.553   6.201  11.084 -2.7768 -0.2052 -1.9925
  133SAPE  H11B14310   4.615   6.346  10.987  1.4651  2.9540  2.0641
  133SAPE     P14311   4.372   6.443  10.935  0.0792  0.2582 -0.1525
  133SAPE   O1314312   4.225   6.461  10.948  0.0793  0.2153  0.4270
  133SAPE   O1414313   4.460   6.563  10.932  0.6416 -0.1321  0.3676
  133SAPE   O1214314   4.416   6.347  11.056  0.0312 -0.5083  0.4097
  133SAPE   O1114315   4.396   6.362  10.806  0.0868  0.1657  0.5262
  133SAPE    C114316   4.372   6.222  10.786 -0.1767  0.0040  0.5433
  133SAPE    HA14317   4.467   6.164  10.785 -0.8128 -1.2219 -3.5098
  133SAPE    HB14318   4.304   6.187  10.867 -0.1299  0.2342  0.6846
  133SAPE    C214319   4.301   6.197  10.640  0.1109 -0.4180  0.2890
  133SAPE    HS14320   4.287   6.089  10.618 -1.2428 -0.2801  0.3717
  133SAPE   O2114321   4.380   6.255  10.536  0.5158 -0.0698  0.1126
  133SAPE   C2114322   4.505   6.205  10.525 -0.3237 -0.3593 -0.6667
  133SAPE   O2214323   4.546   6.104  10.575  0.8272  0.3078  0.2237
  133SAPE   C2214324   4.598   6.313  10.471  0.1293 -0.2149 -0.5438
  133SAPE   H2R14325   4.549   6.383  10.401 -0.7336 -0.9016 -0.6435
  133SAPE   H2S14326   4.628   6.374  10.559  3.0285 -0.3910 -1.2965
  133SAPE    C314327   4.160   6.268  10.633  0.1591 -0.6517  0.2042
  133SAPE    HX14328   4.173   6.378  10.622  1.1254 -0.7977 -0.2338
  133SAPE    HY14329   4.107   6.232  10.724 -1.4956  0.9966 -0.0415
  133SAPE   O3114330   4.089   6.205  10.523 -0.1775  0.3567 -0.1221
  133SAPE   C3114331   3.975   6.264  10.496  0.4112 -0.8145  0.4902
  133SAPE   O3214332   3.909   6.332  10.574  0.0078  0.1456  0.1483
  133SAPE   C3214333   3.933   6.239  10.348 -0.7595  0.0704  0.0032
  133SAPE   H2X14334   3.826   6.266  10.342 -0.7744 -0.2494 -2.2381
  133SAPE   H2Y14335   3.957   6.132  10.332  1.4713  0.4994  0.1379
  133SAPE   C2314336   4.734   6.250  10.419  0.5000  0.3082  0.1446
  133SAPE   H3R14337   4.766   6.175  10.495  0.4205 -0.9397 -1.0168
  133SAPE   H3S14338   4.817   6.322  10.402 -0.3648  1.2121 -0.3362
  133SAPE   C2414339   4.717   6.190  10.279  0.2883 -0.5625 -0.4126
  133SAPE   H4R14340   4.662   6.267  10.221  0.5338 -1.1457 -1.4525
  133SAPE   H4S14341   4.653   6.099  10.277 -0.8316  0.1848 -0.0383
  133SAPE   C2514342   4.853   6.157  10.221  0.4647  0.1936  1.0372
  133SAPE   H5R14343   4.916   6.089  10.281 -0.0747 -2.2925 -0.9987
  133SAPE   C2614344   4.901   6.186  10.100 -0.3853 -0.6668 -0.3646
  133SAPE   H6R14345   4.998   6.140  10.076  0.8270  1.7499 -0.4316
  133SAPE   C2714346   4.849   6.272   9.983  0.2967 -0.1063  0.2453
  133SAPE   H7R14347   4.909   6.365   9.972 -1.7802  1.1849 -0.8129
  133SAPE   H7S14348   4.745   6.304  10.003 -0.5331 -0.7248 -2.6065
  133SAPE   C2814349   4.854   6.198   9.853  0.5689 -0.5153 -1.0381
  133SAPE   H8R14350   4.822   6.093   9.858 -3.2251  0.5353  0.1603
  133SAPE   C2914351   4.889   6.248   9.734  0.4206  0.8255  0.2728
  133SAPE   H9R14352   4.876   6.184   9.645 -0.9700 -0.2745  1.2060
  133SAPE  C21014353   4.934   6.389   9.696  0.4371 -0.4816  0.9851
  133SAPE  H10R14354   4.951   6.456   9.783  0.6045  1.4809 -0.4879
  133SAPE  H10S14355   4.844   6.425   9.641  0.4781 -1.7191  0.0663
  133SAPE  C21114356   5.060   6.404   9.610  0.8637 -0.5064 -0.2573
  133SAPE  H11R14357   5.150   6.416   9.671 -0.0136  2.5623  0.5995
  133SAPE  C21214358   5.073   6.405   9.475  0.7138 -0.6431 -0.3067
  133SAPE  H12R14359   5.167   6.428   9.423 -0.9053  0.4037 -3.0173
  133SAPE  C21314360   4.953   6.388   9.382 -1.2382 -0.4211  0.2672
  133SAPE  H13R14361   4.935   6.475   9.315 -1.2179 -0.6748 -0.0689
  133SAPE  H13S14362   4.859   6.393   9.441  0.9846  0.2602  4.0405
  133SAPE  C21414363   4.957   6.266   9.287 -0.4771 -0.8970  0.3909
  133SAPE  H14R14364   4.891   6.184   9.317  0.3108 -1.3941  0.8085
  133SAPE  C21514365   5.049   6.251   9.182  0.6501  0.4194  0.3124
  133SAPE  H15R14366   5.030   6.157   9.128  2.0042  0.3130 -0.0336
  133SAPE  C21614367   5.159   6.343   9.146 -0.4293 -0.1595 -0.1953
  133SAPE  H16R14368   5.237   6.317   9.220  0.3870 -1.5860 -1.4927
  133SAPE  H16S14369   5.134   6.450   9.159  1.0113 -0.0452  2.0756
  133SAPE  C21714370   5.209   6.322   9.010 -0.5314  0.2427  0.6972
  133SAPE  H17R14371   5.139   6.378   8.944 -1.2423 -0.9007  0.4564
  133SAPE  H17S14372   5.200   6.216   8.978  1.1038  1.1827 -3.6866
  133SAPE  C21814373   5.352   6.362   8.982  0.2788  0.3208 -0.7287
  133SAPE  H18R14374   5.411   6.292   9.044  0.0912  0.3686 -0.4953
  133SAPE  H18S14375   5.374   6.466   9.014  1.0439  0.4141 -1.5123
  133SAPE  C21914376   5.381   6.350   8.830 -0.2012 -0.2670 -0.2324
  133SAPE  H19R14377   5.354   6.244   8.809  1.1479 -0.8011  0.5331
  133SAPE  H19S14378   5.484   6.375   8.797 -0.5901  1.0718 -0.4662
  133SAPE  C22014379   5.296   6.430   8.737  0.6338 -0.4616  0.2368
  133SAPE  H20R14380   5.302   6.379   8.639 -0.1429  0.2365 -0.1873
  133SAPE  H20S14381   5.331   6.534   8.720 -3.5547  0.7398 -2.7550
  133SAPE  H20T14382   5.189   6.423   8.766  0.2996 -0.0686 -0.8525
  133SAPE   C3314383   4.013   6.329  10.256 -0.4465 -0.2989 -0.1357
  133SAPE   H3X14384   4.122   6.309  10.269 -0.4566  0.3250  0.9954
  133SAPE   H3Y14385   3.985   6.435  10.273 -0.1020 -0.1999 -0.1780
  133SAPE   C3414386   3.996   6.287  10.106 -0.0352 -0.0861 -0.6086
  133SAPE   H4X14387   3.891   6.295  10.071 -0.7190 -0.9463  1.1402
  133SAPE   H4Y14388   4.014   6.182  10.077 -0.7099  0.2568 -2.4067
  133SAPE   C3514389   4.075   6.378  10.010 -0.2513 -0.1037 -0.1196
  133SAPE   H5X14390   4.183   6.366  10.033 -0.6901  0.8216  2.8258
  133SAPE   H5Y14391   4.059   6.485  10.035 -0.1130  0.4918 -2.2912
  133SAPE   C3614392   4.060   6.348   9.859  1.0230  0.4728 -0.0645
  133SAPE   H6X14393   3.952   6.342   9.831  1.7411 -3.0819 -2.8269
  133SAPE   H6Y14394   4.101   6.246   9.840  1.8749  1.0535 -1.4756
  133SAPE   C3714395   4.141   6.447   9.779 -0.2668 -0.8750 -0.0201
  133SAPE   H7X14396   4.237   6.476   9.827  0.5718 -2.4452 -0.6857
  133SAPE   H7Y14397   4.084   6.542   9.781  1.2241  0.0742 -0.6272
  133SAPE   C3814398   4.159   6.410   9.630 -0.1402 -0.1106 -0.3286
  133SAPE   H8X14399   4.063   6.365   9.597  0.2557 -1.3400  0.1429
  133SAPE   H8Y14400   4.240   6.339   9.602 -0.3052  0.4234 -2.3056
  133SAPE   C3914401   4.197   6.530   9.543  0.2135 -0.2519  0.2014
  133SAPE   H9X14402   4.308   6.534   9.550  0.1687 -0.4584  1.3542
  133SAPE   H9Y14403   4.169   6.632   9.577  1.1441  0.3296 -0.7260
  133SAPE  C31014404   4.151   6.521   9.398  0.0673 -0.2941  0.3250
  133SAPE  H10X14405   4.043   6.539   9.382  0.2568  1.9320  1.1869
  133SAPE  H10Y14406   4.171   6.419   9.360  0.9682  0.1152 -0.3354
  133SAPE  C31114407   4.211   6.628   9.303 -0.0389  0.1993 -0.4624
  133SAPE  H11X14408   4.321   6.614   9.310 -0.3211 -1.5361  1.7753
  133SAPE  H11Y14409   4.188   6.727   9.346  1.0616 -0.3616  1.5725
  133SAPE  C31214410   4.158   6.612   9.153  0.3638 -0.3363 -0.2037
  133SAPE  H12X14411   4.048   6.623   9.149  0.6038  2.7966 -0.5856
  133SAPE  H12Y14412   4.194   6.515   9.113  1.1587  0.5445 -1.7091
  133SAPE  C31314413   4.215   6.723   9.058 -0.2906 -0.2128  0.2659
  133SAPE  H13X14414   4.314   6.688   9.021  1.4027  2.5920  1.8426
  133SAPE  H13Y14415   4.224   6.819   9.112 -0.1542 -1.2263  2.1000
  133SAPE  C31414416   4.110   6.744   8.944  0.6855 -0.0614 -0.4393
  133SAPE  H14X14417   4.009   6.770   8.980 -0.3546 -2.2775 -1.5618
  133SAPE  H14Y14418   4.100   6.657   8.876 -2.4537  0.7507 -1.1540
  133SAPE  C31514419   4.154   6.844   8.842 -0.3032 -0.2432 -0.4084
  133SAPE  H15X14420   4.256   6.822   8.805  0.0339  2.5228 -1.3647
  133SAPE  H15Y14421   4.153   6.944   8.889  0.7442  0.2995 -1.4846
  133SAPE  C31614422   4.063   6.849   8.722  0.8178  0.6724  0.5297
  133SAPE  H16X14423   4.071   6.746   8.681  3.1386  0.7639  0.6064
  133SAPE  H16Y14424   4.102   6.928   8.654  2.1568  0.2131  0.7314
  133SAPE  C31714425   3.914   6.893   8.748  0.3560 -0.6867  0.2516
  133SAPE  H17X14426   3.919   6.999   8.782  2.4472 -0.3681 -0.8654
  133SAPE  H17Y14427   3.863   6.832   8.826 -0.3746 -2.5496 -1.6236
  133SAPE  C31814428   3.825   6.876   8.624  0.4069  0.2483  0.2300
  133SAPE  H18X14429   3.820   6.773   8.584 -0.9583  0.9296 -1.4789
  133SAPE  H18Y14430   3.863   6.943   8.544 -2.3755  1.0416 -0.5571
  133SAPE  H18Z14431   3.720   6.911   8.633  0.3486 -0.2834  1.9671
  134SAPE     N14432   2.081   1.238  10.867  0.5163 -0.0092 -0.0593
  134SAPE   HN114433   2.104   1.318  10.805  0.0939 -0.6176 -1.0337
  134SAPE   HN214434   2.087   1.283  10.960 -0.1054  0.4602 -0.2407
  134SAPE   HN314435   2.160   1.171  10.858 -1.7218 -3.1087  1.5995
  134SAPE   C1214436   1.952   1.165  10.826 -0.1074  0.5150 -0.2932
  134SAPE  H12A14437   1.938   1.082  10.897  1.2893  2.7406  2.8214
  134SAPE  H12B14438   1.970   1.131  10.722  4.1448 -0.4457  0.5732
  134SAPE   C1114439   1.836   1.263  10.849 -0.2102 -0.5138  0.4318
  134SAPE  H11A14440   1.741   1.205  10.840 -0.2912 -0.3324  0.1000
  134SAPE  H11B14441   1.829   1.339  10.769 -1.1537 -2.4705 -1.4713
  134SAPE     P14442   1.724   1.373  11.065  0.6436  0.2787  0.5331
  134SAPE   O1314443   1.634   1.264  11.104 -0.3507  0.4743 -0.0332
  134SAPE   O1414444   1.779   1.451  11.174  0.1084 -0.4892  0.2395
  134SAPE   O1214445   1.845   1.327  10.979  0.0834 -0.6139 -0.1145
  134SAPE   O1114446   1.643   1.464  10.959 -0.3229  1.0982 -0.4073
  134SAPE    C114447   1.702   1.574  10.903  0.2183 -0.9559 -0.4343
  134SAPE    HA14448   1.700   1.647  10.987 -0.3285 -0.4601 -0.8718
  134SAPE    HB14449   1.804   1.566  10.859  0.4173  0.1201 -0.1895
  134SAPE    C214450   1.617   1.616  10.779  0.7395  0.5302  0.0123
  134SAPE    HS14451   1.509   1.628  10.799  0.3733 -0.1198 -1.4584
  134SAPE   O2114452   1.632   1.505  10.682  0.0732  0.3595 -1.1779
  134SAPE   C2114453   1.517   1.475  10.623  0.2798  0.3464  0.1931
  134SAPE   O2214454   1.407   1.526  10.644  0.7835  0.6696 -0.7831
  134SAPE   C2214455   1.542   1.366  10.516 -0.1471 -0.1809  0.0980
  134SAPE   H2R14456   1.652   1.353  10.506 -0.3172 -1.5559 -0.1451
  134SAPE   H2S14457   1.517   1.267  10.559  0.0560  0.1903  1.1080
  134SAPE    C314458   1.661   1.751  10.722  0.2446 -0.0193  0.0281
  134SAPE    HX14459   1.767   1.735  10.692 -0.0771  0.1986 -1.2792
  134SAPE    HY14460   1.661   1.830  10.801 -0.5306  1.2239 -1.1658
  134SAPE   O3114461   1.581   1.803  10.614 -0.2446  0.6568  0.3947
  134SAPE   C3114462   1.625   1.782  10.488  0.2850  0.4628 -0.3418
  134SAPE   O3214463   1.727   1.720  10.458 -0.4968 -0.9386 -0.0358
  134SAPE   C3214464   1.539   1.854  10.395 -0.5842  0.0363 -0.4491
  134SAPE   H2X14465   1.547   1.958  10.433 -3.0675 -0.0574  0.4992
  134SAPE   H2Y14466   1.431   1.828  10.398 -0.1168 -2.2536 -1.1473
  134SAPE   C2314467   1.496   1.377  10.370  1.2477 -0.2512 -0.2761
  134SAPE   H3R14468   1.578   1.424  10.313 -0.4834 -0.7673 -3.4361
  134SAPE   H3S14469   1.407   1.444  10.372 -0.2716 -2.1829  0.5030
  134SAPE   C2414470   1.439   1.249  10.307 -0.0221 -0.3015  1.4915
  134SAPE   H4R14471   1.514   1.166  10.308  2.3017  1.5996 -0.2967
  134SAPE   H4S14472   1.415   1.275  10.201 -3.3238  0.2672  2.3015
  134SAPE   C2514473   1.309   1.207  10.369 -0.0843 -0.0413 -0.2604
  134SAPE   H5R14474   1.229   1.282  10.354 -0.1662  0.1299  0.9250
  134SAPE   C2614475   1.283   1.094  10.441  0.2024 -0.4189 -0.1905
  134SAPE   H6R14476   1.196   1.088  10.508 -0.0508 -1.3671 -0.5795
  134SAPE   C2714477   1.384   0.975  10.441  0.6589  0.6357 -0.7311
  134SAPE   H7R14478   1.457   0.984  10.524  0.4683  0.3862 -0.5369
  134SAPE   H7S14479   1.444   0.965  10.347  1.0652 -0.0952 -0.4019
  134SAPE   C2814480   1.301   0.846  10.457 -0.2390 -0.3105 -0.0743
  134SAPE   H8R14481   1.194   0.845  10.434 -0.1285  1.3940 -0.8599
  134SAPE   C2914482   1.351   0.730  10.492 -1.0361  0.1351 -0.1460
  134SAPE   H9R14483   1.283   0.645  10.503 -0.2417 -0.5534 -0.4233
  134SAPE  C21014484   1.498   0.720  10.532 -0.4841 -0.7479  0.1014
  134SAPE  H10R14485   1.513   0.738  10.640  1.1930  0.9699 -0.3665
  134SAPE  H10S14486   1.564   0.797  10.488 -1.3359  0.6116  1.1298
  134SAPE  C21114487   1.558   0.586  10.494  0.0974 -0.1608  0.1962
  134SAPE  H11R14488   1.571   0.520  10.582 -1.4400 -0.2063  0.4236
  134SAPE  C21214489   1.589   0.542  10.371 -0.2214  0.1591  0.7002
  134SAPE  H12R14490   1.635   0.442  10.365 -2.4966 -0.9105 -0.0856
  134SAPE  C21314491   1.570   0.625  10.238  0.9723 -0.2408 -0.8050
  134SAPE  H13R14492   1.653   0.699  10.238  1.2123 -0.5083 -0.7080
  134SAPE  H13S14493   1.480   0.690  10.242  0.8788 -0.2847 -1.9898
  134SAPE  C21414494   1.563   0.544  10.113  0.3693  0.2748  0.6278
  134SAPE  H14R14495   1.653   0.480  10.108  0.1580 -0.1428  1.8642
  134SAPE  C21514496   1.478   0.544  10.007  0.2591 -0.4775  0.2234
  134SAPE  H15R14497   1.503   0.475   9.925 -1.4505 -0.2833 -0.4987
  134SAPE  C21614498   1.358   0.632   9.969  0.2679 -0.7398  0.2193
  134SAPE  H16R14499   1.313   0.679  10.059 -2.1656 -2.8277  0.2145
  134SAPE  H16S14500   1.287   0.567   9.913  0.2047  0.0020 -0.5765
  134SAPE  C21714501   1.392   0.738   9.863  0.7126 -0.3123 -0.5743
  134SAPE  H17R14502   1.448   0.821   9.912  2.7249 -2.0181  0.1926
  134SAPE  H17S14503   1.293   0.772   9.826  0.2418 -2.4015 -1.3457
  134SAPE  C21814504   1.467   0.680   9.739 -0.0248  1.3745 -0.3267
  134SAPE  H18R14505   1.408   0.592   9.706 -1.3549  1.7172  1.0202
  134SAPE  H18S14506   1.564   0.644   9.779 -0.5860 -0.2199 -0.3486
  134SAPE  C21914507   1.493   0.783   9.624 -0.1823  0.5014  0.4935
  134SAPE  H19R14508   1.534   0.879   9.660  2.2962  0.4246 -1.7849
  134SAPE  H19S14509   1.394   0.800   9.576  0.4548  1.0903 -0.6508
  134SAPE  C22014510   1.582   0.742   9.498  0.2710  0.0924 -0.6151
  134SAPE  H20R14511   1.680   0.711   9.540  0.3779  1.5436  0.2575
  134SAPE  H20S14512   1.585   0.824   9.423 -0.5194  2.0052  1.3535
  134SAPE  H20T14513   1.545   0.647   9.453 -0.8672  0.8348 -1.2750
  134SAPE   C3314514   1.581   1.835  10.247  0.5352 -0.2861 -0.6579
  134SAPE   H3X14515   1.691   1.843  10.233  0.9561 -0.0543  2.2056
  134SAPE   H3Y14516   1.524   1.916  10.197 -0.8428 -1.1605 -0.5353
  134SAPE   C3414517   1.520   1.707  10.176  0.1494  0.1497  0.7030
  134SAPE   H4X14518   1.412   1.726  10.158  0.4117 -0.9042 -2.7448
  134SAPE   H4Y14519   1.538   1.624  10.247  1.7844 -1.3620 -1.3627
  134SAPE   C3514520   1.578   1.681  10.034  0.3869 -0.4996  0.1416
  134SAPE   H5X14521   1.570   1.579   9.991 -1.2609  0.6364 -2.5095
  134SAPE   H5Y14522   1.687   1.701  10.036  0.6257 -1.5639 -0.9642
  134SAPE   C3614523   1.510   1.763   9.922 -0.7836  0.0401 -0.5577
  134SAPE   H6X14524   1.472   1.850   9.979  0.0873 -0.3109  0.5827
  134SAPE   H6Y14525   1.421   1.706   9.887 -1.6379  0.6070  0.5951
  134SAPE   C3714526   1.609   1.809   9.816  0.1751  0.7466  0.6822
  134SAPE   H7X14527   1.699   1.858   9.859  0.9237  0.6004 -0.6685
  134SAPE   H7Y14528   1.557   1.880   9.748 -0.5473 -0.9673 -0.6490
  134SAPE   C3814529   1.674   1.701   9.721  0.1297 -0.4774 -0.4178
  134SAPE   H8X14530   1.722   1.624   9.786  0.6250  1.0981  1.1618
  134SAPE   H8Y14531   1.755   1.753   9.667 -0.3573 -0.4774 -1.1643
  134SAPE   C3914532   1.579   1.650   9.613  0.0936 -0.2217 -0.2605
  134SAPE   H9X14533   1.514   1.736   9.585  0.1472 -0.4194 -1.0251
  134SAPE   H9Y14534   1.510   1.573   9.654 -2.2772  0.2087 -3.0993
  134SAPE  C31014535   1.644   1.597   9.480  0.2690 -0.6020  0.2691
  134SAPE  H10X14536   1.558   1.564   9.418  0.9992  1.2867 -1.9032
  134SAPE  H10Y14537   1.702   1.506   9.506 -0.1812 -0.5024  1.6828
  134SAPE  C31114538   1.735   1.703   9.403  0.1594 -0.4780 -0.6823
  134SAPE  H11X14539   1.827   1.717   9.464  0.4045  2.5229 -1.5802
  134SAPE  H11Y14540   1.686   1.800   9.377 -0.2195  0.6264  3.4259
  134SAPE  C31214541   1.778   1.650   9.265  0.5247  0.3355 -0.3064
  134SAPE  H12X14542   1.695   1.671   9.194 -1.0746 -0.4809  1.2655
  134SAPE  H12Y14543   1.797   1.541   9.278  0.2813  0.2855 -0.3684
  134SAPE  C31314544   1.905   1.718   9.217  0.1234  0.3905  0.1409
  134SAPE  H13X14545   1.994   1.683   9.273  0.1567  1.8202  0.9993
  134SAPE  H13Y14546   1.901   1.828   9.226 -0.0022  0.4609 -0.6770
  134SAPE  C31414547   1.913   1.702   9.064  0.0214  0.8367 -0.3605
  134SAPE  H14X14548   1.841   1.771   9.016  0.1647  0.1900 -1.5389
  134SAPE  H14Y14549   1.893   1.599   9.026 -1.6810  1.2755 -0.7546
  134SAPE  C31514550   2.062   1.724   9.021 -0.5201  0.1993  0.2592
  134SAPE  H15X14551   2.051   1.677   8.921  0.7800 -0.8966  0.6100
  134SAPE  H15Y14552   2.121   1.653   9.083  1.8106  1.9681  0.1722
  134SAPE  C31614553   2.100   1.865   9.027  0.2683  0.4610 -0.2752
  134SAPE  H16X14554   2.108   1.900   9.132 -1.2110  2.7355 -0.8575
  134SAPE  H16Y14555   2.025   1.931   8.978  1.1380  1.3001 -0.5048
  134SAPE  C31714556   2.231   1.898   8.953  0.3331  0.8265 -0.4159
  134SAPE  H17X14557   2.248   2.006   8.973  0.8803  0.3419  2.0252
  134SAPE  H17Y14558   2.226   1.868   8.846 -0.2834 -0.8526  0.0646
  134SAPE  C31814559   2.354   1.828   9.010  0.0521  0.6597  0.4247
  134SAPE  H18X14560   2.438   1.892   8.976  0.0033  1.1955  1.2808
  134SAPE  H18Y14561   2.367   1.720   8.986  0.4390  0.3670  1.8279
  134SAPE  H18Z14562   2.355   1.828   9.121 -0.8134 -0.6533  0.4524
  135SAPE     N14563   1.413   6.548  11.090 -0.1672 -0.4216  0.2786
  135SAPE   HN114564   1.430   6.548  11.193 -0.0780 -2.1109  0.2942
  135SAPE   HN214565   1.448   6.460  11.047  0.1232  1.1814 -2.9925
  135SAPE   HN314566   1.467   6.623  11.044 -0.9626  0.3337  0.5604
  135SAPE   C1214567   1.267   6.550  11.069  0.0738 -0.8759 -0.1049
  135SAPE  H12A14568   1.220   6.630  11.129 -1.9173 -2.2474  0.2600
  135SAPE  H12B14569   1.224   6.449  11.091 -0.8846 -0.2858  0.8328
  135SAPE   C1114570   1.234   6.563  10.917 -0.2890 -0.2634 -0.2198
  135SAPE  H11A14571   1.123   6.562  10.915 -0.2782 -0.7781 -1.2001
  135SAPE  H11B14572   1.267   6.470  10.865  0.0933  0.4654 -1.3041
  135SAPE     P14573   1.222   6.810  10.833 -0.0725  0.1647 -0.1560
  135SAPE   O1314574   1.131   6.841  10.948 -0.3791 -0.1406  0.0382
  135SAPE   O1414575   1.323   6.910  10.806  0.2893  0.1570 -0.2094
  135SAPE   O1214576   1.299   6.678  10.857 -0.0317  0.0012 -0.6849
  135SAPE   O1114577   1.133   6.793  10.706 -0.1606 -0.5074  0.1961
  135SAPE    C114578   1.178   6.799  10.570  0.9270  0.5809  0.5831
  135SAPE    HA14579   1.094   6.836  10.506  1.1695 -0.1609 -0.1874
  135SAPE    HB14580   1.252   6.877  10.541 -0.7121  2.4679  1.2223
  135SAPE    C214581   1.217   6.659  10.516  0.1601 -0.1012 -0.1682
  135SAPE    HS14582   1.303   6.629  10.579 -0.6269  1.5089  1.8102
  135SAPE   O2114583   1.239   6.663  10.376 -0.5699 -0.1291 -0.1569
  135SAPE   C2114584   1.322   6.571  10.329 -0.0475  0.1098 -0.1503
  135SAPE   O2214585   1.352   6.464  10.378 -0.6716 -0.6916 -0.5781
  135SAPE   C2214586   1.360   6.610  10.180 -0.1735 -0.7929 -0.6191
  135SAPE   H2R14587   1.266   6.630  10.125 -0.6811 -1.9819 -0.2060
  135SAPE   H2S14588   1.398   6.715  10.181 -1.4241 -0.3240 -0.6672
  135SAPE    C314589   1.104   6.557  10.549 -0.3346  0.1095  0.0871
  135SAPE    HX14590   1.094   6.562  10.660  0.9983  0.8911  0.1919
  135SAPE    HY14591   1.135   6.453  10.528  0.4785 -0.2468  2.6784
  135SAPE   O3114592   0.973   6.586  10.494 -0.3622 -0.1266  0.9775
  135SAPE   C3114593   0.944   6.529  10.376  0.7174  0.0598  0.9771
  135SAPE   O3214594   1.016   6.446  10.320 -0.1139  0.1848  0.3503
  135SAPE   C3214595   0.802   6.557  10.340 -0.4181 -0.7059 -0.4241
  135SAPE   H2X14596   0.760   6.653  10.377  1.6932  0.0370  0.1925
  135SAPE   H2Y14597   0.747   6.471  10.384 -0.7617 -1.9228 -3.0304
  135SAPE   C2314598   1.466   6.523  10.114 -0.8063 -0.6659  0.4798
  135SAPE   H3R14599   1.423   6.421  10.105 -1.5880 -0.4923  1.9323
  135SAPE   H3S14600   1.557   6.507  10.175 -1.2473  0.6106  1.5201
  135SAPE   C2414601   1.514   6.588   9.985  0.0470  0.0056 -0.2136
  135SAPE   H4R14602   1.616   6.551   9.960  0.1353 -0.0379  0.1883
  135SAPE   H4S14603   1.526   6.695  10.014 -2.2678  0.1049  0.5755
  135SAPE   C2514604   1.419   6.578   9.871  0.0038  0.3818  0.4250
  135SAPE   H5R14605   1.317   6.559   9.909  0.7456 -2.9904  1.0748
  135SAPE   C2614606   1.449   6.594   9.740  0.0660 -0.6077  0.2582
  135SAPE   H6R14607   1.371   6.580   9.664 -0.3402  1.7879  0.1561
  135SAPE   C2714608   1.588   6.618   9.688 -0.0778 -0.0685  0.0549
  135SAPE   H7R14609   1.613   6.533   9.622  1.8430  2.1200 -2.2207
  135SAPE   H7S14610   1.670   6.626   9.763 -0.9090  0.2264  0.9552
  135SAPE   C2814611   1.584   6.757   9.615  0.0123  0.0843 -0.9365
  135SAPE   H8R14612   1.618   6.834   9.685 -0.1789 -0.8236  0.1806
  135SAPE   C2914613   1.555   6.784   9.492 -0.2688  0.1765  0.2782
  135SAPE   H9R14614   1.556   6.888   9.458 -0.6386 -0.2846 -1.2299
  135SAPE  C21014615   1.517   6.699   9.375  0.2671  0.0666 -0.2796
  135SAPE  H10R14616   1.474   6.769   9.300 -0.4996 -2.8421 -2.7629
  135SAPE  H10S14617   1.428   6.639   9.404 -0.5015  0.8654 -0.9063
  135SAPE  C21114618   1.617   6.598   9.321 -0.8053  0.2469  0.1353
  135SAPE  H11R14619   1.709   6.584   9.380 -1.3511  1.1446  1.2294
  135SAPE  C21214620   1.616   6.548   9.190 -0.0833 -0.3430 -0.0921
  135SAPE  H12R14621   1.696   6.476   9.169  1.3966  1.4436 -0.8271
  135SAPE  C21314622   1.512   6.568   9.088 -0.1779  0.2004  0.6364
  135SAPE  H13R14623   1.545   6.627   9.000 -0.2743  1.4570  1.4241
  135SAPE  H13S14624   1.430   6.633   9.127  1.1389  2.2516  0.1258
  135SAPE  C21414625   1.449   6.432   9.055 -0.0588  0.4907 -0.6220
  135SAPE  H14R14626   1.434   6.380   9.151  0.5179  0.6208 -0.4533
  135SAPE  C21514627   1.441   6.371   8.937  0.1956  0.3475 -0.3688
  135SAPE  H15R14628   1.403   6.268   8.931  0.9484  0.0005  0.5806
  135SAPE  C21614629   1.487   6.424   8.804  0.9017 -0.7565  0.1849
  135SAPE  H16R14630   1.545   6.517   8.823 -0.1199  0.2365 -1.3680
  135SAPE  H16S14631   1.395   6.459   8.753  1.8351  0.2363 -0.8763
  135SAPE  C21714632   1.567   6.322   8.711  0.6891 -0.1697  0.3939
  135SAPE  H17R14633   1.594   6.363   8.611 -3.7478  0.7500 -0.6140
  135SAPE  H17S14634   1.504   6.236   8.680  0.8478  0.0691 -0.6307
  135SAPE  C21814635   1.696   6.277   8.777 -0.4073 -0.0631  0.7382
  135SAPE  H18R14636   1.740   6.220   8.693 -1.6646  0.3451 -0.2365
  135SAPE  H18S14637   1.670   6.224   8.871 -0.8245 -1.0360  0.0867
  135SAPE  C21914638   1.799   6.384   8.810  0.2747 -0.4854  0.2909
  135SAPE  H19R14639   1.763   6.437   8.901  3.4954 -2.0679  2.7164
  135SAPE  H19S14640   1.811   6.455   8.726 -1.2460  0.2159  0.6468
  135SAPE  C22014641   1.938   6.326   8.840  0.2618  0.4575 -0.2344
  135SAPE  H20R14642   2.012   6.408   8.846  1.8269 -0.8140 -1.3990
  135SAPE  H20S14643   1.974   6.254   8.763  1.0601  2.1130 -1.4686
  135SAPE  H20T14644   1.943   6.281   8.942 -0.7802 -0.7955 -0.7009
  135SAPE   C3314645   0.781   6.547  10.185 -0.2124  0.1075 -0.0229
  135SAPE   H3X14646   0.674   6.547  10.158 -0.1231 -0.4738 -0.3749
  135SAPE   H3Y14647   0.817   6.445  10.163  1.1521  0.6027 -0.2105
  135SAPE   C3414648   0.873   6.649  10.109  0.9262 -0.5081 -0.4594
  135SAPE   H4X14649   0.980   6.626  10.129  0.7923 -1.0329 -0.3403
  135SAPE   H4Y14650   0.841   6.754  10.128  0.9959 -0.4561 -0.6302
  135SAPE   C3514651   0.862   6.622   9.961  0.3647  0.4467 -0.1153
  135SAPE   H5X14652   0.761   6.662   9.936  0.7159  1.4304 -0.0087
  135SAPE   H5Y14653   0.874   6.513   9.942  1.8282  0.1183  2.2406
  135SAPE   C3614654   0.975   6.694   9.889  0.5767  0.2205  0.5347
  135SAPE   H6X14655   1.072   6.673   9.937  2.0290  0.6867 -1.9987
  135SAPE   H6Y14656   0.953   6.803   9.883  1.1625  0.5030  2.6740
  135SAPE   C3714657   0.991   6.634   9.745  0.1861 -0.2032 -0.2491
  135SAPE   H7X14658   0.894   6.608   9.697 -0.1127  0.2813  0.0887
  135SAPE   H7Y14659   1.047   6.539   9.761 -1.5366 -0.8726  2.2986
  135SAPE   C3814660   1.073   6.726   9.657  0.6565 -0.0568  0.5673
  135SAPE   H8X14661   1.155   6.769   9.718  0.5867  0.0182  0.6087
  135SAPE   H8Y14662   1.006   6.810   9.630  0.4799 -0.1733  0.6398
  135SAPE   C3914663   1.124   6.667   9.522  0.4511  0.4523 -0.3698
  135SAPE   H9X14664   1.034   6.614   9.484  1.6948 -1.5997 -0.6189
  135SAPE   H9Y14665   1.208   6.595   9.536 -0.2240 -0.2075  0.3745
  135SAPE  C31014666   1.163   6.770   9.413  0.0415 -0.0909 -0.0191
  135SAPE  H10X14667   1.260   6.814   9.446 -0.2612 -0.6559  1.7110
  135SAPE  H10Y14668   1.082   6.847   9.407 -0.3250 -0.5286 -0.7806
  135SAPE  C31114669   1.170   6.708   9.276  0.3613 -0.3406  0.1825
  135SAPE  H11X14670   1.068   6.673   9.250 -0.0451 -0.0773  1.3666
  135SAPE  H11Y14671   1.246   6.627   9.277 -0.1321 -0.8816 -2.0300
  135SAPE  C31214672   1.209   6.804   9.162 -0.0799 -0.3933 -0.1502
  135SAPE  H12X14673   1.318   6.828   9.167 -0.2514  0.9528 -1.8027
  135SAPE  H12Y14674   1.143   6.892   9.180 -0.7752 -0.8585 -0.3798
  135SAPE  C31314675   1.156   6.751   9.025 -0.0290  0.0003  0.5682
  135SAPE  H13X14676   1.051   6.722   9.045  0.3934 -1.9168  0.1173
  135SAPE  H13Y14677   1.205   6.655   9.000 -0.4089  0.0644 -0.4569
  135SAPE  C31414678   1.177   6.837   8.897  0.5722 -0.6004 -0.7258
  135SAPE  H14X14679   1.280   6.878   8.908  0.8848 -1.5699  0.0556
  135SAPE  H14Y14680   1.098   6.915   8.902  0.2782 -0.8973 -0.7294
  135SAPE  C31514681   1.178   6.761   8.767  0.1515 -0.0553  0.5486
  135SAPE  H15X14682   1.091   6.693   8.767 -0.4837  0.7236 -0.5298
  135SAPE  H15Y14683   1.266   6.694   8.774 -0.3945 -0.8066  0.3368
  135SAPE  C31614684   1.180   6.841   8.636  0.6889  0.3552  0.2568
  135SAPE  H16X14685   1.088   6.902   8.630  1.7604  2.2982  1.9995
  135SAPE  H16Y14686   1.161   6.773   8.550  0.1759  1.6074 -0.6437
  135SAPE  C31714687   1.308   6.916   8.609  0.0812 -0.0698 -1.1555
  135SAPE  H17X14688   1.382   6.835   8.593 -1.5020 -1.5811 -1.0784
  135SAPE  H17Y14689   1.335   6.977   8.698 -0.4271  2.0110 -2.3522
  135SAPE  C31814690   1.296   7.004   8.482 -0.3744 -0.7682 -0.1841
  135SAPE  H18X14691   1.389   7.059   8.454 -2.2392  2.7616  0.0218
  135SAPE  H18Y14692   1.217   7.081   8.495 -0.7522 -1.0627 -0.6806
  135SAPE  H18Z14693   1.271   6.941   8.394  0.8926 -0.1807 -0.9955
  136SAPE     N14694   3.354   6.052  11.330  0.4853  0.0791 -0.9752
  136SAPE   HN114695   3.293   6.015  11.405 -1.3603  0.1135 -2.3930
  136SAPE   HN214696   3.446   6.024  11.370  0.1158  1.4137  0.8979
  136SAPE   HN314697   3.345   6.156  11.332  0.4994  0.0771 -0.8402
  136SAPE   C1214698   3.328   5.989  11.200  0.0656  0.8536 -0.6337
  136SAPE  H12A14699   3.221   6.012  11.180 -0.2987 -1.1427 -1.1515
  136SAPE  H12B14700   3.328   5.878  11.208 -2.2633  0.7608 -1.3651
  136SAPE   C1114701   3.423   6.037  11.090  0.4528  0.2140 -0.6511
  136SAPE  H11A14702   3.422   6.147  11.101 -1.0767  0.0504  1.5649
  136SAPE  H11B14703   3.396   6.015  10.984  0.9924 -1.8437 -0.4150
  136SAPE     P14704   3.621   5.872  11.044 -0.4657  0.1383 -0.2976
  136SAPE   O1314705   3.746   5.827  11.115 -0.1657  0.2535 -0.0839
  136SAPE   O1414706   3.510   5.773  11.029 -0.2068  0.1712  0.1303
  136SAPE   O1214707   3.562   5.999  11.110  0.2370 -0.2781 -0.0936
  136SAPE   O1114708   3.657   5.919  10.902  0.1264 -0.3942  0.4632
  136SAPE    C114709   3.712   6.046  10.874  0.6227 -0.4009  0.4645
  136SAPE    HA14710   3.640   6.131  10.876  1.2254  0.0915  1.9995
  136SAPE    HB14711   3.791   6.075  10.946  0.9506  0.2120 -0.1324
  136SAPE    C214712   3.780   6.036  10.735  0.7381  0.2204  0.6695
  136SAPE    HS14713   3.818   6.134  10.701  1.5606  0.2458  1.6121
  136SAPE   O2114714   3.706   5.977  10.638  0.0690 -0.2830  0.5550
  136SAPE   C2114715   3.586   6.017  10.618  0.0234 -0.1089 -0.2764
  136SAPE   O2214716   3.526   6.111  10.663 -0.2845  0.0814  0.1655
  136SAPE   C2214717   3.524   5.908  10.526  0.0471  0.2312  0.1504
  136SAPE   H2R14718   3.606   5.848  10.482 -0.6278 -0.4837 -0.1564
  136SAPE   H2S14719   3.467   5.841  10.594 -1.3103 -0.0588 -1.2088
  136SAPE    C314720   3.909   5.948  10.755  0.0599 -0.1276 -0.5901
  136SAPE    HX14721   3.882   5.850  10.800 -0.3549  0.0057 -0.5426
  136SAPE    HY14722   3.978   6.004  10.821  0.2152 -0.6343 -0.3177
  136SAPE   O3114723   3.961   5.919  10.627  0.6723 -0.2416 -0.1448
  136SAPE   C3114724   4.090   5.889  10.619  0.8726 -0.1468 -0.2732
  136SAPE   O3214725   4.168   5.879  10.710 -0.0270  0.6889  0.3583
  136SAPE   C3214726   4.114   5.852  10.475 -0.6280 -0.1414  0.6571
  136SAPE   H2X14727   4.039   5.907  10.414  1.0256  1.2557 -0.2135
  136SAPE   H2Y14728   4.094   5.743  10.476 -0.7070 -0.1249  0.8988
  136SAPE   C2314729   3.429   5.961  10.417 -0.5840 -0.0092 -0.4967
  136SAPE   H3R14730   3.377   6.054  10.448  1.1380  0.0985  2.4217
  136SAPE   H3S14731   3.343   5.892  10.399 -1.0126  0.3290  0.2104
  136SAPE   C2414732   3.512   5.969  10.284 -0.4125 -0.1910 -0.6559
  136SAPE   H4R14733   3.603   6.026  10.313  0.9083 -2.8879  0.8481
  136SAPE   H4S14734   3.465   6.036  10.209 -0.8301 -0.1153 -0.3301
  136SAPE   C2514735   3.539   5.835  10.218  0.2474 -0.4957  0.7153
  136SAPE   H5R14736   3.530   5.753  10.291 -1.7078  0.9400  2.2097
  136SAPE   C2614737   3.578   5.808  10.091 -0.1419 -0.5384  0.3220
  136SAPE   H6R14738   3.591   5.702  10.062 -1.4285 -0.8343  0.7645
  136SAPE   C2714739   3.617   5.904   9.975 -0.2003  0.5938  0.9974
  136SAPE   H7R14740   3.538   5.916   9.898  0.2685  1.1880  0.6028
  136SAPE   H7S14741   3.697   5.848   9.923  0.4000  1.2606  1.1866
  136SAPE   C2814742   3.682   6.032  10.016  0.1410  0.1181 -0.0436
  136SAPE   H8R14743   3.728   6.027  10.115  2.0213  0.3050 -0.8573
  136SAPE   C2914744   3.685   6.142   9.943 -0.6042 -0.1639  0.0058
  136SAPE   H9R14745   3.739   6.229   9.984 -1.4117  1.3729 -2.0247
  136SAPE  C21014746   3.619   6.160   9.809 -0.5962 -0.3876 -0.1198
  136SAPE  H10R14747   3.583   6.067   9.759 -0.0706 -0.2857 -0.7033
  136SAPE  H10S14748   3.701   6.185   9.738 -0.8045 -1.0171 -0.5937
  136SAPE  C21114749   3.500   6.260   9.793 -0.6987  0.0102 -0.6481
  136SAPE  H11R14750   3.452   6.281   9.890 -0.0496 -2.6365  0.3315
  136SAPE  C21214751   3.465   6.310   9.670  0.6880 -0.6789 -0.3499
  136SAPE  H12R14752   3.388   6.387   9.663  0.0379 -1.2490  0.3792
  136SAPE  C21314753   3.527   6.262   9.539  0.1884 -0.6685 -0.0456
  136SAPE  H13R14754   3.449   6.288   9.465  0.6561  1.7112  0.2093
  136SAPE  H13S14755   3.547   6.152   9.537 -0.1684 -0.7379  0.0388
  136SAPE  C21414756   3.648   6.343   9.505 -0.4123 -0.7203 -0.2641
  136SAPE  H14R14757   3.641   6.448   9.538 -1.7807 -1.1464  0.9276
  136SAPE  C21514758   3.759   6.299   9.449  0.0896 -0.5512 -0.3536
  136SAPE  H15R14759   3.835   6.376   9.430 -2.5371  1.4931 -3.8292
  136SAPE  C21614760   3.785   6.155   9.397 -0.5909 -0.5467 -0.2788
  136SAPE  H16R14761   3.704   6.087   9.432 -1.0050 -0.7505 -1.5679
  136SAPE  H16S14762   3.874   6.110   9.447 -1.2839 -2.1078 -0.3624
  136SAPE  C21714763   3.800   6.137   9.248  0.2456 -0.0758  0.8443
  136SAPE  H17R14764   3.750   6.217   9.189  1.0297  0.6750  1.1791
  136SAPE  H17S14765   3.766   6.034   9.224  0.6748 -0.0326  0.0232
  136SAPE  C21814766   3.949   6.162   9.206 -0.3177  0.0610 -0.6115
  136SAPE  H18R14767   4.018   6.090   9.254  0.2566 -0.6237 -2.3722
  136SAPE  H18S14768   3.976   6.266   9.235  0.8976 -0.1760 -0.8386
  136SAPE  C21914769   3.973   6.149   9.056 -0.0707  0.4936  0.4095
  136SAPE  H19R14770   3.902   6.209   8.994 -0.7406  0.4431  1.1097
  136SAPE  H19S14771   3.966   6.043   9.022 -0.5131  0.7358 -0.2853
  136SAPE  C22014772   4.118   6.196   9.027  0.0391  0.4544 -0.2545
  136SAPE  H20R14773   4.143   6.195   8.918 -1.7372 -1.1173 -0.6984
  136SAPE  H20S14774   4.195   6.137   9.081  0.6301  1.3825 -0.0629
  136SAPE  H20T14775   4.131   6.303   9.054  0.7559  0.0284  1.1524
  136SAPE   C3314776   4.255   5.879  10.429  0.2464 -0.0115 -0.0112
  136SAPE   H3X14777   4.327   5.808  10.476  0.9764 -0.1402 -1.2787
  136SAPE   H3Y14778   4.278   5.987  10.447 -1.5494  0.3379  0.3012
  136SAPE   C3414779   4.268   5.871  10.272  0.9666  0.3377  0.0397
  136SAPE   H4X14780   4.168   5.872  10.222  0.8181  2.7136  0.2683
  136SAPE   H4Y14781   4.314   5.774  10.246  0.1817  0.0591 -0.3252
  136SAPE   C3514782   4.359   5.979  10.225 -0.2801  0.0765 -0.1018
  136SAPE   H5X14783   4.467   5.969  10.251  0.2285  3.1274 -0.6304
  136SAPE   H5Y14784   4.323   6.078  10.260 -0.5289 -0.1853  0.3857
  136SAPE   C3614785   4.355   5.981  10.075 -1.0390  0.2637  0.4756
  136SAPE   H6X14786   4.252   5.966  10.036  0.0853 -1.2108 -2.2207
  136SAPE   H6Y14787   4.412   5.896  10.032  0.1786  0.7594  1.0790
  136SAPE   C3714788   4.424   6.100  10.005 -0.4589  0.4734  0.4941
  136SAPE   H7X14789   4.530   6.091  10.035  0.8814 -2.7651 -4.1751
  136SAPE   H7Y14790   4.385   6.201  10.030  0.5780  1.3909 -1.3499
  136SAPE   C3814791   4.414   6.087   9.851 -0.2273  0.4889  0.1897
  136SAPE   H8X14792   4.306   6.082   9.826 -0.4829  0.3175  1.2912
  136SAPE   H8Y14793   4.457   5.991   9.814 -1.9619  0.5613 -2.2615
  136SAPE   C3914794   4.467   6.205   9.776  1.0753  0.7997  0.0034
  136SAPE   H9X14795   4.568   6.228   9.816  0.8465 -0.1072  1.1629
  136SAPE   H9Y14796   4.398   6.291   9.786  0.5336  0.6497 -1.9906
  136SAPE  C31014797   4.482   6.169   9.630 -0.5513  0.5160  0.5031
  136SAPE  H10X14798   4.382   6.133   9.600  0.1614 -0.2048 -1.0861
  136SAPE  H10Y14799   4.551   6.082   9.630  0.6067  1.3991  0.2413
  136SAPE  C31114800   4.552   6.276   9.554  0.4696  0.3015 -0.8269
  136SAPE  H11X14801   4.651   6.305   9.597  0.4167 -0.4428 -0.1875
  136SAPE  H11Y14802   4.492   6.368   9.568 -0.4806 -0.4228 -0.0358
  136SAPE  C31214803   4.571   6.245   9.408  0.0624  0.6119  0.5713
  136SAPE  H12X14804   4.489   6.177   9.376  0.3732  0.1011  0.8354
  136SAPE  H12Y14805   4.662   6.182   9.391  0.3288  1.2051 -0.2674
  136SAPE  C31314806   4.581   6.369   9.326  0.4344  0.7063 -0.8001
  136SAPE  H13X14807   4.641   6.442   9.385  2.0754 -1.3332  0.2127
  136SAPE  H13Y14808   4.481   6.416   9.328 -0.7594 -1.6696  1.6379
  136SAPE  C31414809   4.624   6.346   9.181  0.2052 -0.1870  0.1477
  136SAPE  H14X14810   4.530   6.315   9.131 -0.9961  0.4380  1.9490
  136SAPE  H14Y14811   4.711   6.280   9.160  0.5991 -0.0266  1.2161
  136SAPE  C31514812   4.655   6.480   9.122 -0.9512  0.1570  0.1203
  136SAPE  H15X14813   4.722   6.527   9.197  2.8368 -2.5097 -1.2635
  136SAPE  H15Y14814   4.563   6.540   9.106 -1.1250 -0.6728 -2.5495
  136SAPE  C31614815   4.731   6.471   8.988  0.0288 -0.2343 -0.3049
  136SAPE  H16X14816   4.829   6.422   9.005  1.5074  3.0116  1.5077
  136SAPE  H16Y14817   4.766   6.572   8.959  0.8973 -0.4865 -0.1424
  136SAPE  C31714818   4.648   6.409   8.876 -0.0181  0.2887  0.4700
  136SAPE  H17X14819   4.589   6.323   8.914 -0.8570  1.1677  1.2291
  136SAPE  H17Y14820   4.708   6.383   8.787 -2.1588 -2.4592 -0.2736
  136SAPE  C31814821   4.543   6.512   8.819 -0.3835  0.3059  0.3048
  136SAPE  H18X14822   4.596   6.592   8.762 -1.3871  0.4620 -0.4199
  136SAPE  H18Y14823   4.483   6.560   8.899 -0.2516  3.4663 -1.3420
  136SAPE  H18Z14824   4.471   6.460   8.753 -2.6014 -0.5280  3.1858
  137SAPE     N14825   1.933   1.626  11.323 -0.1342 -0.3681  0.1572
  137SAPE   HN114826   2.012   1.587  11.378 -0.1585  2.7844  2.7319
  137SAPE   HN214827   1.880   1.686  11.388  2.0151  2.0537 -0.1556
  137SAPE   HN314828   1.867   1.549  11.299  0.0673  0.2684 -2.8147
  137SAPE   C1214829   1.966   1.706  11.194 -0.2786 -1.0626 -0.3231
  137SAPE  H12A14830   2.010   1.804  11.220  4.1124 -3.0465  0.7827
  137SAPE  H12B14831   1.868   1.727  11.147 -0.2771 -1.4375 -0.5015
  137SAPE   C1114832   2.054   1.628  11.091  0.7363  0.0853 -0.3792
  137SAPE  H11A14833   2.056   1.664  10.985  0.5859  0.0873 -0.3823
  137SAPE  H11B14834   1.995   1.536  11.072  1.5647  0.0948 -3.5696
  137SAPE     P14835   2.285   1.501  11.076  0.3355  0.1891 -0.0442
  137SAPE   O1314836   2.412   1.505  11.149 -0.1295  0.1523 -0.2878
  137SAPE   O1414837   2.221   1.373  11.063  0.1186  0.3430  0.2123
  137SAPE   O1214838   2.183   1.601  11.144 -0.0138 -0.0584  1.0113
  137SAPE   O1114839   2.303   1.563  10.931 -0.8458  0.1250  0.2836
  137SAPE    C114840   2.317   1.705  10.907 -0.0743  0.0829 -0.2430
  137SAPE    HA14841   2.238   1.738  10.835  0.8141 -0.0050 -1.2913
  137SAPE    HB14842   2.318   1.769  10.997 -1.0090 -0.8168  0.4373
  137SAPE    C214843   2.449   1.736  10.820 -0.0215  0.2816  0.7885
  137SAPE    HS14844   2.469   1.844  10.806  1.2561 -0.0390 -0.0422
  137SAPE   O2114845   2.442   1.692  10.682  0.9685 -0.1452  0.5388
  137SAPE   C2114846   2.352   1.752  10.606 -0.3235 -0.0830 -0.3915
  137SAPE   O2214847   2.286   1.845  10.634 -0.4153 -0.0630 -0.1394
  137SAPE   C2214848   2.353   1.696  10.467  0.1605  0.0972  0.0782
  137SAPE   H2R14849   2.424   1.610  10.471  0.7742  0.5790 -0.2662
  137SAPE   H2S14850   2.255   1.652  10.438 -0.0584  0.6239  0.0133
  137SAPE    C314851   2.575   1.661  10.883 -0.0917 -0.4700 -0.4470
  137SAPE    HX14852   2.556   1.556  10.914  1.0743 -0.1910  1.3617
  137SAPE    HY14853   2.600   1.718  10.974  0.1054 -1.4131  0.1000
  137SAPE   O3114854   2.680   1.656  10.783  0.6746  0.5924  0.1193
  137SAPE   C3114855   2.758   1.766  10.759  0.2244  0.7057 -0.4963
  137SAPE   O3214856   2.735   1.877  10.803 -0.4178 -0.3582  1.1405
  137SAPE   C3214857   2.879   1.712  10.677 -0.8090 -0.4150 -0.0503
  137SAPE   H2X14858   2.832   1.663  10.589  0.3647 -0.3509 -0.7389
  137SAPE   H2Y14859   2.930   1.633  10.735  0.7654 -1.9012 -3.1903
  137SAPE   C2314860   2.404   1.803  10.363  0.0008 -0.5641  0.8026
  137SAPE   H3R14861   2.366   1.902  10.394 -0.0753  0.0388 -1.0764
  137SAPE   H3S14862   2.356   1.783  10.265 -0.8520  2.2546  0.5706
  137SAPE   C2414863   2.551   1.810  10.341  0.3992  0.2876  0.2790
  137SAPE   H4R14864   2.605   1.833  10.436  0.3583 -2.4755  1.0702
  137SAPE   H4S14865   2.570   1.897  10.275  1.7005  0.5810  1.0169
  137SAPE   C2514866   2.592   1.683  10.270  0.0861 -0.2071  0.2740
  137SAPE   H5R14867   2.615   1.593  10.329 -1.7825 -0.4398  0.6958
  137SAPE   C2614868   2.608   1.665  10.137  0.4727 -0.6610  0.0112
  137SAPE   H6R14869   2.651   1.571  10.099 -0.6760 -0.7692 -1.0948
  137SAPE   C2714870   2.577   1.776  10.035  0.4067 -0.1891  0.6797
  137SAPE   H7R14871   2.667   1.775   9.970 -0.3533 -0.3419 -0.3924
  137SAPE   H7S14872   2.574   1.876  10.082  3.0123 -0.9457  2.7210
  137SAPE   C2814873   2.454   1.740   9.951 -1.0820  0.4816  0.3095
  137SAPE   H8R14874   2.355   1.750   9.998 -1.2890 -2.1996  0.6451
  137SAPE   C2914875   2.435   1.723   9.816  0.2376  0.1242  0.1134
  137SAPE   H9R14876   2.342   1.676   9.780  0.2859 -0.1973  0.4060
  137SAPE  C21014877   2.541   1.734   9.708 -0.1412  0.0092  0.8059
  137SAPE  H10R14878   2.609   1.813   9.747 -0.4692 -0.1046  1.6140
  137SAPE  H10S14879   2.511   1.758   9.604 -0.4544 -2.0981  0.3674
  137SAPE  C21114880   2.635   1.615   9.696  0.3885 -0.0250  0.6118
  137SAPE  H11R14881   2.634   1.551   9.785  1.0447 -1.9024 -0.6402
  137SAPE  C21214882   2.701   1.579   9.581  0.0404  0.2720  0.4137
  137SAPE  H12R14883   2.768   1.492   9.588 -2.0064 -1.4291 -0.0708
  137SAPE  C21314884   2.709   1.646   9.444  0.2434  0.2305 -0.5868
  137SAPE  H13R14885   2.810   1.613   9.413  0.8751  0.5810  1.0153
  137SAPE  H13S14886   2.708   1.757   9.457 -0.5788 -0.0120  1.6707
  137SAPE  C21414887   2.610   1.614   9.335  0.7450  0.0813  0.4000
  137SAPE  H14R14888   2.514   1.583   9.378  0.5460  0.0867 -0.0401
  137SAPE  C21514889   2.620   1.614   9.202  0.3342 -0.3305 -0.1972
  137SAPE  H15R14890   2.532   1.576   9.148 -0.8353  0.8562  0.7824
  137SAPE  C21614891   2.747   1.640   9.122  0.2962 -0.5462  0.3778
  137SAPE  H16R14892   2.790   1.540   9.101  2.3470  0.6483 -1.4657
  137SAPE  H16S14893   2.818   1.697   9.186  1.1131  1.3503 -2.0723
  137SAPE  C21714894   2.727   1.725   8.993 -0.4148 -0.0971  0.6616
  137SAPE  H17R14895   2.707   1.833   9.008 -0.8382  0.2314 -1.7905
  137SAPE  H17S14896   2.645   1.680   8.932  0.4665 -1.0483  0.1393
  137SAPE  C21814897   2.846   1.725   8.899  0.4060  0.1126 -0.1674
  137SAPE  H18R14898   2.848   1.817   8.837  2.5147  1.3967  1.6793
  137SAPE  H18S14899   2.844   1.639   8.828 -1.2655  1.6430 -2.1235
  137SAPE  C21914900   2.975   1.738   8.978  0.0343 -0.2943  0.0371
  137SAPE  H19R14901   3.063   1.731   8.911  1.4004 -0.6100  1.7675
  137SAPE  H19S14902   2.992   1.656   9.052  0.1906  0.8629  1.3261
  137SAPE  C22014903   2.989   1.873   9.056  0.1802  0.6362  0.2617
  137SAPE  H20R14904   3.002   1.951   8.977  1.3383 -1.1175 -1.3742
  137SAPE  H20S14905   3.081   1.867   9.118  0.9871  1.6437 -0.7929
  137SAPE  H20T14906   2.907   1.905   9.123  0.5808  2.1202  0.0955
  137SAPE   C3314907   2.989   1.818  10.641 -0.2151  0.8020 -0.4400
  137SAPE   H3X14908   3.080   1.787  10.585  0.4043  2.2333 -0.2613
  137SAPE   H3Y14909   3.023   1.860  10.739 -1.3639  3.1891 -0.9950
  137SAPE   C3414910   2.945   1.937  10.557  0.5360 -0.0811 -0.0180
  137SAPE   H4X14911   3.012   2.026  10.567  0.8602 -0.1420 -1.3957
  137SAPE   H4Y14912   2.840   1.964  10.581  0.1459 -1.2903 -0.3458
  137SAPE   C3514913   2.932   1.905  10.410  0.2504 -0.6317  0.6213
  137SAPE   H5X14914   2.866   1.816  10.396  0.3130 -0.6496  0.4437
  137SAPE   H5Y14915   3.026   1.866  10.366 -0.2755 -1.1034 -0.1041
  137SAPE   C3614916   2.870   2.022  10.321 -0.6298 -0.5908 -0.4979
  137SAPE   H6X14917   2.922   2.117  10.348 -0.4606 -1.4191  2.4579
  137SAPE   H6Y14918   2.767   2.053  10.350  0.1645  0.4199  1.4889
  137SAPE   C3714919   2.883   1.991  10.178 -0.0424 -0.0150  0.5979
  137SAPE   H7X14920   2.839   1.892  10.158 -2.5367  0.9396  1.0188
  137SAPE   H7Y14921   2.992   1.992  10.153 -0.0720  1.6400  0.4306
  137SAPE   C3814922   2.821   2.093  10.071 -0.6900  0.0802  1.1926
  137SAPE   H8X14923   2.862   2.193  10.099  0.6149  0.1347 -0.7658
  137SAPE   H8Y14924   2.713   2.098  10.098 -0.8778  1.4499  0.3099
  137SAPE   C3914925   2.864   2.059   9.928  0.0672  0.6345  0.9082
  137SAPE   H9X14926   2.853   1.949   9.920 -1.2260  0.8912 -2.5028
  137SAPE   H9Y14927   2.966   2.077   9.888  1.1699  0.2675  3.3539
  137SAPE  C31014928   2.752   2.105   9.831 -0.5008 -0.5015 -0.2470
  137SAPE  H10X14929   2.768   2.215   9.820  3.4002 -0.9666 -0.7128
  137SAPE  H10Y14930   2.654   2.081   9.878 -1.2745  1.1514 -0.9191
  137SAPE  C31114931   2.780   2.046   9.692 -0.4417 -0.5483  0.3986
  137SAPE  H11X14932   2.800   1.937   9.685  0.9289 -0.2227 -1.5069
  137SAPE  H11Y14933   2.876   2.082   9.647 -0.5577  0.1073  0.6611
  137SAPE  C31214934   2.666   2.076   9.601  0.1499 -0.8908  0.1879
  137SAPE  H12X14935   2.648   2.184   9.618  4.2392  0.2208 -1.3580
  137SAPE  H12Y14936   2.573   2.022   9.629 -0.8885  1.1774  0.9165
  137SAPE  C31314937   2.702   2.063   9.458 -0.2611 -0.2883  0.0772
  137SAPE  H13X14938   2.747   1.964   9.436 -0.6164 -0.7035  1.1252
  137SAPE  H13Y14939   2.784   2.134   9.438  2.3415 -3.3386 -0.9328
  137SAPE  C31414940   2.598   2.096   9.357  0.3044 -0.8087  0.6577
  137SAPE  H14X14941   2.520   2.162   9.401 -0.1304 -2.3433  2.3529
  137SAPE  H14Y14942   2.538   2.003   9.339  0.6385 -1.3056  1.9783
  137SAPE  C31514943   2.651   2.142   9.221  0.3087 -0.2727 -0.0173
  137SAPE  H15X14944   2.712   2.058   9.180  2.6088  1.0849  0.4300
  137SAPE  H15Y14945   2.708   2.235   9.242 -0.7081  0.1443  0.9932
  137SAPE  C31614946   2.532   2.178   9.127  0.5888 -0.4406  0.0441
  137SAPE  H16X14947   2.472   2.262   9.168  1.1685  1.1236 -2.0814
  137SAPE  H16Y14948   2.466   2.089   9.117 -1.1768  0.6722  1.2536
  137SAPE  C31714949   2.571   2.234   8.985  0.2922 -0.3538  0.7648
  137SAPE  H17X14950   2.614   2.335   8.998 -1.2562  0.2384  1.5366
  137SAPE  H17Y14951   2.476   2.245   8.930  0.0293 -1.3512  0.9975
  137SAPE  C31814952   2.669   2.136   8.904 -0.3042  0.1237 -0.5805
  137SAPE  H18X14953   2.762   2.155   8.963 -0.6735  1.8350 -0.5052
  137SAPE  H18Y14954   2.706   2.158   8.802  1.1432 -0.5008 -0.2165
  137SAPE  H18Z14955   2.627   2.033   8.910 -0.6771  0.3149  0.2423
  138SAPE     N14956   5.280   0.961  10.920 -0.2660 -0.0761  0.2138
  138SAPE   HN114957   5.236   0.906  10.844  0.1285 -2.6724  1.7689
  138SAPE   HN214958   5.374   0.997  10.894  0.2898 -1.2906  0.4959
  138SAPE   HN314959   5.298   0.889  10.992 -1.1593 -2.7492 -2.0813
  138SAPE   C1214960   5.200   1.083  10.979 -0.1109 -1.0534 -0.2191
  138SAPE  H12A14961   5.255   1.168  10.932 -0.5496 -0.7394 -0.1749
  138SAPE  H12B14962   5.221   1.083  11.089  3.5298 -1.2595 -0.7738
  138SAPE   C1114963   5.055   1.079  10.948  0.8988 -0.3594  0.1969
  138SAPE  H11A14964   5.033   1.080  10.839  0.1377  0.6167  0.3405
  138SAPE  H11B14965   5.012   1.175  10.985  2.0555  0.2758 -0.0305
  138SAPE     P14966   4.862   0.913  10.962  0.1396 -0.0372 -0.2242
  138SAPE   O1314967   4.837   0.777  11.012  0.5131 -0.2905 -0.2451
  138SAPE   O1414968   4.760   1.022  10.986 -0.2889 -0.1932 -0.1084
  138SAPE   O1214969   5.005   0.960  11.010 -0.0770 -0.1938  0.0747
  138SAPE   O1114970   4.886   0.900  10.808  0.0233 -0.0068 -0.2979
  138SAPE    C114971   4.780   0.871  10.719  0.3583  0.2512  0.2407
  138SAPE    HA14972   4.681   0.893  10.765  0.0707  0.2679 -0.3768
  138SAPE    HB14973   4.794   0.935  10.629  1.9708 -1.5547 -0.8671
  138SAPE    C214974   4.779   0.731  10.654 -0.8561  0.0214  0.6002
  138SAPE    HS14975   4.757   0.661  10.737  0.2235 -1.3018 -0.2005
  138SAPE   O2114976   4.906   0.714  10.595 -0.4459  0.5253  0.8389
  138SAPE   C2114977   4.941   0.590  10.553 -0.7930  0.3112  0.5450
  138SAPE   O2214978   4.879   0.491  10.582 -0.4917  0.9804  0.0081
  138SAPE   C2214979   5.072   0.592  10.482 -0.2502  0.1116  0.5271
  138SAPE   H2R14980   5.063   0.648  10.387 -0.4855  2.2535  1.7622
  138SAPE   H2S14981   5.151   0.632  10.550 -0.5661 -0.7359  1.4176
  138SAPE    C314982   4.664   0.712  10.544  0.2535 -0.1240 -0.3764
  138SAPE    HX14983   4.572   0.740  10.601  2.1815 -1.4630  3.7472
  138SAPE    HY14984   4.662   0.601  10.539  0.8191 -0.1336 -0.4632
  138SAPE   O3114985   4.694   0.787  10.419 -0.1496 -0.3580  0.0467
  138SAPE   C3114986   4.614   0.897  10.393  0.4577 -0.0784 -0.0931
  138SAPE   O3214987   4.537   0.946  10.471  0.2941  0.2612  0.4043
  138SAPE   C3214988   4.632   0.934  10.242  0.1516  0.4211  0.4309
  138SAPE   H2X14989   4.737   0.965  10.229 -0.1443  2.8877  2.9518
  138SAPE   H2Y14990   4.574   1.025  10.216 -0.9407  0.1387  1.7365
  138SAPE   C2314991   5.120   0.448  10.454  0.2914  0.4662  0.2070
  138SAPE   H3R14992   5.049   0.394  10.388  0.2502 -2.0798  2.1817
  138SAPE   H3S14993   5.121   0.384  10.545 -1.7529  1.8270  1.2661
  138SAPE   C2414994   5.256   0.447  10.387  0.0364 -0.1962  0.9956
  138SAPE   H4R14995   5.319   0.504  10.459  0.7379  0.2833  0.0237
  138SAPE   H4S14996   5.244   0.506  10.293 -1.7029 -2.0999 -0.0388
  138SAPE   C2514997   5.307   0.306  10.365  0.3856 -0.5634 -1.2226
  138SAPE   H5R14998   5.332   0.257  10.461 -0.6629 -1.0712 -1.2053
  138SAPE   C2614999   5.343   0.269  10.244 -0.4716  1.1391 -0.2870
  138SAPE   H6R15000   5.409   0.181  10.238 -0.0014  1.2490  2.0646
  138SAPE   C2715001   5.332   0.334  10.108 -0.2622 -0.3674  0.3784
  138SAPE   H7R15002   5.374   0.436  10.113 -0.8096 -0.1718  1.0251
  138SAPE   H7S15003   5.224   0.347  10.086 -0.6418 -0.6690  1.9525
  138SAPE   C2815004   5.397   0.252   9.992 -0.3555 -0.6075  0.3916
  138SAPE   H8R15005   5.479   0.187  10.025  0.2398  0.0885  0.3005
  138SAPE   C2915006   5.357   0.256   9.862 -0.1747 -0.3518  0.9471
  138SAPE   H9R15007   5.414   0.196   9.790  1.8904 -0.9348  2.9282
  138SAPE  C21015008   5.243   0.338   9.807  0.1711  0.3871 -0.5797
  138SAPE  H10R15009   5.156   0.311   9.870  1.0949  1.1028  1.0753
  138SAPE  H10S15010   5.235   0.297   9.704 -0.2607 -0.7079 -0.1250
  138SAPE  C21115011   5.259   0.483   9.813 -0.4293 -0.0688  0.4099
  138SAPE  H11R15012   5.284   0.520   9.914 -0.4705  1.1348  0.0024
  138SAPE  C21215013   5.242   0.582   9.722 -0.0915 -0.0040 -0.1544
  138SAPE  H12R15014   5.264   0.683   9.759  1.6711 -0.8139  1.1578
  138SAPE  C21315015   5.199   0.566   9.583  0.2088  0.3873 -0.0544
  138SAPE  H13R15016   5.103   0.620   9.570  0.6015  1.0567 -0.2233
  138SAPE  H13S15017   5.190   0.461   9.550  0.5027  1.0976 -2.6351
  138SAPE  C21415018   5.316   0.620   9.493 -0.0514  0.6888  0.3999
  138SAPE  H14R15019   5.413   0.626   9.545 -0.8954 -3.0721  2.8201
  138SAPE  C21515020   5.306   0.664   9.365 -0.4264  0.1605 -0.2110
  138SAPE  H15R15021   5.401   0.672   9.310 -0.5817 -2.8704 -1.0719
  138SAPE  C21615022   5.175   0.652   9.285 -0.4719  0.1426  0.2813
  138SAPE  H16R15023   5.164   0.748   9.229  1.2902 -0.2356 -0.7705
  138SAPE  H16S15024   5.084   0.635   9.347 -0.2257 -0.3529  0.5107
  138SAPE  C21715025   5.182   0.539   9.186 -0.1844 -0.0492  0.0771
  138SAPE  H17R15026   5.075   0.521   9.161 -0.9229  2.6246  0.9415
  138SAPE  H17S15027   5.233   0.450   9.228  1.1133  0.6961  0.1574
  138SAPE  C21815028   5.249   0.579   9.050 -0.4428  0.1434  0.3170
  138SAPE  H18R15029   5.351   0.620   9.065  0.9325 -1.9529 -2.3704
  138SAPE  H18S15030   5.191   0.663   9.006  1.3249  1.9764  1.3298
  138SAPE  C21915031   5.264   0.459   8.949 -0.5826 -0.4168 -0.7933
  138SAPE  H19R15032   5.316   0.492   8.857 -0.2499 -1.1369 -0.8702
  138SAPE  H19S15033   5.161   0.420   8.930 -0.9658  0.2020 -0.0458
  138SAPE  C22015034   5.343   0.347   9.010  0.2433  0.0904  0.1702
  138SAPE  H20R15035   5.286   0.307   9.097 -0.2723  1.9694  0.7364
  138SAPE  H20S15036   5.444   0.386   9.034 -0.9956  1.7809  3.2234
  138SAPE  H20T15037   5.355   0.253   8.952 -0.1729 -1.3550  2.3007
  138SAPE   C3315038   4.588   0.823  10.146  0.2679 -0.7838 -1.3009
  138SAPE   H3X15039   4.485   0.788  10.170  0.2629  0.1830  0.1672
  138SAPE   H3Y15040   4.663   0.743  10.166  1.9128  0.6290 -1.6436
  138SAPE   C3415041   4.599   0.870   9.998 -1.3282 -0.0509 -0.6293
  138SAPE   H4X15042   4.706   0.887   9.977 -1.1086 -0.2905  0.2512
  138SAPE   H4Y15043   4.533   0.960   9.992  0.1345  1.1318  0.3513
  138SAPE   C3515044   4.547   0.767   9.907  0.8814  0.2617  0.0240
  138SAPE   H5X15045   4.437   0.751   9.909  1.1300 -1.7732  1.5468
  138SAPE   H5Y15046   4.594   0.671   9.938 -0.4048 -0.5537 -0.4572
  138SAPE   C3615047   4.604   0.790   9.763  0.5925  0.4590  0.5887
  138SAPE   H6X15048   4.552   0.711   9.705 -2.4526  2.4249  0.3921
  138SAPE   H6Y15049   4.710   0.761   9.748  0.6917  0.3787  1.3871
  138SAPE   C3715050   4.561   0.937   9.719  0.1937  0.6882  0.2657
  138SAPE   H7X15051   4.602   1.016   9.786 -0.3459  3.4615 -2.4497
  138SAPE   H7Y15052   4.451   0.952   9.730  0.0563  0.1883 -0.4011
  138SAPE   C3815053   4.604   0.960   9.579 -0.1140  0.0354  0.0889
  138SAPE   H8X15054   4.608   0.866   9.519 -0.7426  0.8812 -1.3269
  138SAPE   H8Y15055   4.711   0.990   9.578  0.5609 -2.1853 -1.0829
  138SAPE   C3915056   4.516   1.058   9.500  0.3679  0.4896 -0.5567
  138SAPE   H9X15057   4.494   1.148   9.562  1.8840 -0.9079  2.1974
  138SAPE   H9Y15058   4.425   0.999   9.479  1.6846 -2.2451  0.8819
  138SAPE  C31015059   4.565   1.112   9.364 -0.0604  0.4074 -0.6719
  138SAPE  H10X15060   4.658   1.169   9.386  0.9540 -1.0376 -1.0205
  138SAPE  H10Y15061   4.491   1.179   9.316  2.1975  2.5673 -1.3626
  138SAPE  C31115062   4.599   1.002   9.262 -0.2223  0.0132  1.0335
  138SAPE  H11X15063   4.501   0.953   9.243 -0.4961  0.3508  1.5509
  138SAPE  H11Y15064   4.660   0.920   9.304 -1.7906 -0.5789  2.2489
  138SAPE  C31215065   4.677   1.064   9.146  0.0241 -0.0964 -0.1282
  138SAPE  H12X15066   4.764   1.121   9.184 -0.1132  0.7666 -1.0507
  138SAPE  H12Y15067   4.606   1.136   9.102 -0.0850 -0.5329 -0.6829
  138SAPE  C31315068   4.724   0.960   9.043  0.7974 -0.1700 -0.5261
  138SAPE  H13X15069   4.642   0.900   8.998  1.5371 -0.1122 -2.0148
  138SAPE  H13Y15070   4.795   0.885   9.084 -2.3979 -3.6464 -0.7402
  138SAPE  C31415071   4.791   1.030   8.926  0.1966  0.4507  0.7431
  138SAPE  H14X15072   4.887   1.076   8.955  0.9228 -0.5238 -0.0332
  138SAPE  H14Y15073   4.724   1.104   8.877  0.7642  0.5475  0.0999
  138SAPE  C31515074   4.822   0.934   8.811 -0.3085  0.1253 -0.9148
  138SAPE  H15X15075   4.724   0.890   8.782 -0.0333 -0.0989 -1.5106
  138SAPE  H15Y15076   4.887   0.850   8.844 -0.3426  0.6019  0.4347
  138SAPE  C31615077   4.884   0.990   8.681  0.1921 -0.3020 -0.0246
  138SAPE  H16X15078   4.839   1.091   8.679  2.2664  0.7034  1.5537
  138SAPE  H16Y15079   4.854   0.926   8.594 -2.7733 -1.1130  1.4300
  138SAPE  C31715080   5.032   1.014   8.670 -0.3338  0.6199  0.3271
  138SAPE  H17X15081   5.068   1.086   8.747  1.2226  1.5858 -1.2286
  138SAPE  H17Y15082   5.049   1.058   8.570  0.2278 -2.8916 -1.2559
  138SAPE  C31815083   5.121   0.885   8.678 -1.2365  0.7494 -0.7911
  138SAPE  H18X15084   5.214   0.894   8.738 -0.9383 -3.8139 -0.2768
  138SAPE  H18Y15085   5.146   0.852   8.576 -0.1644 -1.0084  0.0070
  138SAPE  H18Z15086   5.068   0.802   8.729 -0.4442  0.6882 -0.0504
  139SAPE     N15087   2.402   6.618  11.054 -0.3421 -0.1091  0.0210
  139SAPE   HN115088   2.304   6.588  11.034 -0.7820 -0.0663  1.9208
  139SAPE   HN215089   2.456   6.530  11.052  1.6281  0.9336  2.3551
  139SAPE   HN315090   2.402   6.658  11.150 -1.3606  0.0720 -0.0405
  139SAPE   C1215091   2.442   6.716  10.945  0.1870  0.5274 -0.3010
  139SAPE  H12A15092   2.392   6.815  10.959 -0.1869  0.9350 -3.7120
  139SAPE  H12B15093   2.402   6.674  10.850 -0.9376 -0.4634  0.5798
  139SAPE   C1115094   2.595   6.723  10.948 -0.9235  0.6243  0.6214
  139SAPE  H11A15095   2.636   6.780  10.861 -0.5285 -1.4012 -0.5935
  139SAPE  H11B15096   2.642   6.622  10.943 -0.2111  0.9898 -2.2263
  139SAPE     P15097   2.776   6.820  11.114 -0.4144  0.3575  0.0288
  139SAPE   O1315098   2.826   6.922  11.018  0.3714 -0.1453 -0.3586
  139SAPE   O1415099   2.787   6.855  11.256  0.1213  0.1015 -0.1114
  139SAPE   O1215100   2.627   6.780  11.076 -0.7319  0.0946  0.0805
  139SAPE   O1115101   2.864   6.687  11.091 -0.4327 -0.7034 -0.1970
  139SAPE    C115102   2.993   6.681  11.031 -0.3842 -0.4899  0.1949
  139SAPE    HA15103   3.048   6.777  11.040 -0.0111 -0.6655 -0.2117
  139SAPE    HB15104   3.055   6.611  11.091 -0.8007 -2.8209 -1.9315
  139SAPE    C215105   2.987   6.623  10.893 -1.0276  0.2510  0.3332
  139SAPE    HS15106   3.086   6.612  10.843 -1.7393 -0.4240 -0.9699
  139SAPE   O2115107   2.899   6.699  10.811 -0.1212  0.6877  0.1511
  139SAPE   C2115108   2.952   6.806  10.754 -0.5226  0.0052 -0.4602
  139SAPE   O2215109   3.067   6.840  10.758 -0.5917  0.0849 -0.0631
  139SAPE   C2215110   2.851   6.875  10.669  0.9770  0.1236 -0.6666
  139SAPE   H2R15111   2.767   6.802  10.670  0.6298  0.3648  3.1608
  139SAPE   H2S15112   2.814   6.970  10.714  0.6300 -0.6011  0.6326
  139SAPE    C315113   2.935   6.479  10.898  0.2847  0.6555 -0.0064
  139SAPE    HX15114   2.836   6.464  10.947  0.5512  0.2665  0.4200
  139SAPE    HY15115   3.002   6.410  10.952  0.2318 -0.8323 -1.7554
  139SAPE   O3115116   2.941   6.423  10.761 -0.0273  0.0536 -0.1902
  139SAPE   C3115117   2.837   6.346  10.726 -0.6979  0.6283 -0.2623
  139SAPE   O3215118   2.730   6.344  10.789 -0.7172  0.4208  0.5912
  139SAPE   C3215119   2.865   6.258  10.606 -0.1854  0.3403  0.1885
  139SAPE   H2X15120   2.973   6.233  10.597 -0.3074  0.3404 -1.7213
  139SAPE   H2Y15121   2.835   6.322  10.520 -1.6627 -0.1839  0.2790
  139SAPE   C2315122   2.897   6.898  10.527  0.2504  0.2978  0.5242
  139SAPE   H3R15123   2.968   6.983  10.520  2.1925 -1.2638  0.4319
  139SAPE   H3S15124   2.802   6.926  10.476  0.7602 -0.4282 -0.8941
  139SAPE   C2415125   2.951   6.775  10.456  0.2542 -0.1101  0.7183
  139SAPE   H4R15126   3.058   6.769  10.487 -0.4147  0.0752  3.2114
  139SAPE   H4S15127   2.961   6.788  10.346  1.5708 -2.4930  0.4886
  139SAPE   C2515128   2.880   6.648  10.483  0.0761 -0.0361  0.4454
  139SAPE   H5R15129   2.887   6.606  10.584  3.4715  1.5147  0.9979
  139SAPE   C2615130   2.811   6.581  10.386 -0.1574 -0.3426  0.1901
  139SAPE   H6R15131   2.770   6.483  10.414  2.7349 -1.2805  1.4678
  139SAPE   C2715132   2.799   6.612  10.238  0.3021  0.5940  0.6143
  139SAPE   H7R15133   2.820   6.719  10.217 -1.0846  0.5983 -1.0503
  139SAPE   H7S15134   2.691   6.601  10.213 -0.2739  1.2331  2.6354
  139SAPE   C2815135   2.890   6.528  10.147  0.4674 -0.4919 -0.7047
  139SAPE   H8R15136   2.982   6.495  10.199  0.1890 -0.6417 -0.3016
  139SAPE   C2915137   2.870   6.507  10.017 -0.1848  0.5572  0.6681
  139SAPE   H9R15138   2.927   6.430   9.963  0.3575  0.4952  1.3316
  139SAPE  C21015139   2.760   6.561   9.930  0.1397  0.5683 -1.1696
  139SAPE  H10R15140   2.681   6.610   9.990 -0.1506 -1.5826  0.3197
  139SAPE  H10S15141   2.713   6.475   9.878 -0.4233 -1.3024  2.1529
  139SAPE  C21115142   2.815   6.670   9.840 -0.2944 -0.1811 -0.0131
  139SAPE  H11R15143   2.861   6.759   9.885  0.0568  1.1193 -2.7360
  139SAPE  C21215144   2.817   6.663   9.707 -0.1468  0.6609  0.2477
  139SAPE  H12R15145   2.868   6.750   9.662  1.2928  0.5370  1.5681
  139SAPE  C21315146   2.758   6.552   9.620 -0.2226  0.4919 -0.2933
  139SAPE  H13R15147   2.657   6.582   9.586  0.2553  1.1267 -1.2036
  139SAPE  H13S15148   2.747   6.460   9.681  0.2747  0.2233 -0.5924
  139SAPE  C21415149   2.853   6.526   9.503 -0.6809  0.7175 -0.1406
  139SAPE  H14R15150   2.938   6.460   9.527 -0.6496  0.7045 -0.2842
  139SAPE  C21515151   2.826   6.556   9.374 -0.6224 -0.3993  0.0504
  139SAPE  H15R15152   2.905   6.535   9.301  1.1492 -2.5931  2.4119
  139SAPE  C21615153   2.711   6.631   9.313  1.1025  0.7030  0.5701
  139SAPE  H16R15154   2.759   6.689   9.231  2.9218  0.7790  1.6491
  139SAPE  H16S15155   2.662   6.714   9.368  0.2208  1.8257 -1.7593
  139SAPE  C21715156   2.592   6.546   9.264 -0.1449  0.2062  0.1621
  139SAPE  H17R15157   2.508   6.610   9.230  0.4279  0.7089 -0.3136
  139SAPE  H17S15158   2.560   6.478   9.346 -0.5285 -0.7015 -0.7247
  139SAPE  C21815159   2.611   6.452   9.141  0.2527  0.0209 -0.8295
  139SAPE  H18R15160   2.707   6.402   9.166 -0.3019  0.8430  3.7759
  139SAPE  H18S15161   2.627   6.524   9.058  0.4561 -0.1178 -0.9109
  139SAPE  C21915162   2.496   6.359   9.112  0.0536 -0.6500 -0.3410
  139SAPE  H19R15163   2.509   6.336   9.004  0.4513 -1.2672 -0.1680
  139SAPE  H19S15164   2.398   6.411   9.120 -0.4681 -1.1205 -2.8565
  139SAPE  C22015165   2.509   6.238   9.194 -0.7402  0.3613  0.2455
  139SAPE  H20R15166   2.529   6.252   9.303 -0.2797 -2.5685  0.6121
  139SAPE  H20S15167   2.599   6.179   9.166 -0.4194 -0.9332  3.5570
  139SAPE  H20T15168   2.421   6.173   9.174 -0.2209 -0.0563 -0.7516
  139SAPE   C3315169   2.772   6.132  10.589 -0.0471 -0.7474 -0.3463
  139SAPE   H3X15170   2.669   6.168  10.611  0.8989  0.8514  1.7630
  139SAPE   H3Y15171   2.807   6.062  10.668 -0.4503  1.8917  2.3149
  139SAPE   C3415172   2.772   6.060  10.448 -0.5959  0.3386  0.6773
  139SAPE   H4X15173   2.685   5.991  10.450 -2.1252  2.1585 -0.2483
  139SAPE   H4Y15174   2.866   6.004  10.426 -0.8848 -0.3187  1.0940
  139SAPE   C3515175   2.737   6.152  10.327 -0.0316 -0.9616  0.1035
  139SAPE   H5X15176   2.809   6.232  10.299 -2.0214  0.6738 -0.6066
  139SAPE   H5Y15177   2.647   6.209  10.358  0.6106  0.8024 -1.1220
  139SAPE   C3615178   2.709   6.066  10.201  0.3113  0.4850  0.1532
  139SAPE   H6X15179   2.608   6.027  10.225  0.1262  1.7110  1.4698
  139SAPE   H6Y15180   2.789   5.993  10.178  1.8372  2.3541 -0.7601
  139SAPE   C3715181   2.692   6.141  10.068 -0.0840  0.3785  0.2456
  139SAPE   H7X15182   2.763   6.225  10.052  0.1846 -0.0208 -0.7108
  139SAPE   H7Y15183   2.590   6.187  10.067 -0.6408 -0.7875  1.0892
  139SAPE   C3815184   2.698   6.047   9.950  0.2032  0.6190 -0.4698
  139SAPE   H8X15185   2.629   5.960   9.955  2.5348 -1.4776 -2.0367
  139SAPE   H8Y15186   2.798   6.000   9.932 -0.8654 -0.7276 -3.7957
  139SAPE   C3915187   2.652   6.115   9.820 -0.4059  0.1072  0.0207
  139SAPE   H9X15188   2.721   6.201   9.802 -0.5323  0.0781 -0.6360
  139SAPE   H9Y15189   2.549   6.154   9.831 -0.7850 -0.8097 -0.1886
  139SAPE  C31015190   2.656   6.018   9.701 -0.1278 -0.1525  0.9789
  139SAPE  H10X15191   2.624   5.918   9.737  1.7964 -0.8106  0.9706
  139SAPE  H10Y15192   2.757   5.993   9.661 -0.5637 -0.6602  0.1664
  139SAPE  C31115193   2.570   6.054   9.588  0.5328 -0.0798 -0.1934
  139SAPE  H11X15194   2.598   6.153   9.546  2.3206  0.7664  2.6848
  139SAPE  H11Y15195   2.469   6.069   9.633  0.7747 -0.2737  0.4249
  139SAPE  C31215196   2.555   5.950   9.487  0.2383  0.4523 -0.0765
  139SAPE  H12X15197   2.462   5.960   9.427  1.2215  1.8678 -1.4683
  139SAPE  H12Y15198   2.549   5.856   9.546 -2.2923  0.1634 -0.6784
  139SAPE  C31315199   2.664   5.940   9.378 -0.0845  0.2058  0.3076
  139SAPE  H13X15200   2.750   5.883   9.418 -0.9001  0.0384  1.9368
  139SAPE  H13Y15201   2.697   6.045   9.360  1.9135 -0.4272  0.0541
  139SAPE  C31415202   2.611   5.873   9.245  0.1842 -0.3973  0.4019
  139SAPE  H14X15203   2.533   5.940   9.205  1.2699  2.4076  2.6436
  139SAPE  H14Y15204   2.572   5.772   9.270  0.0306 -0.2315  0.8543
  139SAPE  C31515205   2.731   5.858   9.141 -0.5710  0.1777  0.4518
  139SAPE  H15X15206   2.807   5.786   9.178 -0.7290 -1.1185 -1.5851
  139SAPE  H15Y15207   2.776   5.959   9.135 -2.1173  0.9132  0.6616
  139SAPE  C31615208   2.694   5.809   8.998 -0.3187 -0.5020  0.3284
  139SAPE  H16X15209   2.779   5.763   8.942  0.3233 -1.3027  1.8932
  139SAPE  H16Y15210   2.618   5.736   9.031  0.2708 -0.9553  0.7073
  139SAPE  C31715211   2.629   5.914   8.904  0.0422  0.3071 -0.1708
  139SAPE  H17X15212   2.679   6.013   8.902  1.4144 -0.3719 -1.1293
  139SAPE  H17Y15213   2.530   5.923   8.953 -0.4134 -1.1641 -0.7533
  139SAPE  C31815214   2.598   5.858   8.767  0.4648  0.1108  1.0373
  139SAPE  H18X15215   2.687   5.830   8.707 -0.7676 -0.9381 -0.3776
  139SAPE  H18Y15216   2.533   5.924   8.706  1.0089 -0.4357 -0.1477
  139SAPE  H18Z15217   2.547   5.761   8.784  2.0621 -0.3852  3.7576
  140SAPE     N15218   6.199   1.999  11.016 -0.7568  0.2315  0.0402
  140SAPE   HN115219   6.175   1.932  10.941 -0.7241  2.1287 -1.7696
  140SAPE   HN215220   6.298   1.980  11.043 -0.4960  1.0845 -0.2654
  140SAPE   HN315221   6.139   1.984  11.100 -1.4784 -2.0056 -0.8224
  140SAPE   C1215222   6.205   2.141  10.961 -0.3425 -0.2666 -0.3387
  140SAPE  H12A15223   6.107   2.172  10.919 -1.8429  1.1914  3.6893
  140SAPE  H12B15224   6.279   2.137  10.878 -0.5219  1.0024 -0.5787
  140SAPE   C1115225   6.244   2.240  11.064 -0.9143 -0.0084  0.2185
  140SAPE  H11A15226   6.257   2.339  11.015 -0.8601  0.6862  1.5902
  140SAPE  H11B15227   6.341   2.225  11.115  0.3863  0.4580 -1.9593
  140SAPE     P15228   6.082   2.390  11.181 -0.0324 -0.1008  0.0967
  140SAPE   O1315229   5.960   2.382  11.261 -0.0546  0.1671 -0.2049
  140SAPE   O1415230   6.184   2.477  11.245 -0.0368  0.0280 -0.1878
  140SAPE   O1215231   6.148   2.251  11.165  0.3949  0.0885  0.0205
  140SAPE   O1115232   6.054   2.439  11.030  0.0144  0.0411  0.7258
  140SAPE    C115233   6.008   2.574  11.012 -0.4685 -0.3693 -0.8221
  140SAPE    HA15234   5.897   2.574  11.021 -0.6114 -1.6289 -2.2754
  140SAPE    HB15235   6.054   2.636  11.093 -0.3990  1.4624 -2.2040
  140SAPE    C215236   6.041   2.655  10.875 -0.1852 -0.1161 -0.5658
  140SAPE    HS15237   5.985   2.751  10.872  1.0871  0.6246 -1.3843
  140SAPE   O2115238   6.026   2.584  10.753 -0.0548 -0.1240  0.4031
  140SAPE   C2115239   5.901   2.560  10.728  0.5934 -0.0608 -0.3907
  140SAPE   O2215240   5.807   2.586  10.804 -0.3377  0.3538  0.3173
  140SAPE   C2215241   5.890   2.486  10.593 -0.0829 -0.8562  0.3419
  140SAPE   H2R15242   5.832   2.559  10.533 -0.5175 -1.4675  0.0069
  140SAPE   H2S15243   5.984   2.461  10.539  0.7065  0.9591  0.7863
  140SAPE    C315244   6.196   2.694  10.881  0.2819 -0.4199  0.2134
  140SAPE    HX15245   6.254   2.600  10.897 -0.3343 -1.0475 -1.0606
  140SAPE    HY15246   6.225   2.753  10.970  5.1913 -1.0783 -0.6512
  140SAPE   O3115247   6.231   2.762  10.756 -0.3545 -0.0309 -0.3871
  140SAPE   C3115248   6.206   2.896  10.750  0.3881  0.3943  1.3225
  140SAPE   O3215249   6.163   2.969  10.836 -0.7796  0.5422 -0.0848
  140SAPE   C3215250   6.228   2.935  10.600 -0.3324  0.1359 -0.6209
  140SAPE   H2X15251   6.128   2.962  10.560 -3.3010 -1.4217  4.7571
  140SAPE   H2Y15252   6.278   2.843  10.563 -3.1252 -1.3372 -0.9187
  140SAPE   C2315253   5.783   2.362  10.607 -0.3140 -0.7011  0.2720
  140SAPE   H3R15254   5.683   2.411  10.608 -1.3986 -2.5423 -2.9750
  140SAPE   H3S15255   5.800   2.299  10.697 -0.7148  0.9396  1.5593
  140SAPE   C2415256   5.789   2.266  10.489  0.0958 -0.5551 -0.4878
  140SAPE   H4R15257   5.725   2.178  10.512  0.3009 -0.8893 -1.1467
  140SAPE   H4S15258   5.894   2.232  10.492  0.5584  0.8973  0.8330
  140SAPE   C2515259   5.771   2.324  10.354  0.4565  0.4364 -0.1234
  140SAPE   H5R15260   5.718   2.420  10.349 -4.3626 -1.9411 -0.0684
  140SAPE   C2615261   5.822   2.273  10.241  0.4905 -0.2870 -0.0131
  140SAPE   H6R15262   5.801   2.330  10.149 -0.2816  1.1781  1.0280
  140SAPE   C2715263   5.901   2.145  10.232 -0.2438 -0.6040 -0.0976
  140SAPE   H7R15264   5.846   2.057  10.194  0.9058 -1.5036  0.2775
  140SAPE   H7S15265   5.939   2.107  10.329  0.7742 -0.9784 -0.6338
  140SAPE   C2815266   6.019   2.179  10.142  0.0708  0.2540 -0.4232
  140SAPE   H8R15267   6.105   2.231  10.186 -1.7312  1.4634  1.9364
  140SAPE   C2915268   6.032   2.156  10.006  0.4160 -0.3342 -0.5473
  140SAPE   H9R15269   6.114   2.203   9.951 -0.1783  0.7741 -0.5097
  140SAPE  C21015270   5.931   2.095   9.915  0.3769  0.5878 -0.4617
  140SAPE  H10R15271   5.876   2.157   9.842 -0.8833 -0.2279 -0.2238
  140SAPE  H10S15272   5.857   2.036   9.972  0.5182  1.6003  0.8163
  140SAPE  C21115273   5.990   1.978   9.838  0.0980  0.2221  0.4171
  140SAPE  H11R15274   6.021   1.892   9.900 -0.8457 -0.4659 -0.0365
  140SAPE  C21215275   6.002   1.959   9.705  0.1595 -0.0580 -0.6156
  140SAPE  H12R15276   6.044   1.865   9.665  1.4401  0.1645  0.1595
  140SAPE  C21315277   5.969   2.066   9.599 -0.1939  0.5263  0.1104
  140SAPE  H13R15278   6.063   2.084   9.542 -0.5096  1.4330 -0.1357
  140SAPE  H13S15279   5.941   2.163   9.645 -0.2366 -0.1044  1.4522
  140SAPE  C21415280   5.854   2.024   9.511 -0.4110 -0.7761 -0.1180
  140SAPE  H14R15281   5.751   2.022   9.552 -0.0377  4.3072  1.7287
  140SAPE  C21515282   5.872   1.986   9.390  0.1395 -0.2430  0.3147
  140SAPE  H15R15283   5.779   1.945   9.348 -0.4092  2.7603 -1.6907
  140SAPE  C21615284   6.001   1.981   9.304 -0.2373  0.0552 -0.8548
  140SAPE  H16R15285   6.009   1.895   9.234  2.0738  0.2566 -0.9223
  140SAPE  H16S15286   6.086   1.960   9.373 -0.8990 -0.3246 -0.1444
  140SAPE  C21715287   6.022   2.111   9.229 -0.4097 -0.4803 -0.0822
  140SAPE  H17R15288   6.027   2.193   9.304 -0.9317 -2.3416  2.1186
  140SAPE  H17S15289   5.940   2.131   9.157 -0.2370 -1.2264 -0.5052
  140SAPE  C21815290   6.146   2.099   9.138  0.2249 -0.6477 -0.1491
  140SAPE  H18R15291   6.116   2.038   9.050  0.0033  1.3281 -1.5333
  140SAPE  H18S15292   6.224   2.046   9.195 -0.8286  0.4054  2.4602
  140SAPE  C21915293   6.197   2.229   9.079 -0.2634  0.3302  0.3959
  140SAPE  H19R15294   6.238   2.290   9.162  0.7088 -0.6857  0.6899
  140SAPE  H19S15295   6.110   2.291   9.049  1.1564  1.9742 -0.5096
  140SAPE  C22015296   6.310   2.217   8.971  0.4052  0.4599  0.3313
  140SAPE  H20R15297   6.392   2.145   8.992  1.2071  0.4248 -2.4567
  140SAPE  H20S15298   6.349   2.316   8.939  0.0057  0.9182  1.2331
  140SAPE  H20T15299   6.259   2.177   8.881 -0.0773  2.7059 -0.4528
  140SAPE   C3315300   6.324   3.059  10.600 -1.0528 -0.1402  0.3490
  140SAPE   H3X15301   6.402   3.057  10.679 -1.3781 -1.5773  0.6588
  140SAPE   H3Y15302   6.276   3.159  10.607  2.5734  1.7451  0.5954
  140SAPE   C3415303   6.401   3.061  10.461 -0.6616 -0.3398  0.0345
  140SAPE   H4X15304   6.463   2.969  10.451 -1.0218 -0.8958  2.4238
  140SAPE   H4Y15305   6.474   3.143  10.453  0.8485 -1.5142  1.2187
  140SAPE   C3515306   6.306   3.057  10.335  0.0848 -0.2498 -0.4334
  140SAPE   H5X15307   6.252   3.154  10.343 -0.1389 -0.4976  1.6194
  140SAPE   H5Y15308   6.236   2.971  10.337 -1.4941  1.0155  1.4622
  140SAPE   C3615309   6.385   3.055  10.202 -0.4510 -0.6884 -0.3784
  140SAPE   H6X15310   6.448   2.964  10.200  0.6829  0.0648  0.2940
  140SAPE   H6Y15311   6.461   3.135  10.213 -2.1347  1.2214 -1.8363
  140SAPE   C3715312   6.301   3.083  10.077  0.3378 -0.3255  0.4663
  140SAPE   H7X15313   6.266   3.188  10.073 -1.4809 -0.9080 -0.8928
  140SAPE   H7Y15314   6.211   3.020  10.058  0.1731  0.6516 -2.6305
  140SAPE   C3815315   6.394   3.064   9.958  0.3521 -0.2717  0.3114
  140SAPE   H8X15316   6.427   2.958   9.963 -0.6653 -0.5780  0.7101
  140SAPE   H8Y15317   6.488   3.123   9.964  0.7885 -0.3792 -3.2804
  140SAPE   C3915318   6.312   3.082   9.822 -0.4348  0.2125  1.0828
  140SAPE   H9X15319   6.292   3.189   9.800 -1.4435  0.1196  1.5289
  140SAPE   H9Y15320   6.213   3.035   9.838 -1.5053  1.0498 -2.2686
  140SAPE  C31015321   6.385   3.021   9.702  0.2755 -0.2340  0.4035
  140SAPE  H10X15322   6.406   2.912   9.715 -0.4604 -0.5450 -0.8902
  140SAPE  H10Y15323   6.478   3.082   9.698 -0.4554  1.4342  4.2247
  140SAPE  C31115324   6.313   3.043   9.566 -0.2838 -0.0932  0.4294
  140SAPE  H11X15325   6.286   3.150   9.556  0.1493  0.1995  2.0581
  140SAPE  H11Y15326   6.210   3.001   9.569 -1.2057  2.0715  2.2330
  140SAPE  C31215327   6.397   2.997   9.455 -0.3899  0.1973 -0.2950
  140SAPE  H12X15328   6.427   2.893   9.480 -2.0053 -0.1921  0.1312
  140SAPE  H12Y15329   6.494   3.052   9.450  0.6103 -1.5350 -1.1743
  140SAPE  C31315330   6.324   3.016   9.327  0.4319  0.4049  0.4286
  140SAPE  H13X15331   6.273   3.114   9.324  1.1493  0.7802  0.2082
  140SAPE  H13Y15332   6.232   2.955   9.332  0.9155 -0.3503  0.4218
  140SAPE  C31415333   6.393   2.979   9.196  0.4337  0.1673  0.7759
  140SAPE  H14X15334   6.495   3.023   9.196 -0.4067  3.0572 -5.0781
  140SAPE  H14Y15335   6.346   3.038   9.115  1.3220 -2.7635 -2.0619
  140SAPE  C31515336   6.394   2.831   9.157  0.5063 -0.3180  0.0662
  140SAPE  H15X15337   6.325   2.780   9.228  0.9449 -1.7890 -0.5278
  140SAPE  H15Y15338   6.489   2.780   9.180 -0.3547 -1.0493  2.2391
  140SAPE  C31615339   6.337   2.805   9.015 -0.9604 -1.2730 -0.6385
  140SAPE  H16X15340   6.391   2.871   8.945 -0.8640 -0.2622  0.3661
  140SAPE  H16Y15341   6.229   2.830   9.015 -0.6710  0.0899  0.4607
  140SAPE  C31715342   6.365   2.669   8.953  0.3558 -0.0968  0.0066
  140SAPE  H17X15343   6.333   2.596   9.030 -0.1538  1.4603  1.3247
  140SAPE  H17Y15344   6.472   2.651   8.929  0.0384 -0.0957 -1.4948
  140SAPE  C31815345   6.293   2.640   8.825 -0.1532 -0.2972  0.0684
  140SAPE  H18X15346   6.186   2.669   8.815  0.3093  0.8222 -2.2709
  140SAPE  H18Y15347   6.310   2.532   8.805 -3.7603 -0.9209 -0.2193
  140SAPE  H18Z15348   6.350   2.704   8.754 -0.7670 -1.8743 -1.9246
  141SAPE     N15349   6.690   4.377  11.532  0.1067  0.5976  0.6372
  141SAPE   HN115350   6.587   4.375  11.548 -0.3109 -1.5276 -1.7020
  141SAPE   HN215351   6.731   4.341  11.620  1.1521  0.1554 -0.0148
  141SAPE   HN315352   6.734   4.469  11.511  3.0813 -1.3069 -2.6646
  141SAPE   C1215353   6.705   4.288  11.418 -0.5330 -0.8769  0.9139
  141SAPE  H12A15354   6.676   4.183  11.441 -0.6612 -0.4922  2.6194
  141SAPE  H12B15355   6.812   4.281  11.389 -0.5771  0.1921  0.4428
  141SAPE   C1115356   6.643   4.356  11.296 -0.2502 -0.5382 -0.6504
  141SAPE  H11A15357   6.533   4.359  11.309 -0.2340  0.5636 -0.6281
  141SAPE  H11B15358   6.662   4.298  11.203  0.2416 -2.1881  0.4399
  141SAPE     P15359   6.632   4.583  11.172  0.1387 -0.1898 -0.3277
  141SAPE   O1315360   6.485   4.567  11.185  0.1881  0.2619  0.3055
  141SAPE   O1415361   6.691   4.716  11.195  0.1537  0.1624 -0.0559
  141SAPE   O1215362   6.698   4.488  11.280  0.3848 -0.1099 -0.1881
  141SAPE   O1115363   6.690   4.523  11.039  0.4847  0.2479  0.7171
  141SAPE    C115364   6.825   4.531  11.016 -0.0812 -0.0079  0.3040
  141SAPE    HA15365   6.844   4.636  10.984 -1.3565  0.0812 -0.2052
  141SAPE    HB15366   6.886   4.510  11.107  0.8804  0.6598 -0.1685
  141SAPE    C215367   6.872   4.436  10.902  0.3121 -0.0064 -0.0909
  141SAPE    HS15368   6.966   4.475  10.859  0.7718  1.1054  1.7995
  141SAPE   O2115369   6.778   4.413  10.802  0.3065  0.5120 -0.7506
  141SAPE   C2115370   6.726   4.522  10.738  0.1750  0.5600  0.9918
  141SAPE   O2215371   6.772   4.632  10.743  0.6652 -0.2572 -0.2575
  141SAPE   C2215372   6.595   4.482  10.673  0.0247 -0.2184 -0.1444
  141SAPE   H2R15373   6.598   4.378  10.633  0.3973 -0.5120  0.6225
  141SAPE   H2S15374   6.515   4.501  10.747 -0.8556  1.0132 -1.3693
  141SAPE    C315375   6.908   4.295  10.956 -1.2241 -0.1809  0.1239
  141SAPE    HX15376   6.811   4.242  10.969 -0.3849 -1.7816  0.0959
  141SAPE    HY15377   6.981   4.298  11.039  2.4763  5.1488 -2.6708
  141SAPE   O3115378   6.989   4.222  10.860  0.2613 -0.2732 -0.0243
  141SAPE   C3115379   6.927   4.156  10.757  0.2702 -0.3482  0.3945
  141SAPE   O3215380   6.808   4.149  10.737  0.1325  0.0852  0.1712
  141SAPE   C3215381   7.036   4.087  10.679 -0.1407 -0.3476  0.7880
  141SAPE   H2X15382   7.048   3.991  10.735 -0.8286 -1.0731 -0.2633
  141SAPE   H2Y15383   7.135   4.136  10.691  0.0644 -0.9414  1.6112
  141SAPE   C2315384   6.570   4.566  10.544 -0.5188  0.4548 -0.0693
  141SAPE   H3R15385   6.561   4.674  10.569 -0.3055  0.4947 -0.1593
  141SAPE   H3S15386   6.475   4.529  10.499 -1.0206  0.2519  1.1105
  141SAPE   C2415387   6.684   4.550  10.436 -0.1177 -0.2512 -0.1853
  141SAPE   H4R15388   6.660   4.465  10.369  1.1263 -1.3727  0.7365
  141SAPE   H4S15389   6.779   4.521  10.486 -0.5691 -1.6182 -0.0686
  141SAPE   C2515390   6.707   4.672  10.356 -0.8817  0.7121 -0.2106
  141SAPE   H5R15391   6.790   4.732  10.396  2.1917 -3.7113  0.8212
  141SAPE   C2615392   6.667   4.698  10.232  0.1839  0.3570 -0.5333
  141SAPE   H6R15393   6.682   4.799  10.190 -0.2375 -0.0287 -1.6587
  141SAPE   C2715394   6.583   4.609  10.141  0.2110 -0.7069 -0.2631
  141SAPE   H7R15395   6.497   4.668  10.104  0.3818 -0.6577 -0.5841
  141SAPE   H7S15396   6.547   4.516  10.190  0.3190 -0.6790 -0.1297
  141SAPE   C2815397   6.676   4.569  10.034  0.3489 -0.4094 -0.0100
  141SAPE   H8R15398   6.744   4.486  10.060  0.4941 -0.3347 -0.1537
  141SAPE   C2915399   6.659   4.583   9.903  0.0178 -0.2167  0.6627
  141SAPE   H9R15400   6.734   4.543   9.835  1.0142  0.6614  1.2078
  141SAPE  C21015401   6.552   4.650   9.827  0.3289  0.2968 -0.9390
  141SAPE  H10R15402   6.588   4.664   9.723 -0.8612  0.9200 -1.2811
  141SAPE  H10S15403   6.547   4.751   9.874 -1.2595  0.5155 -1.5163
  141SAPE  C21115404   6.423   4.575   9.814  0.2568  0.8039 -0.5428
  141SAPE  H11R15405   6.419   4.486   9.879 -1.2036  0.5853 -0.9122
  141SAPE  C21215406   6.321   4.594   9.729 -0.0441 -0.2049  0.1890
  141SAPE  H12R15407   6.234   4.527   9.740  0.5973 -1.1403 -0.3523
  141SAPE  C21315408   6.299   4.706   9.624  0.1638 -0.2518 -0.8493
  141SAPE  H13R15409   6.344   4.679   9.526  0.4856  1.2446 -1.1365
  141SAPE  H13S15410   6.369   4.791   9.632 -0.9001  0.6408 -0.8690
  141SAPE  C21415411   6.160   4.760   9.621  0.3194  0.5604  0.7671
  141SAPE  H14R15412   6.104   4.747   9.715  1.9041 -0.1765  1.6489
  141SAPE  C21515413   6.099   4.805   9.510  0.6734 -0.7167 -0.7397
  141SAPE  H15R15414   6.001   4.853   9.523 -0.5270 -3.5341  1.7648
  141SAPE  C21615415   6.156   4.814   9.370 -0.3604 -0.4496 -0.3639
  141SAPE  H16R15416   6.265   4.797   9.380 -0.3701 -0.1861  0.2010
  141SAPE  H16S15417   6.150   4.917   9.328  1.9160  0.6774  1.8550
  141SAPE  C21715418   6.104   4.697   9.286 -0.1616  0.3267  0.3142
  141SAPE  H17R15419   5.994   4.687   9.271  0.2407 -1.8657 -1.7395
  141SAPE  H17S15420   6.123   4.610   9.353  0.7759  0.6093  0.4210
  141SAPE  C21815421   6.168   4.683   9.154  0.9175  0.4845 -0.8586
  141SAPE  H18R15422   6.129   4.588   9.111  0.9999 -0.5250  1.2087
  141SAPE  H18S15423   6.278   4.682   9.171  1.0085  4.2403 -0.3242
  141SAPE  C21915424   6.138   4.797   9.052 -0.0945  0.3095 -0.8998
  141SAPE  H19R15425   6.172   4.892   9.100 -1.5332  0.1560  0.5188
  141SAPE  H19S15426   6.028   4.806   9.041 -0.4599 -0.2913  1.6868
  141SAPE  C22015427   6.207   4.797   8.916  0.6586  0.3601 -0.1426
  141SAPE  H20R15428   6.156   4.718   8.857  1.7503 -1.1040  0.8150
  141SAPE  H20S15429   6.316   4.773   8.913  0.3928 -0.8161 -0.6535
  141SAPE  H20T15430   6.200   4.893   8.861  0.6541  0.5534  0.1909
  141SAPE   C3315431   6.998   4.067  10.527 -0.3058 -1.3055 -0.2738
  141SAPE   H3X15432   6.896   4.023  10.530 -0.9454  0.0415 -1.4018
  141SAPE   H3Y15433   7.062   3.992  10.475  1.4801 -0.9393  1.2558
  141SAPE   C3415434   6.991   4.200  10.453  0.3066 -0.5904  0.3189
  141SAPE   H4X15435   7.096   4.235  10.469  0.8287 -2.8512  2.2792
  141SAPE   H4Y15436   6.924   4.265  10.513 -0.9726 -1.5408 -0.0434
  141SAPE   C3515437   6.967   4.180  10.308  0.0935  0.2617  0.6096
  141SAPE   H5X15438   6.879   4.114  10.289 -0.7174  1.1779  1.0945
  141SAPE   H5Y15439   7.057   4.132  10.265 -0.7455 -0.6582 -0.1804
  141SAPE   C3615440   6.951   4.317  10.233 -0.1555  0.7875 -0.2167
  141SAPE   H6X15441   6.875   4.372  10.294  0.8207  0.3945  1.4183
  141SAPE   H6Y15442   6.892   4.288  10.144 -0.1415  1.4608 -0.4562
  141SAPE   C3715443   7.080   4.400  10.217  0.6239 -0.6884 -0.4993
  141SAPE   H7X15444   7.159   4.335  10.174 -0.0122 -1.8542  0.0703
  141SAPE   H7Y15445   7.111   4.413  10.322 -3.4004 -3.2221  1.2421
  141SAPE   C3815446   7.067   4.530  10.136 -0.2768 -0.0737 -0.1327
  141SAPE   H8X15447   7.152   4.595  10.165 -1.2935  0.0917  2.8151
  141SAPE   H8Y15448   6.974   4.580  10.171 -0.0486 -0.3977  0.9468
  141SAPE   C3915449   7.050   4.499   9.991 -0.4131 -0.2216  0.1047
  141SAPE   H9X15450   6.957   4.439   9.980 -0.6155  0.3586 -1.5865
  141SAPE   H9Y15451   7.138   4.442   9.953  2.4082  3.0860  1.1320
  141SAPE  C31015452   7.035   4.621   9.908  0.4265 -0.5133  0.1031
  141SAPE  H10X15453   7.117   4.696   9.920 -1.5924  2.0630 -1.0874
  141SAPE  H10Y15454   6.947   4.680   9.941  0.9924  0.2558  0.2689
  141SAPE  C31115455   7.035   4.596   9.754 -0.1041  0.5064 -0.2615
  141SAPE  H11X15456   6.947   4.536   9.723  0.2770 -0.3360  0.2452
  141SAPE  H11Y15457   7.128   4.536   9.748 -0.8612 -0.5894 -1.6797
  141SAPE  C31215458   7.053   4.724   9.680 -0.1832  0.2209  0.1546
  141SAPE  H12X15459   7.142   4.779   9.717 -0.8670  1.9031 -0.5937
  141SAPE  H12Y15460   6.962   4.786   9.692  0.5163  1.0699  1.1858
  141SAPE  C31315461   7.087   4.703   9.535  0.0433 -0.0938 -0.5022
  141SAPE  H13X15462   7.105   4.797   9.479  1.2604 -0.3718 -0.6076
  141SAPE  H13Y15463   6.997   4.654   9.492 -2.4697  1.7295  2.2622
  141SAPE  C31415464   7.225   4.629   9.520 -0.1033 -0.0427 -0.4472
  141SAPE  H14X15465   7.203   4.526   9.554  0.0542  0.0810  0.0353
  141SAPE  H14Y15466   7.303   4.683   9.578 -0.7322  0.9950 -0.5390
  141SAPE  C31515467   7.276   4.610   9.382  0.3077  1.3952 -0.1006
  141SAPE  H15X15468   7.191   4.593   9.312 -0.0043 -1.2948  0.8031
  141SAPE  H15Y15469   7.337   4.517   9.379 -1.5850 -0.0648  2.1508
  141SAPE  C31615470   7.357   4.731   9.338  0.2958  0.6181 -0.5087
  141SAPE  H16X15471   7.452   4.750   9.392  0.2101 -1.7016  0.5951
  141SAPE  H16Y15472   7.297   4.822   9.361 -0.7562 -0.4571  1.1815
  141SAPE  C31715473   7.396   4.722   9.187  0.0416  0.3781  0.3650
  141SAPE  H17X15474   7.474   4.800   9.178  0.6059 -0.2911 -0.7274
  141SAPE  H17Y15475   7.305   4.743   9.128 -0.8766  0.1514  1.6491
  141SAPE  C31815476   7.464   4.590   9.140 -0.0290 -0.4692 -0.2008
  141SAPE  H18X15477   7.503   4.605   9.037  0.8266  1.3783  0.3549
  141SAPE  H18Y15478   7.394   4.504   9.145 -1.0738  0.4015  0.6073
  141SAPE  H18Z15479   7.553   4.560   9.200  0.3663 -0.5126 -0.7995
  142SAPE     N15480   1.248   4.266  11.319 -0.1026 -0.2706 -0.1844
  142SAPE   HN115481   1.207   4.254  11.414  0.9952  0.9134  0.4758
  142SAPE   HN215482   1.347   4.235  11.326  0.2558  1.0354  1.1947
  142SAPE   HN315483   1.261   4.369  11.313  0.0112 -0.0848  2.1850
  142SAPE   C1215484   1.168   4.199  11.211  0.3905 -0.0209  0.3006
  142SAPE  H12A15485   1.156   4.092  11.241 -3.4436  0.6880  1.8109
  142SAPE  H12B15486   1.228   4.203  11.117 -2.7314 -1.5733 -1.9285
  142SAPE   C1115487   1.036   4.266  11.194 -0.1066 -0.2904  0.3869
  142SAPE  H11A15488   0.979   4.209  11.117 -0.3275 -1.1939  1.1993
  142SAPE  H11B15489   1.045   4.369  11.154 -2.2588 -0.9463 -2.0790
  142SAPE     P15490   0.860   4.165  11.363  0.2918  0.1516  0.0399
  142SAPE   O1315491   0.911   4.023  11.351 -0.1691 -0.0903 -0.0319
  142SAPE   O1415492   0.792   4.203  11.488  0.4878  0.5001 -0.2604
  142SAPE   O1215493   0.975   4.273  11.324 -0.1295 -0.0087 -0.6572
  142SAPE   O1115494   0.747   4.181  11.253  0.2986 -0.2476 -0.3043
  142SAPE    C115495   0.709   4.318  11.226 -0.7953  0.6297  0.4180
  142SAPE    HA15496   0.627   4.351  11.293 -0.4044  1.1760  0.6318
  142SAPE    HB15497   0.787   4.396  11.240 -3.1988  3.3513 -0.1741
  142SAPE    C215498   0.663   4.348  11.084  0.0185  0.7472 -0.4799
  142SAPE    HS15499   0.556   4.319  11.081  0.1200  0.3912 -0.8586
  142SAPE   O2115500   0.747   4.277  10.995  0.2125 -0.0901  0.9469
  142SAPE   C2115501   0.692   4.238  10.880 -0.2559  0.5647  0.7382
  142SAPE   O2215502   0.572   4.235  10.852 -0.3649 -0.0692  0.1011
  142SAPE   C2215503   0.799   4.209  10.775 -0.0202  0.1609 -0.9012
  142SAPE   H2R15504   0.864   4.300  10.775  0.5159 -0.2084 -0.1763
  142SAPE   H2S15505   0.854   4.124  10.820 -1.9063 -0.5639  0.1137
  142SAPE    C315506   0.661   4.500  11.050 -0.0558  0.0068  0.2100
  142SAPE    HX15507   0.761   4.524  11.006 -1.4139  0.0247 -3.1901
  142SAPE    HY15508   0.635   4.553  11.144 -2.7865  0.1542 -0.5438
  142SAPE   O3115509   0.557   4.542  10.963  0.3656  0.1063  0.1223
  142SAPE   C3115510   0.589   4.606  10.857 -0.3613  0.0547  0.0715
  142SAPE   O3215511   0.706   4.632  10.821  0.5732 -0.2836 -0.3795
  142SAPE   C3215512   0.454   4.636  10.781  0.3991 -0.3354 -0.4386
  142SAPE   H2X15513   0.402   4.710  10.847  1.9971 -0.9895  1.6908
  142SAPE   H2Y15514   0.390   4.546  10.774  1.9644 -1.7522  1.8255
  142SAPE   C2315515   0.746   4.163  10.631  0.1409  0.0125 -0.7157
  142SAPE   H3R15516   0.694   4.066  10.643 -0.3941  0.5864  2.6784
  142SAPE   H3S15517   0.843   4.142  10.581  0.2303 -1.3191 -0.0374
  142SAPE   C2415518   0.666   4.270  10.562  0.0980 -0.6522  0.2907
  142SAPE   H4R15519   0.574   4.295  10.620  0.0425  2.6220 -0.9534
  142SAPE   H4S15520   0.621   4.225  10.471 -0.2290 -2.2937  1.2332
  142SAPE   C2515521   0.744   4.402  10.545  0.8015 -0.4257  0.7808
  142SAPE   H5R15522   0.710   4.492  10.599 -1.4356 -0.1725 -0.9149
  142SAPE   C2615523   0.822   4.423  10.446 -0.4965  0.0857  0.7294
  142SAPE   H6R15524   0.871   4.522  10.448  1.4144 -0.8148  0.9519
  142SAPE   C2715525   0.856   4.327  10.333  0.0267 -0.0842  0.0865
  142SAPE   H7R15526   0.810   4.379  10.247  1.0890  2.0974  0.7696
  142SAPE   H7S15527   0.797   4.233  10.345 -1.4746  1.0647  2.6132
  142SAPE   C2815528   0.996   4.287  10.310 -0.1416 -0.1784  0.1372
  142SAPE   H8R15529   1.077   4.315  10.378  0.8131  0.2626 -1.1536
  142SAPE   C2915530   1.036   4.201  10.219 -0.0046  1.2443  0.7136
  142SAPE   H9R15531   1.143   4.180  10.206 -0.6548 -0.9413 -2.1733
  142SAPE  C21015532   0.943   4.139  10.116 -0.1043  0.4628 -0.4995
  142SAPE  H10R15533   0.868   4.086  10.178  0.5831  0.0956  0.0313
  142SAPE  H10S15534   1.000   4.061  10.061 -0.3123  1.0187 -1.5287
  142SAPE  C21115535   0.878   4.229  10.014 -0.3381 -0.6148  0.7091
  142SAPE  H11R15536   0.930   4.325   9.999 -2.3831  0.1839 -2.2420
  142SAPE  C21215537   0.759   4.212   9.947 -0.5693 -0.8660 -0.8983
  142SAPE  H12R15538   0.726   4.277   9.865 -0.2172 -2.5772 -2.4626
  142SAPE  C21315539   0.667   4.096   9.956 -0.0350 -0.0055 -0.0314
  142SAPE  H13R15540   0.702   4.013  10.021  0.0540 -1.1066 -1.4475
  142SAPE  H13S15541   0.645   4.064   9.852  0.7854  1.0813 -0.5551
  142SAPE  C21415542   0.541   4.143  10.013  0.1601  0.2864  0.1078
  142SAPE  H14R15543   0.554   4.188  10.112  0.3386  1.2138 -0.3334
  142SAPE  C21515544   0.413   4.144   9.964 -0.5313  1.2552  0.1915
  142SAPE  H15R15545   0.328   4.159  10.033 -0.8505 -3.0746  1.0350
  142SAPE  C21615546   0.380   4.096   9.816  1.0095  0.1296 -0.0915
  142SAPE  H16R15547   0.272   4.071   9.809  1.4181 -1.5345 -0.8293
  142SAPE  H16S15548   0.444   4.008   9.795  0.4422 -0.6691  1.3405
  142SAPE  C21715549   0.418   4.198   9.702 -0.4680  0.2650 -1.0432
  142SAPE  H17R15550   0.525   4.227   9.704 -0.5034  0.3481 -0.1999
  142SAPE  H17S15551   0.361   4.293   9.709 -2.3955 -0.6468 -3.0210
  142SAPE  C21815552   0.371   4.120   9.572 -0.0050 -0.4456 -0.0523
  142SAPE  H18R15553   0.266   4.085   9.583 -0.0013 -0.0245  1.7840
  142SAPE  H18S15554   0.439   4.033   9.559  1.4304  0.8751 -1.9235
  142SAPE  C21915555   0.383   4.202   9.443 -0.7090  0.0986  0.0477
  142SAPE  H19R15556   0.488   4.227   9.419 -0.9160  0.3148 -0.6755
  142SAPE  H19S15557   0.346   4.305   9.463  1.8385  1.1984 -0.4607
  142SAPE  C22015558   0.306   4.142   9.318 -0.0009 -0.6754  0.0783
  142SAPE  H20R15559   0.197   4.131   9.339 -0.2420  0.2598 -0.6016
  142SAPE  H20S15560   0.340   4.038   9.301 -2.0745 -1.3876  0.0025
  142SAPE  H20T15561   0.305   4.213   9.233 -3.6066 -0.6732 -0.0395
  142SAPE   C3315562   0.486   4.699  10.646 -0.9355  0.4710 -0.5721
  142SAPE   H3X15563   0.573   4.654  10.594  1.5447  3.2314  0.8516
  142SAPE   H3Y15564   0.518   4.805  10.654  0.4973  0.2120 -2.2196
  142SAPE   C3415565   0.379   4.683  10.551 -0.4330 -0.0777 -0.0740
  142SAPE   H4X15566   0.279   4.717  10.586  0.3082  1.4055  0.7080
  142SAPE   H4Y15567   0.368   4.582  10.507  1.1720  0.2718 -1.4104
  142SAPE   C3515568   0.399   4.769  10.419 -0.5341 -0.3705  0.1265
  142SAPE   H5X15569   0.333   4.716  10.348 -0.9508  0.7281 -0.3232
  142SAPE   H5Y15570   0.502   4.754  10.379 -0.5298  0.9503 -0.4194
  142SAPE   C3615571   0.366   4.921  10.423 -0.5061  0.9292  0.0562
  142SAPE   H6X15572   0.448   4.963  10.484 -2.0027  2.2237  1.2644
  142SAPE   H6Y15573   0.267   4.942  10.470 -1.7688  0.8619 -2.3870
  142SAPE   C3715574   0.345   4.985  10.286 -0.2165 -0.6296  0.4383
  142SAPE   H7X15575   0.435   4.959  10.227 -0.6851 -1.2240 -0.0266
  142SAPE   H7Y15576   0.334   5.095  10.299  1.0335 -0.3683 -0.5393
  142SAPE   C3815577   0.223   4.945  10.205  0.2006  0.3080  0.3006
  142SAPE   H8X15578   0.129   4.977  10.254  1.8754  1.2229  3.1308
  142SAPE   H8Y15579   0.208   4.835  10.195  0.4971  0.3139 -0.3250
  142SAPE   C3915580   0.223   5.005  10.063 -0.3557  0.1905 -0.4886
  142SAPE   H9X15581   0.297   4.948  10.001 -1.1957  0.3119 -1.6374
  142SAPE   H9Y15582   0.269   5.103  10.087 -1.7431  0.7573 -0.0701
  142SAPE  C31015583   0.088   5.030  10.000 -0.3301 -0.7476 -0.0281
  142SAPE  H10X15584   0.030   5.094  10.069  1.1201  2.2659 -1.4017
  142SAPE  H10Y15585   0.038   4.932   9.984  1.7918 -1.6674 -1.5769
  142SAPE  C31115586   0.091   5.112   9.876  0.6943 -0.2376 -0.3033
  142SAPE  H11X15587   0.135   5.209   9.908  0.3377  0.2976 -1.4013
  142SAPE  H11Y15588  -0.015   5.130   9.851  0.0056  1.4223  3.1153
  142SAPE  C31215589   0.156   5.051   9.757  0.3000  0.9135  0.3940
  142SAPE  H12X15590   0.116   4.951   9.729  3.6180  0.0787 -2.0371
  142SAPE  H12Y15591   0.263   5.027   9.774  0.8911  1.5284 -2.0522
  142SAPE  C31315592   0.154   5.141   9.629  0.2984 -0.7363 -0.0734
  142SAPE  H13X15593   0.200   5.239   9.656  0.9286 -1.1142  0.2710
  142SAPE  H13Y15594   0.050   5.169   9.605  0.8545  2.4791  0.8258
  142SAPE  C31415595   0.224   5.078   9.512  0.5433 -0.8578  0.1265
  142SAPE  H14X15596   0.180   4.979   9.487 -0.4485 -0.2582 -0.5441
  142SAPE  H14Y15597   0.330   5.063   9.543  0.3412 -1.0811  0.7389
  142SAPE  C31515598   0.196   5.170   9.391 -0.0166  0.1148 -0.7808
  142SAPE  H15X15599   0.253   5.262   9.415  0.2279  0.0569 -1.1264
  142SAPE  H15Y15600   0.091   5.205   9.392 -0.1434 -0.2590 -0.8999
  142SAPE  C31615601   0.246   5.115   9.257 -0.0533 -0.1824 -0.0405
  142SAPE  H16X15602   0.180   5.028   9.236  0.0301 -0.3784  0.4947
  142SAPE  H16Y15603   0.341   5.059   9.263 -0.0677 -0.0912  1.4972
  142SAPE  C31715604   0.242   5.222   9.149 -0.0632 -0.3819  0.4711
  142SAPE  H17X15605   0.303   5.308   9.185 -0.4275  0.8509 -1.6716
  142SAPE  H17Y15606   0.139   5.260   9.134 -0.0954 -0.4847  0.4312
  142SAPE  C31815607   0.296   5.173   9.010 -0.2451 -0.2364 -0.2482
  142SAPE  H18X15608   0.227   5.111   8.950  1.2853 -0.5836 -1.7203
  142SAPE  H18Y15609   0.388   5.117   9.036 -0.5741 -0.5873  0.1884
  142SAPE  H18Z15610   0.336   5.254   8.946  0.3136 -0.8311 -0.6628
  143SAPE     N15611   4.539   3.075  11.299 -0.0385 -0.1035  0.0482
  143SAPE   HN115612   4.596   3.072  11.213 -0.5729 -0.6465 -0.2965
  143SAPE   HN215613   4.552   2.982  11.345 -2.2693 -0.6332 -0.3094
  143SAPE   HN315614   4.439   3.069  11.271  0.0587  0.5302 -0.4336
  143SAPE   C1215615   4.567   3.197  11.383 -0.0105  0.2326  0.0700
  143SAPE  H12A15616   4.675   3.203  11.408  0.6581 -3.4252 -1.3817
  143SAPE  H12B15617   4.497   3.197  11.470 -0.2758 -1.1816 -0.1161
  143SAPE   C1115618   4.529   3.321  11.293 -0.4404  0.7486 -0.2769
  143SAPE  H11A15619   4.598   3.333  11.208  1.4430  1.1363  1.2269
  143SAPE  H11B15620   4.539   3.410  11.359 -0.1908  0.1184  0.5583
  143SAPE     P15621   4.273   3.387  11.293 -0.0200 -0.3681  0.4283
  143SAPE   O1315622   4.215   3.309  11.403  0.2159  0.4552 -0.5101
  143SAPE   O1415623   4.314   3.527  11.312 -0.9508 -0.3948  0.3922
  143SAPE   O1215624   4.401   3.311  11.237  0.8470 -0.0294 -0.1800
  143SAPE   O1115625   4.166   3.379  11.167 -0.1070  0.2467  0.0596
  143SAPE    C115626   4.111   3.253  11.133  0.1993 -0.6210 -0.2003
  143SAPE    HA15627   4.182   3.168  11.129 -0.9641 -1.8871  2.7706
  143SAPE    HB15628   4.036   3.213  11.205  0.8993 -1.7160 -0.0503
  143SAPE    C215629   4.042   3.254  10.994  0.5651 -0.4098  0.1129
  143SAPE    HS15630   4.127   3.270  10.924 -0.6971  0.1385 -1.3406
  143SAPE   O2115631   3.942   3.360  10.990 -0.1101 -0.0764  0.0296
  143SAPE   C2115632   3.932   3.427  10.869 -0.5529 -0.3896  0.6759
  143SAPE   O2215633   4.003   3.403  10.775 -0.0042 -0.1384  0.5294
  143SAPE   C2215634   3.827   3.531  10.878 -0.0354 -0.1156  0.4595
  143SAPE   H2R15635   3.836   3.570  10.982  2.9004  1.3569 -0.2179
  143SAPE   H2S15636   3.856   3.617  10.815  3.1248 -0.3267  1.4255
  143SAPE    C315637   3.983   3.116  10.959  0.8393  0.2141 -1.0073
  143SAPE    HX15638   3.918   3.079  11.042  3.5593 -3.4717 -0.2559
  143SAPE    HY15639   4.065   3.041  10.959 -0.2537 -1.0439  0.4626
  143SAPE   O3115640   3.902   3.124  10.839 -0.2760  0.5551  0.0670
  143SAPE   C3115641   3.986   3.094  10.734  1.0649  0.0487 -0.0792
  143SAPE   O3215642   4.105   3.089  10.746  0.3250 -0.3425 -0.7008
  143SAPE   C3215643   3.904   3.081  10.605  0.1537  0.2614 -0.0341
  143SAPE   H2X15644   3.837   3.169  10.604 -1.7971 -1.0205  3.1286
  143SAPE   H2Y15645   3.848   2.985  10.613 -1.7231  1.0599 -2.4692
  143SAPE   C2315646   3.684   3.472  10.848 -0.0344 -0.5542 -0.2184
  143SAPE   H3R15647   3.615   3.558  10.836 -0.5971 -0.7218  1.5482
  143SAPE   H3S15648   3.647   3.422  10.939  1.7523  2.1994  2.2058
  143SAPE   C2415649   3.679   3.389  10.719  0.0707  0.0096 -0.5360
  143SAPE   H4R15650   3.577   3.370  10.680 -0.6648  0.0721  1.2954
  143SAPE   H4S15651   3.718   3.288  10.744 -1.3095 -0.0592  1.5874
  143SAPE   C2515652   3.739   3.459  10.605 -0.4436 -0.0018  0.8315
  143SAPE   H5R15653   3.846   3.441  10.585  0.1174  1.1938  2.5416
  143SAPE   C2615654   3.677   3.540  10.518 -0.9437 -0.1284 -0.0287
  143SAPE   H6R15655   3.737   3.611  10.461 -1.2286  0.7120  0.6986
  143SAPE   C2715656   3.529   3.572  10.534  0.1519  0.4702  0.1858
  143SAPE   H7R15657   3.510   3.680  10.512 -0.4305  0.1525 -0.9143
  143SAPE   H7S15658   3.483   3.558  10.634  0.3371  1.8078  0.4775
  143SAPE   C2815659   3.452   3.513  10.418 -0.3495 -0.0665 -0.3982
  143SAPE   H8R15660   3.388   3.431  10.455 -1.2836  0.0208 -1.7491
  143SAPE   C2915661   3.453   3.542  10.285 -0.6313  0.3351 -0.0374
  143SAPE   H9R15662   3.386   3.483  10.221  0.0733 -2.5797  1.6781
  143SAPE  C21015663   3.537   3.645  10.209 -0.4317  0.2296 -0.3440
  143SAPE  H10R15664   3.613   3.695  10.272  1.3817  0.4491 -2.5789
  143SAPE  H10S15665   3.473   3.726  10.167 -1.8334 -0.4889  0.3457
  143SAPE  C21115666   3.619   3.580  10.109  0.5549  0.6657 -0.2386
  143SAPE  H11R15667   3.688   3.511  10.161 -0.2350 -1.2120 -1.5699
  143SAPE  C21215668   3.629   3.605   9.979  0.1102 -0.4540 -0.2163
  143SAPE  H12R15669   3.701   3.555   9.912  0.5267  2.2669 -1.9520
  143SAPE  C21315670   3.546   3.709   9.906 -0.2632  0.0926  0.0126
  143SAPE  H13R15671   3.608   3.790   9.863  1.0806 -1.1091 -0.3794
  143SAPE  H13S15672   3.469   3.753   9.973 -0.3820  0.5112 -0.3933
  143SAPE  C21415673   3.459   3.640   9.811 -0.4809 -0.2177 -0.0058
  143SAPE  H14R15674   3.362   3.609   9.853 -0.3508 -2.2064 -1.0347
  143SAPE  C21515675   3.477   3.617   9.686 -0.5662 -0.4844  0.0978
  143SAPE  H15R15676   3.393   3.562   9.639 -0.4558 -0.4029 -0.1984
  143SAPE  C21615677   3.602   3.649   9.602  0.0233 -0.0078  0.2922
  143SAPE  H16R15678   3.629   3.561   9.540  1.1984 -0.1034  0.9107
  143SAPE  H16S15679   3.689   3.673   9.667 -0.2741 -1.3943  1.2451
  143SAPE  C21715680   3.580   3.768   9.507  0.7204  0.0558  0.1260
  143SAPE  H17R15681   3.580   3.863   9.565  0.1936  0.1411 -0.0125
  143SAPE  H17S15682   3.475   3.760   9.471  0.4612 -0.0968  0.8841
  143SAPE  C21815683   3.673   3.764   9.385 -0.5102 -0.0413  0.9949
  143SAPE  H18R15684   3.657   3.663   9.341 -4.3529  0.8156  0.0612
  143SAPE  H18S15685   3.779   3.785   9.410  0.9497 -3.6642 -1.4201
  143SAPE  C21915686   3.633   3.849   9.266  0.8459 -0.8644  0.1481
  143SAPE  H19R15687   3.723   3.873   9.206 -0.0578  4.3724  0.3873
  143SAPE  H19S15688   3.589   3.948   9.293 -1.7785 -2.1307  0.8667
  143SAPE  C22015689   3.539   3.779   9.166  0.2634  0.4550  1.0213
  143SAPE  H20R15690   3.454   3.725   9.213 -1.9646  1.5671 -1.4847
  143SAPE  H20S15691   3.589   3.707   9.098 -3.3698 -2.7496  1.3971
  143SAPE  H20T15692   3.489   3.852   9.098  1.4868  0.4366  0.0698
  143SAPE   C3315693   3.992   3.084  10.482  0.0873  0.1472  0.4083
  143SAPE   H3X15694   4.067   3.002  10.485 -1.3313 -1.4164 -2.8268
  143SAPE   H3Y15695   4.051   3.178  10.475  2.2551 -1.1706 -0.2455
  143SAPE   C3415696   3.923   3.067  10.345  0.1454 -0.3718 -0.4185
  143SAPE   H4X15697   3.818   3.105  10.338 -0.0763 -1.2213 -3.3650
  143SAPE   H4Y15698   3.919   2.963  10.307  0.4959 -0.2169 -0.8998
  143SAPE   C3515699   3.991   3.146  10.230 -0.1467  0.2379 -0.3214
  143SAPE   H5X15700   4.099   3.120  10.227  0.1853  1.3356  1.0308
  143SAPE   H5Y15701   3.981   3.255  10.245  0.1121  0.4957 -1.8365
  143SAPE   C3615702   3.937   3.107  10.098  0.7536  0.9372  0.3889
  143SAPE   H6X15703   3.827   3.091  10.090  0.8456  0.4990 -0.0203
  143SAPE   H6Y15704   3.970   3.001  10.088  0.5862  0.6942  2.0424
  143SAPE   C3715705   3.980   3.203   9.978  0.1036 -0.6455  0.1121
  143SAPE   H7X15706   4.091   3.213   9.978  0.0606 -0.1743 -0.4531
  143SAPE   H7Y15707   3.926   3.299   9.993 -0.6640 -0.8698 -1.1324
  143SAPE   C3815708   3.935   3.145   9.841 -0.1578 -0.2881  0.7059
  143SAPE   H8X15709   3.825   3.158   9.832 -0.2568 -1.1085  0.6757
  143SAPE   H8Y15710   3.976   3.042   9.835  1.9074  0.3638  2.1654
  143SAPE   C3915711   3.999   3.224   9.724 -0.0654  0.3474 -0.4144
  143SAPE   H9X15712   4.107   3.201   9.709 -0.1914 -0.9124  0.4636
  143SAPE   H9Y15713   4.003   3.334   9.734 -0.8379  0.3765 -0.3585
  143SAPE  C31015714   3.934   3.188   9.592 -0.2013  0.7638 -0.5179
  143SAPE  H10X15715   3.824   3.189   9.610  0.0047 -1.2715  1.1802
  143SAPE  H10Y15716   3.958   3.086   9.557 -2.1780 -0.0921  0.4550
  143SAPE  C31115717   3.964   3.282   9.478  0.5874 -0.0838  0.0345
  143SAPE  H11X15718   4.074   3.289   9.469  0.4991 -1.2369 -2.9052
  143SAPE  H11Y15719   3.923   3.383   9.502 -0.7475 -0.2473 -1.4250
  143SAPE  C31215720   3.919   3.245   9.333 -0.1062 -0.6941 -0.0031
  143SAPE  H12X15721   3.809   3.231   9.333 -0.0997 -0.7410 -0.6398
  143SAPE  H12Y15722   3.961   3.144   9.313 -0.9616 -0.6568 -2.2445
  143SAPE  C31315723   3.978   3.331   9.223  0.7160 -0.9667 -0.3549
  143SAPE  H13X15724   3.925   3.297   9.132  2.1429 -0.9208 -1.2451
  143SAPE  H13Y15725   4.087   3.310   9.219  1.1166  0.9781 -0.4590
  143SAPE  C31415726   3.952   3.490   9.228 -0.1060  0.5756 -0.0523
  143SAPE  H14X15727   3.962   3.530   9.331 -0.1277 -0.6248  0.4402
  143SAPE  H14Y15728   3.849   3.516   9.195 -0.2789  0.3359  0.2838
  143SAPE  C31515729   4.048   3.551   9.115  0.7478  0.4911  0.2316
  143SAPE  H15X15730   4.037   3.505   9.014  2.4527 -1.0192  0.6789
  143SAPE  H15Y15731   4.142   3.511   9.159 -0.0578  0.4968  2.0669
  143SAPE  C31615732   4.053   3.705   9.104  0.6683 -0.7103  0.0609
  143SAPE  H16X15733   4.151   3.728   9.057 -0.2575  1.2573 -1.0265
  143SAPE  H16Y15734   4.041   3.751   9.205 -1.0974 -1.3474  0.1842
  143SAPE  C31715735   3.948   3.755   9.005  0.4142  0.6834  0.1486
  143SAPE  H17X15736   3.851   3.723   9.049  0.5132  2.1730  1.5471
  143SAPE  H17Y15737   3.969   3.705   8.909 -0.4261 -0.0751  0.3482
  143SAPE  C31815738   3.970   3.909   8.994 -0.0140 -0.1796 -0.2544
  143SAPE  H18X15739   3.938   3.959   9.088  2.4532  2.8546 -0.8522
  143SAPE  H18Y15740   3.909   3.951   8.912 -1.7332  0.2730  1.1937
  143SAPE  H18Z15741   4.076   3.941   8.986  0.1992 -1.0297 -0.9889
  144SAPE     N15742   6.325   1.510  11.190 -0.5934 -0.4095 -0.6367
  144SAPE   HN115743   6.352   1.412  11.170  0.7369  0.0424 -1.1937
  144SAPE   HN215744   6.272   1.551  11.111 -0.3691  1.7608  0.2634
  144SAPE   HN315745   6.405   1.575  11.208  0.4727 -1.3282 -1.8415
  144SAPE   C1215746   6.226   1.521  11.305  0.3196 -0.0050  0.3086
  144SAPE  H12A15747   6.283   1.492  11.395 -1.2278  0.4874  1.4916
  144SAPE  H12B15748   6.150   1.440  11.294 -1.5627  1.7867 -0.3872
  144SAPE   C1115749   6.157   1.662  11.306 -0.2328  0.5206  0.2278
  144SAPE  H11A15750   6.233   1.743  11.307  2.0361 -1.4986  1.1826
  144SAPE  H11B15751   6.115   1.682  11.407 -0.7663  0.3344  0.0447
  144SAPE     P15752   5.949   1.789  11.208  0.1580  0.1208  0.1126
  144SAPE   O1315753   5.859   1.768  11.328  0.1724 -0.6524  0.0086
  144SAPE   O1415754   6.021   1.919  11.191 -0.2111  0.1436  0.0332
  144SAPE   O1215755   6.055   1.666  11.210  0.6493  0.2895 -0.1968
  144SAPE   O1115756   5.868   1.773  11.077 -0.2927  0.4621  0.6312
  144SAPE    C115757   5.852   1.640  11.019  0.6189 -1.0799  0.1727
  144SAPE    HA15758   5.863   1.557  11.092  0.6412 -1.4912 -0.2843
  144SAPE    HB15759   5.749   1.629  10.980  0.3597  0.8499  0.2613
  144SAPE    C215760   5.951   1.631  10.906  0.2663 -0.2943  0.6387
  144SAPE    HS15761   6.038   1.688  10.945  0.0329  0.2092  0.4260
  144SAPE   O2115762   5.907   1.693  10.783 -0.4917 -0.1710  0.1893
  144SAPE   C2115763   5.958   1.806  10.757  0.0892 -0.8373  0.8771
  144SAPE   O2215764   6.036   1.873  10.824 -0.2561  0.1544 -1.0284
  144SAPE   C2215765   5.921   1.846  10.612 -0.1667 -0.0680  0.3406
  144SAPE   H2R15766   5.871   1.764  10.555  1.2619 -1.0808  0.4766
  144SAPE   H2S15767   5.850   1.930  10.624 -2.1811 -1.9511  2.9216
  144SAPE    C315768   5.998   1.489  10.872  0.2359 -0.3172  0.2564
  144SAPE    HX15769   5.916   1.432  10.825 -0.4642  1.1318 -0.3429
  144SAPE    HY15770   6.038   1.432  10.959  1.0498 -0.5125 -0.2299
  144SAPE   O3115771   6.098   1.481  10.769 -0.1878  0.0729 -0.0103
  144SAPE   C3115772   6.232   1.516  10.811 -0.3559  0.0695  0.3969
  144SAPE   O3215773   6.256   1.551  10.922 -0.8142 -0.0091 -0.4326
  144SAPE   C3215774   6.334   1.522  10.692 -0.3899  0.9878 -0.1338
  144SAPE   H2X15775   6.272   1.514  10.600 -1.5061  1.1215  0.5789
  144SAPE   H2Y15776   6.404   1.437  10.706 -0.8635  0.6774  0.3994
  144SAPE   C2315777   6.042   1.871  10.529 -0.8489 -0.6776 -0.2284
  144SAPE   H3R15778   6.121   1.944  10.556 -0.0879 -1.4067 -0.4158
  144SAPE   H3S15779   6.001   1.913  10.435  0.6848 -0.0211 -0.6365
  144SAPE   C2415780   6.119   1.739  10.500 -0.0899  0.3733  0.4044
  144SAPE   H4R15781   6.168   1.712  10.597 -2.5925 -0.9436  1.4029
  144SAPE   H4S15782   6.207   1.758  10.436 -0.4106 -0.4125 -0.2905
  144SAPE   C2515783   6.057   1.605  10.456  0.8516 -0.2841  0.0038
  144SAPE   H5R15784   6.036   1.533  10.536 -0.6408  1.1742  1.0098
  144SAPE   C2615785   6.021   1.575  10.327  0.1548 -0.0878  1.3019
  144SAPE   H6R15786   5.993   1.471  10.307  2.2799 -1.0797  3.0235
  144SAPE   C2715787   6.034   1.663  10.199  0.7479  0.4070 -0.6783
  144SAPE   H7R15788   6.142   1.674  10.175  0.7951 -3.2876 -2.9057
  144SAPE   H7S15789   5.988   1.762  10.221 -4.1103 -1.3046 -1.8833
  144SAPE   C2815790   5.952   1.607  10.082  0.4860  0.0130 -0.2360
  144SAPE   H8R15791   5.848   1.642  10.071  0.4103 -0.2301 -0.2912
  144SAPE   C2915792   5.999   1.542   9.973 -0.0815  0.2478 -0.3701
  144SAPE   H9R15793   5.923   1.523   9.896 -1.5857 -2.2121  1.5822
  144SAPE  C21015794   6.136   1.505   9.929  0.0255  0.3737  0.3297
  144SAPE  H10R15795   6.210   1.531  10.007  0.8027  1.5588 -0.7542
  144SAPE  H10S15796   6.160   1.565   9.838 -1.0619 -1.0997 -1.0033
  144SAPE  C21115797   6.158   1.356   9.924  0.0016  0.4478 -0.5817
  144SAPE  H11R15798   6.112   1.291  10.000 -0.5836 -0.8162 -1.9878
  144SAPE  C21215799   6.230   1.282   9.837  0.3483 -0.2562 -0.0683
  144SAPE  H12R15800   6.217   1.173   9.847  2.3091 -0.4277  1.3439
  144SAPE  C21315801   6.299   1.342   9.720  0.4917 -0.7585 -0.5700
  144SAPE  H13R15802   6.307   1.451   9.742  0.4598 -0.9719  0.5537
  144SAPE  H13S15803   6.225   1.335   9.637 -0.6301 -3.4509  0.5676
  144SAPE  C21415804   6.429   1.288   9.667  0.9435  0.3518 -0.6973
  144SAPE  H14R15805   6.428   1.201   9.600 -0.9713 -0.4202  0.2577
  144SAPE  C21515806   6.545   1.324   9.715 -0.7205 -0.3101  0.8702
  144SAPE  H15R15807   6.640   1.290   9.670 -1.0106  0.9062 -0.7677
  144SAPE  C21615808   6.566   1.433   9.820 -0.1894  0.3280  0.4369
  144SAPE  H16R15809   6.518   1.406   9.916 -2.3524 -3.1130 -1.4120
  144SAPE  H16S15810   6.519   1.527   9.786 -0.4067 -0.3628 -1.2593
  144SAPE  C21715811   6.709   1.481   9.855  0.4221  0.0623  0.0795
  144SAPE  H17R15812   6.683   1.561   9.927 -0.9601 -0.6451  0.4107
  144SAPE  H17S15813   6.761   1.529   9.770  0.0017  0.1452 -0.1330
  144SAPE  C21815814   6.806   1.380   9.928  0.2750 -0.2476  0.4456
  144SAPE  H18R15815   6.806   1.292   9.860  2.3092  0.4549 -0.5655
  144SAPE  H18S15816   6.751   1.357  10.022 -2.2055 -0.4387 -0.9604
  144SAPE  C21915817   6.950   1.444   9.944 -0.0165  0.2435 -0.5393
  144SAPE  H19R15818   7.016   1.430   9.856  1.0950  1.0408  0.1428
  144SAPE  H19S15819   6.983   1.368  10.019 -5.1828 -1.4034  0.4501
  144SAPE  C22015820   6.970   1.591   9.996  0.4450 -0.1649 -0.3851
  144SAPE  H20R15821   6.938   1.660   9.916  0.9783  0.5743  0.0216
  144SAPE  H20S15822   7.078   1.608  10.016  1.0916  0.5499 -3.8813
  144SAPE  H20T15823   6.913   1.608  10.091 -0.5329 -0.0640 -0.9752
  144SAPE   C3315824   6.423   1.648  10.699 -0.2889  0.2738  0.2094
  144SAPE   H3X15825   6.474   1.648  10.798  1.1349  0.7772 -0.4919
  144SAPE   H3Y15826   6.362   1.737  10.674  1.1846  1.2240 -0.1387
  144SAPE   C3415827   6.547   1.630  10.607 -0.3735  0.5726 -0.5792
  144SAPE   H4X15828   6.611   1.550  10.650 -1.5026  0.4055  0.9171
  144SAPE   H4Y15829   6.603   1.725  10.613  1.2340 -0.3978  0.3518
  144SAPE   C3515830   6.514   1.597  10.460 -0.2793  0.3166  0.0403
  144SAPE   H5X15831   6.435   1.665  10.422  0.1934 -0.0687 -1.7155
  144SAPE   H5Y15832   6.472   1.495  10.448  1.0776 -0.2208 -0.3333
  144SAPE   C3615833   6.631   1.612  10.354  0.0819  0.3474 -1.0208
  144SAPE   H6X15834   6.720   1.552  10.382 -1.6635 -1.5965  0.7934
  144SAPE   H6Y15835   6.661   1.718  10.372  1.0853  0.1769 -1.6573
  144SAPE   C3715836   6.599   1.572  10.215 -0.2191  0.3575 -0.0869
  144SAPE   H7X15837   6.548   1.473  10.208 -0.8760  0.7577 -1.1614
  144SAPE   H7Y15838   6.689   1.564  10.150  0.3774  0.9008  0.6493
  144SAPE   C3815839   6.500   1.662  10.148 -0.3605  0.8014  0.1486
  144SAPE   H8X15840   6.406   1.676  10.206 -0.5287  1.2230 -0.2253
  144SAPE   H8Y15841   6.475   1.615  10.051  0.1020  1.3080 -0.2269
  144SAPE   C3915842   6.558   1.805  10.124  0.3488 -0.7775 -0.3828
  144SAPE   H9X15843   6.654   1.807  10.069  0.4976  1.5729 -0.1315
  144SAPE   H9Y15844   6.598   1.849  10.218  1.9853 -0.6699 -1.1024
  144SAPE  C31015845   6.464   1.894  10.048  0.8781 -0.0230 -0.9172
  144SAPE  H10X15846   6.380   1.919  10.116  1.4967  0.4198 -0.3020
  144SAPE  H10Y15847   6.427   1.838   9.959 -0.2491 -0.3165 -0.2786
  144SAPE  C31115848   6.531   2.018   9.987 -0.2428  0.2122 -0.2201
  144SAPE  H11X15849   6.617   1.997   9.920  0.2479  0.9672  0.1512
  144SAPE  H11Y15850   6.587   2.076  10.064 -1.0729  0.2057  0.4042
  144SAPE  C31215851   6.433   2.115   9.922 -0.4504 -0.3952 -0.0196
  144SAPE  H12X15852   6.488   2.208   9.897 -0.9022  0.0354  0.5521
  144SAPE  H12Y15853   6.350   2.140   9.992  0.1374 -0.0722  0.5761
  144SAPE  C31315854   6.365   2.067   9.793  0.6474  0.4706 -0.1538
  144SAPE  H13X15855   6.275   2.131   9.781  0.6017  0.5858  0.7808
  144SAPE  H13Y15856   6.314   1.970   9.810 -2.4080  2.1094  0.7172
  144SAPE  C31415857   6.449   2.060   9.670  0.0990  0.4239  0.0255
  144SAPE  H14X15858   6.538   2.005   9.707  0.7925  1.6808  0.2777
  144SAPE  H14Y15859   6.467   2.164   9.635 -0.6901  0.6263  0.1934
  144SAPE  C31515860   6.384   1.982   9.553  0.0239  0.3323  0.0066
  144SAPE  H15X15861   6.273   1.994   9.556 -0.0877  1.5312 -3.6802
  144SAPE  H15Y15862   6.401   1.873   9.566  0.7590  0.4571  0.1305
  144SAPE  C31615863   6.431   2.039   9.413 -0.3011  0.4522 -0.2420
  144SAPE  H16X15864   6.413   2.148   9.403 -1.3424  0.2550 -0.6501
  144SAPE  H16Y15865   6.370   1.998   9.329  0.0772  1.4150 -1.0134
  144SAPE  C31715866   6.577   2.003   9.397  0.4604 -0.5882  0.2904
  144SAPE  H17X15867   6.632   2.056   9.477 -0.2878  1.6691 -0.6032
  144SAPE  H17Y15868   6.613   2.042   9.299  1.6999  0.2058  1.0377
  144SAPE  C31815869   6.611   1.859   9.390 -0.0997  0.2726 -0.2551
  144SAPE  H18X15870   6.717   1.856   9.358  0.1564  0.6491  0.5303
  144SAPE  H18Y15871   6.547   1.802   9.319 -0.6892 -0.4851  0.8673
  144SAPE  H18Z15872   6.603   1.810   9.489  0.1057 -0.5618 -0.6439
  145SAPE     N15873   3.799   5.239  11.665  0.4420 -0.6696 -0.3703
  145SAPE   HN115874   3.716   5.214  11.723 -2.5605  1.9172 -3.1164
  145SAPE   HN215875   3.844   5.152  11.628 -1.4731 -1.6744 -0.4881
  145SAPE   HN315876   3.859   5.294  11.729  0.0321 -1.6727  0.9383
  145SAPE   C1215877   3.755   5.299  11.529 -0.8840  0.0389  0.0752
  145SAPE  H12A15878   3.840   5.361  11.494 -1.1811  2.3994  3.1090
  145SAPE  H12B15879   3.672   5.368  11.554  0.7730  2.0247  0.3768
  145SAPE   C1115880   3.705   5.184  11.430 -0.5374 -0.2293 -0.7275
  145SAPE  H11A15881   3.788   5.112  11.413 -1.7352 -2.1785  1.2423
  145SAPE  H11B15882   3.681   5.235  11.335 -0.6261 -0.5798 -0.8940
  145SAPE     P15883   3.446   5.123  11.463  0.3458  0.0365  0.0517
  145SAPE   O1315884   3.395   4.993  11.499 -0.3137 -0.7258 -0.2076
  145SAPE   O1415885   3.396   5.241  11.540 -0.4651  0.1374 -0.1748
  145SAPE   O1215886   3.601   5.104  11.484 -0.4829 -0.0356  1.0763
  145SAPE   O1115887   3.414   5.142  11.311 -0.6709 -0.4278 -0.4118
  145SAPE    C115888   3.452   5.046  11.217  0.5130  0.2085  0.1379
  145SAPE    HA15889   3.522   4.966  11.249  1.2759  0.7372 -0.1743
  145SAPE    HB15890   3.367   4.988  11.175  1.0886  0.4126 -1.3991
  145SAPE    C215891   3.537   5.096  11.090  1.0605 -1.1628 -0.3349
  145SAPE    HS15892   3.593   5.183  11.130 -1.6553  0.9707 -0.7996
  145SAPE   O2115893   3.440   5.147  10.997 -0.3881 -0.1989  0.1258
  145SAPE   C2115894   3.477   5.234  10.905 -0.7572 -0.7433 -0.3927
  145SAPE   O2215895   3.584   5.303  10.919  0.6613 -0.7849  0.8392
  145SAPE   C2215896   3.385   5.242  10.787 -0.0230 -0.4435 -0.1716
  145SAPE   H2R15897   3.420   5.165  10.715 -1.7700 -1.9062  0.4526
  145SAPE   H2S15898   3.276   5.241  10.811 -0.3597  0.9144 -1.5038
  145SAPE    C315899   3.610   4.978  11.034 -0.0327  1.0156  0.5775
  145SAPE    HX15900   3.538   4.893  11.033 -1.0326  1.7625 -2.8100
  145SAPE    HY15901   3.683   4.942  11.110 -0.8943 -0.1776  0.8751
  145SAPE   O3115902   3.669   4.984  10.905  0.6429 -0.3224 -0.0881
  145SAPE   C3115903   3.785   5.042  10.898 -0.6422  0.2856 -0.3024
  145SAPE   O3215904   3.842   5.102  10.990 -0.2440 -0.2802 -0.1034
  145SAPE   C3215905   3.840   5.045  10.758 -0.2015 -0.9905 -0.5760
  145SAPE   H2X15906   3.839   5.151  10.724 -0.3036 -0.5862  0.6483
  145SAPE   H2Y15907   3.764   4.989  10.698 -1.0324 -0.0172 -0.4648
  145SAPE   C2315908   3.418   5.372  10.707 -0.5593  0.3697 -0.3827
  145SAPE   H3R15909   3.529   5.378  10.697 -0.4380  2.4827  1.5752
  145SAPE   H3S15910   3.388   5.448  10.781 -1.1578  0.0826 -0.3254
  145SAPE   C2415911   3.353   5.367  10.571  0.6570  0.3434 -0.2727
  145SAPE   H4R15912   3.242   5.360  10.571  0.7163 -1.7961 -2.1147
  145SAPE   H4S15913   3.384   5.268  10.531  1.6214 -1.0430  3.4961
  145SAPE   C2515914   3.403   5.476  10.476 -0.1403  0.2166 -0.2515
  145SAPE   H5R15915   3.422   5.563  10.540  0.1347  0.6150 -0.8584
  145SAPE   C2615916   3.437   5.467  10.348 -0.5149  0.0898  0.3672
  145SAPE   H6R15917   3.468   5.564  10.306  1.5738 -0.4910  0.4946
  145SAPE   C2715918   3.422   5.344  10.258 -0.1697  0.2484  0.6479
  145SAPE   H7R15919   3.357   5.353  10.168 -0.0345  2.1642  0.6898
  145SAPE   H7S15920   3.375   5.263  10.318 -2.1614 -1.5570 -2.9791
  145SAPE   C2815921   3.561   5.309  10.218  0.3110  0.2784 -0.1029
  145SAPE   H8R15922   3.638   5.291  10.295 -0.3383 -1.6906  0.1530
  145SAPE   C2915923   3.613   5.302  10.097  0.5006 -0.2200  0.2371
  145SAPE   H9R15924   3.722   5.295  10.087  0.5475  2.3154 -2.1818
  145SAPE  C21015925   3.530   5.331   9.970 -0.1425  0.0547  0.2680
  145SAPE  H10R15926   3.439   5.268   9.972 -0.1042 -0.0048  0.1536
  145SAPE  H10S15927   3.577   5.285   9.880 -1.2113 -2.6972  1.0153
  145SAPE  C21115928   3.497   5.479   9.940 -0.0369  0.4440 -0.2015
  145SAPE  H11R15929   3.463   5.536  10.028 -0.3092 -0.6512  0.4152
  145SAPE  C21215930   3.521   5.546   9.824  0.2276 -0.1197  0.1749
  145SAPE  H12R15931   3.483   5.649   9.820 -0.2986 -0.3504 -2.2350
  145SAPE  C21315932   3.566   5.486   9.700  0.5410  0.5422 -0.6414
  145SAPE  H13R15933   3.517   5.546   9.620 -0.1079 -0.6348 -1.1536
  145SAPE  H13S15934   3.519   5.385   9.694 -0.8257  1.1549 -0.8321
  145SAPE  C21415935   3.720   5.482   9.695  0.5317  0.5022 -0.0866
  145SAPE  H14R15936   3.766   5.399   9.751 -1.7083 -0.3828  0.5631
  145SAPE  C21515937   3.809   5.563   9.635  0.1193 -0.1896 -0.4645
  145SAPE  H15R15938   3.914   5.541   9.655  0.6903  2.5576 -0.0100
  145SAPE  C21615939   3.765   5.682   9.552 -0.1191  0.0490 -0.2380
  145SAPE  H16R15940   3.668   5.649   9.510  0.1804  0.6392 -1.4442
  145SAPE  H16S15941   3.826   5.708   9.462 -2.1704 -0.5749 -1.8752
  145SAPE  C21715942   3.744   5.822   9.625 -0.2162  0.1003 -0.0841
  145SAPE  H17R15943   3.683   5.809   9.717 -0.2431  3.2295  0.4610
  145SAPE  H17S15944   3.677   5.882   9.560 -0.0219  1.3957  0.8847
  145SAPE  C21815945   3.869   5.903   9.647 -0.6814 -0.1081 -0.4647
  145SAPE  H18R15946   3.846   6.006   9.680  0.7057 -0.1527  0.7507
  145SAPE  H18S15947   3.921   5.922   9.551 -1.2515  0.1408 -0.7278
  145SAPE  C21915948   3.954   5.854   9.764  0.5008 -0.1364  0.2519
  145SAPE  H19R15949   3.989   5.750   9.745 -0.7545 -0.3496 -1.0371
  145SAPE  H19S15950   3.885   5.838   9.850 -1.5680  0.0858 -1.2848
  145SAPE  C22015951   4.067   5.952   9.801 -0.0932  0.3384 -0.3195
  145SAPE  H20R15952   4.118   5.898   9.883 -1.0435 -2.0881 -1.2146
  145SAPE  H20S15953   4.025   6.050   9.833  0.9136  0.0722  1.9927
  145SAPE  H20T15954   4.131   5.961   9.711 -0.7843  0.8783 -0.7718
  145SAPE   C3315955   3.990   4.999  10.755 -0.5445  0.4347  0.6586
  145SAPE   H3X15956   4.016   4.891  10.754  0.5253  0.6886 -0.2911
  145SAPE   H3Y15957   4.054   5.048  10.832  1.3538  2.6613 -2.1559
  145SAPE   C3415958   4.054   5.056  10.621  0.1017 -0.0175  0.4601
  145SAPE   H4X15959   4.162   5.030  10.622  0.4682  1.4236  1.1628
  145SAPE   H4Y15960   4.054   5.167  10.623  0.4113 -0.0067  0.0929
  145SAPE   C3515961   3.991   5.014  10.488  0.4533 -0.0288  0.1245
  145SAPE   H5X15962   3.881   5.003  10.497  0.1650  0.4769 -2.3452
  145SAPE   H5Y15963   4.045   4.921  10.459  0.0533 -0.9826  2.1949
  145SAPE   C3615964   4.000   5.116  10.370  0.0434 -0.0672 -1.2173
  145SAPE   H6X15965   4.103   5.148  10.342  0.0349  2.9210  1.5932
  145SAPE   H6Y15966   3.942   5.209  10.389 -2.3485 -1.4904 -1.1939
  145SAPE   C3715967   3.942   5.044  10.247  0.4444  0.0228 -0.6129
  145SAPE   H7X15968   3.832   5.038  10.250  0.3947  0.7952 -0.7492
  145SAPE   H7Y15969   3.989   4.944  10.230  0.3054  0.2886 -2.8925
  145SAPE   C3815970   3.964   5.105  10.108 -0.0843 -0.4310  0.4958
  145SAPE   H8X15971   4.073   5.104  10.087  0.3181 -0.4998  2.4076
  145SAPE   H8Y15972   3.941   5.212  10.129  1.1785  0.3852 -1.8732
  145SAPE   C3915973   3.876   5.052   9.998  0.6487 -0.2826 -0.1123
  145SAPE   H9X15974   3.770   5.082  10.005  0.7459 -0.0512  0.3990
  145SAPE   H9Y15975   3.884   4.942  10.000 -0.2282 -0.3465  0.1621
  145SAPE  C31015976   3.918   5.120   9.865  0.1938  0.1424 -0.5311
  145SAPE  H10X15977   4.005   5.064   9.825  0.1587 -1.3971  1.4144
  145SAPE  H10Y15978   3.940   5.227   9.887 -0.4220  0.7461 -2.5816
  145SAPE  C31115979   3.815   5.104   9.753  0.2155  0.4725 -0.9306
  145SAPE  H11X15980   3.720   5.155   9.779  0.0823 -0.0634 -0.3382
  145SAPE  H11Y15981   3.787   4.997   9.763  0.8817  0.3212 -0.5822
  145SAPE  C31215982   3.852   5.134   9.612  0.0848 -0.4540  0.8870
  145SAPE  H12X15983   3.957   5.103   9.593  0.5906  0.8177  1.4987
  145SAPE  H12Y15984   3.847   5.244   9.597 -0.4177 -0.8621 -2.9783
  145SAPE  C31315985   3.752   5.074   9.512  0.1009 -0.1446  0.5670
  145SAPE  H13X15986   3.648   5.108   9.531 -0.1393 -0.7616  0.3754
  145SAPE  H13Y15987   3.739   4.965   9.526  0.2697 -0.4916 -1.6939
  145SAPE  C31415988   3.783   5.110   9.365  0.0130  0.0666 -0.0721
  145SAPE  H14X15989   3.867   5.051   9.320  0.6143  1.5795 -1.0101
  145SAPE  H14Y15990   3.812   5.217   9.355 -2.4436  0.7562 -0.3161
  145SAPE  C31515991   3.657   5.098   9.286 -0.4779 -0.6141  0.2527
  145SAPE  H15X15992   3.696   5.109   9.182 -1.3586 -0.2616 -0.0548
  145SAPE  H15Y15993   3.583   5.181   9.297 -1.8592 -1.6531 -0.7386
  145SAPE  C31615994   3.583   4.973   9.290  0.5177  0.2023 -0.1462
  145SAPE  H16X15995   3.545   4.956   9.393  2.7769 -3.1693  0.2817
  145SAPE  H16Y15996   3.656   4.890   9.275 -2.0471 -2.2362  0.0479
  145SAPE  C31715997   3.476   4.977   9.188 -0.0561 -1.0910  0.5567
  145SAPE  H17X15998   3.509   5.017   9.089 -0.7301  0.3259  0.8800
  145SAPE  H17Y15999   3.392   5.037   9.227  0.9102 -0.5337  1.8616
  145SAPE  C31816000   3.415   4.845   9.151  0.3108  0.4995  0.4819
  145SAPE  H18X16001   3.406   4.762   9.224  0.7202 -2.3597 -2.4397
  145SAPE  H18Y16002   3.492   4.805   9.082 -1.0441  1.6451 -1.8677
  145SAPE  H18Z16003   3.313   4.847   9.106  0.1433 -0.6032  0.7758
  146SAPE     N16004   2.260   3.346  11.103 -0.5850 -1.0750 -0.3735
  146SAPE   HN116005   2.227   3.369  11.007  1.9214  2.3218 -0.6307
  146SAPE   HN216006   2.355   3.382  11.126 -0.7359 -2.3093  2.7479
  146SAPE   HN316007   2.270   3.243  11.109  0.3700 -0.9099  1.7145
  146SAPE   C1216008   2.153   3.377  11.201  0.3027 -0.0363 -0.1035
  146SAPE  H12A16009   2.078   3.435  11.142 -1.3120 -2.3057 -0.4120
  146SAPE  H12B16010   2.189   3.432  11.290  0.2183  1.5901 -1.0326
  146SAPE   C1116011   2.065   3.250  11.232 -0.0949 -0.2813 -0.5486
  146SAPE  H11A16012   2.134   3.190  11.295 -0.9182 -0.5960  0.0627
  146SAPE  H11B16013   2.047   3.185  11.144  0.1173 -1.6604  0.3889
  146SAPE     P16014   1.823   3.197  11.310  0.5527  0.2680  0.3768
  146SAPE   O1316015   1.842   3.066  11.378 -0.1358  0.1261  0.5624
  146SAPE   O1416016   1.701   3.283  11.346 -0.2674  1.2454 -0.3440
  146SAPE   O1216017   1.955   3.288  11.306  0.2641 -0.5059 -0.7531
  146SAPE   O1116018   1.801   3.176  11.154  0.0961  0.7278  0.3498
  146SAPE    C116019   1.789   3.282  11.057  0.3559 -0.2977 -0.3728
  146SAPE    HA16020   1.685   3.322  11.067  0.8441  0.6357  1.3580
  146SAPE    HB16021   1.868   3.358  11.073 -0.8223  0.8371  0.3287
  146SAPE    C216022   1.817   3.239  10.914  0.0269  0.4962 -0.5236
  146SAPE    HS16023   1.738   3.167  10.888 -1.0223  1.5274 -0.2731
  146SAPE   O2116024   1.949   3.183  10.903  0.7688  0.7646 -0.8055
  146SAPE   C2116025   1.957   3.060  10.861  0.8816  0.1311  0.5165
  146SAPE   O2216026   1.859   2.985  10.842  0.2515  0.5162  0.1892
  146SAPE   C2216027   2.096   3.023  10.829  0.2359  0.2563 -0.2191
  146SAPE   H2R16028   2.139   3.086  10.749  0.6614  2.8139  1.9014
  146SAPE   H2S16029   2.158   3.048  10.917  1.7329  0.6995 -1.3668
  146SAPE    C316030   1.797   3.352  10.810  0.4206  0.4368  0.1163
  146SAPE    HX16031   1.877   3.428  10.818  0.7165  0.0311  1.2242
  146SAPE    HY16032   1.703   3.407  10.834  1.5190  2.4803 -0.0291
  146SAPE   O3116033   1.780   3.290  10.677  0.2877 -0.2940 -0.0411
  146SAPE   C3116034   1.889   3.265  10.607 -0.4119 -0.3372  0.0016
  146SAPE   O3216035   2.002   3.309  10.622  0.0150 -0.4627 -0.4017
  146SAPE   C3216036   1.852   3.160  10.503  0.0594 -0.4845 -0.3383
  146SAPE   H2X16037   1.750   3.179  10.462  0.1547 -1.6372 -1.1578
  146SAPE   H2Y16038   1.837   3.059  10.545 -0.7675 -1.2762 -2.3974
  146SAPE   C2316039   2.102   2.871  10.781  0.3553 -0.2517 -0.5760
  146SAPE   H3R16040   2.022   2.852  10.706 -0.2052 -3.6483  0.7008
  146SAPE   H3S16041   2.082   2.798  10.863 -0.2955  2.0333  1.4374
  146SAPE   C2416042   2.233   2.858  10.712 -0.0647 -0.3437 -0.3926
  146SAPE   H4R16043   2.320   2.901  10.767  0.7357 -1.3196 -0.8577
  146SAPE   H4S16044   2.233   2.910  10.613  2.1614 -0.0309 -0.2803
  146SAPE   C2516045   2.262   2.711  10.695  0.3369 -0.9246  0.1660
  146SAPE   H5R16046   2.262   2.661  10.793 -2.6814  1.7392  1.7238
  146SAPE   C2616047   2.279   2.642  10.580 -0.2685 -0.1572 -0.6038
  146SAPE   H6R16048   2.283   2.533  10.593  1.6223 -0.4094 -2.7837
  146SAPE   C2716049   2.279   2.681  10.430 -0.1793 -0.4731  0.6542
  146SAPE   H7R16050   2.178   2.687  10.385 -0.9923 -0.2844  2.4054
  146SAPE   H7S16051   2.338   2.603  10.377  0.0572 -1.2921  2.0609
  146SAPE   C2816052   2.352   2.807  10.389  0.2454 -0.4469  0.2098
  146SAPE   H8R16053   2.388   2.860  10.478 -0.9391 -0.0600  0.4796
  146SAPE   C2916054   2.380   2.852  10.269  0.0810  0.0553 -0.2780
  146SAPE   H9R16055   2.434   2.948  10.264  0.6098 -0.2537 -0.5712
  146SAPE  C21016056   2.343   2.789  10.135  0.3355 -0.1159 -0.4546
  146SAPE  H10R16057   2.242   2.823  10.104  0.3364  0.3865  0.0845
  146SAPE  H10S16058   2.317   2.681  10.139  3.6633 -1.1594 -2.6168
  146SAPE  C21116059   2.440   2.816  10.024 -0.5842 -0.1543 -0.1280
  146SAPE  H11R16060   2.543   2.798  10.058 -0.9214  0.2124  1.1271
  146SAPE  C21216061   2.423   2.868   9.903 -0.2456 -0.0166  0.5472
  146SAPE  H12R16062   2.506   2.895   9.835  1.4358 -0.4317  2.3431
  146SAPE  C21316063   2.288   2.907   9.845 -0.4952  0.1825  0.0905
  146SAPE  H13R16064   2.297   2.993   9.775 -0.7687  0.4345  0.3613
  146SAPE  H13S16065   2.218   2.942   9.924  1.3139  3.2488  0.4988
  146SAPE  C21416066   2.232   2.787   9.775 -0.4379 -0.3247  0.2299
  146SAPE  H14R16067   2.220   2.696   9.835 -0.0095 -0.7005 -0.2421
  146SAPE  C21516068   2.197   2.772   9.646  0.4258  0.7037  0.6173
  146SAPE  H15R16069   2.171   2.670   9.615  1.3189  0.8489 -0.6859
  146SAPE  C21616070   2.193   2.869   9.530 -0.0529 -0.0811  0.1023
  146SAPE  H16R16071   2.228   2.969   9.563  2.9937 -1.8908  2.9458
  146SAPE  H16S16072   2.092   2.876   9.483  0.7652  1.0487 -1.5811
  146SAPE  C21716073   2.307   2.835   9.416 -0.0205  0.0827  0.1122
  146SAPE  H17R16074   2.282   2.738   9.370  0.2642  0.5945 -1.1484
  146SAPE  H17S16075   2.406   2.830   9.465  0.4357  1.9415 -0.5484
  146SAPE  C21816076   2.313   2.929   9.294 -0.3735  0.4036 -0.3565
  146SAPE  H18R16077   2.399   2.905   9.229  1.3379  2.5706  0.9803
  146SAPE  H18S16078   2.315   3.026   9.348  0.8429 -0.2195  0.7876
  146SAPE  C21916079   2.180   2.918   9.212  0.0926 -0.2688  0.6478
  146SAPE  H19R16080   2.087   2.966   9.249  0.9137  0.3398  2.0002
  146SAPE  H19S16081   2.159   2.813   9.183  1.5773 -0.0871 -1.2469
  146SAPE  C22016082   2.203   2.987   9.071  0.1997  0.3398 -0.6214
  146SAPE  H20R16083   2.250   2.921   8.995 -3.9056 -1.0599 -2.2081
  146SAPE  H20S16084   2.260   3.079   9.097  0.4332 -0.3359  1.5240
  146SAPE  H20T16085   2.100   3.011   9.041 -1.8452 -3.2498  2.5611
  146SAPE   C3316086   1.958   3.147  10.387 -0.9745 -0.6174  0.0045
  146SAPE   H3X16087   2.038   3.072  10.406 -1.0244 -0.6881 -0.0629
  146SAPE   H3Y16088   2.004   3.246  10.369  0.6959 -0.8842  2.3199
  146SAPE   C3416089   1.891   3.100  10.258  0.4941 -0.0756 -0.2307
  146SAPE   H4X16090   1.822   3.178  10.221 -1.4002 -0.8390  1.5057
  146SAPE   H4Y16091   1.812   3.029  10.290  2.1497 -1.8304  0.2032
  146SAPE   C3516092   1.985   3.052  10.153  0.0703 -0.4122 -0.5374
  146SAPE   H5X16093   2.047   2.969  10.193 -1.1331 -0.7135  0.7736
  146SAPE   H5Y16094   2.050   3.143  10.147  1.3914 -1.0857  1.9061
  146SAPE   C3616095   1.924   3.018  10.019  0.2785  0.0588 -0.0912
  146SAPE   H6X16096   1.833   2.964  10.052  0.1397 -0.4079 -1.1921
  146SAPE   H6Y16097   1.986   2.943   9.966 -0.7378 -1.2597  0.5136
  146SAPE   C3716098   1.890   3.127   9.916 -0.2753 -0.4798 -0.8059
  146SAPE   H7X16099   1.855   3.218   9.969  0.7638  0.5349 -1.8057
  146SAPE   H7Y16100   1.820   3.079   9.844 -0.8298  0.2566 -0.7723
  146SAPE   C3816101   2.013   3.168   9.841 -0.4677  0.0945 -0.0308
  146SAPE   H8X16102   2.038   3.111   9.749  0.4634  2.4125 -1.2869
  146SAPE   H8Y16103   2.097   3.162   9.914  0.4097  0.9317 -0.9480
  146SAPE   C3916104   2.022   3.315   9.789 -0.4062 -0.1286 -0.4200
  146SAPE   H9X16105   2.127   3.325   9.754  0.6066 -2.3933  1.7049
  146SAPE   H9Y16106   2.008   3.385   9.874  1.2463 -0.7480  0.3876
  146SAPE  C31016107   1.927   3.340   9.673  0.0803  0.2306 -0.2652
  146SAPE  H10X16108   1.826   3.339   9.720  0.8232 -2.0283  1.4234
  146SAPE  H10Y16109   1.928   3.256   9.600  2.7836 -0.0219 -0.0084
  146SAPE  C31116110   1.947   3.464   9.595 -0.9848  0.0208  1.0264
  146SAPE  H11X16111   1.948   3.546   9.670  0.7082 -0.6488  1.7867
  146SAPE  H11Y16112   1.873   3.479   9.514  1.9373 -1.5113 -2.1782
  146SAPE  C31216113   2.091   3.473   9.530  0.2415  0.6254 -0.2965
  146SAPE  H12X16114   2.172   3.459   9.604 -0.2847 -2.2909 -0.1934
  146SAPE  H12Y16115   2.090   3.575   9.486 -1.6799  2.1167  2.7983
  146SAPE  C31316116   2.102   3.374   9.419  0.4584  0.3173  0.2086
  146SAPE  H13X16117   2.054   3.279   9.451  0.7368  0.6637  1.7048
  146SAPE  H13Y16118   2.208   3.351   9.397  0.1380 -0.6887 -0.3295
  146SAPE  C31416119   2.039   3.413   9.282  0.3893 -0.1161  0.1127
  146SAPE  H14X16120   1.941   3.460   9.304  0.0127 -1.1566  0.6992
  146SAPE  H14Y16121   2.005   3.320   9.232 -1.8645  1.4028 -1.3875
  146SAPE  C31516122   2.128   3.493   9.186  0.6038  0.2136 -0.5503
  146SAPE  H15X16123   2.216   3.432   9.158  0.3004 -0.3046 -0.3910
  146SAPE  H15Y16124   2.177   3.577   9.239  2.4192 -1.5016  0.6102
  146SAPE  C31616125   2.048   3.524   9.056 -0.0663  0.1406  0.2030
  146SAPE  H16X16126   1.954   3.575   9.085  0.6519  0.0819  2.8983
  146SAPE  H16Y16127   2.024   3.428   9.006  0.6628 -0.1897  0.4796
  146SAPE  C31716128   2.116   3.616   8.953  0.7734 -0.1789 -0.2666
  146SAPE  H17X16129   2.123   3.713   9.007 -1.7939 -1.0568  1.9031
  146SAPE  H17Y16130   2.039   3.620   8.873 -0.1414 -0.7366  0.5509
  146SAPE  C31816131   2.256   3.567   8.903 -0.1972 -0.0846  0.6940
  146SAPE  H18X16132   2.318   3.565   8.995  4.0530  0.1938 -1.8932
  146SAPE  H18Y16133   2.289   3.647   8.833 -0.3775 -0.2167  0.4542
  146SAPE  H18Z16134   2.253   3.467   8.855  1.9090  0.5327 -0.8813
  147SAPE     N16135   1.439   1.860   6.167  0.5505  0.0315  0.7183
  147SAPE   HN116136   1.473   1.766   6.138 -0.1978 -1.1606  3.3125
  147SAPE   HN216137   1.377   1.902   6.095 -1.0826 -0.8791  1.5262
  147SAPE   HN316138   1.523   1.920   6.177  0.6928 -0.1799  0.8031
  147SAPE   C1216139   1.359   1.849   6.295 -0.8491 -0.2943 -0.2912
  147SAPE  H12A16140   1.280   1.773   6.284  0.1735 -1.7750  1.8861
  147SAPE  H12B16141   1.310   1.948   6.311 -0.0609  0.1292 -0.3978
  147SAPE   C1116142   1.446   1.823   6.418 -0.5071  0.3907  0.1573
  147SAPE  H11A16143   1.496   1.725   6.402  1.0481  1.0367  0.8120
  147SAPE  H11B16144   1.392   1.832   6.514  1.7519  0.8454  1.4772
  147SAPE     P16145   1.538   2.063   6.490  0.1038  0.2164 -0.1603
  147SAPE   O1316146   1.662   2.142   6.468  0.4997 -0.0512 -0.1131
  147SAPE   O1416147   1.412   2.120   6.445 -0.0041  0.0473  0.0898
  147SAPE   O1216148   1.553   1.919   6.421 -0.0451  0.1440 -0.0726
  147SAPE   O1116149   1.520   2.014   6.643 -0.2516 -0.3965  0.3033
  147SAPE    C116150   1.611   1.945   6.722 -0.7322 -1.2923  0.1031
  147SAPE    HA16151   1.716   1.964   6.691 -1.3065  2.4098 -0.0307
  147SAPE    HB16152   1.604   1.980   6.828  0.6070  1.3705 -0.6098
  147SAPE    C216153   1.615   1.784   6.710  0.0360 -0.5793  0.2794
  147SAPE    HS16154   1.635   1.761   6.603  0.2645 -0.6529  0.3360
  147SAPE   O2116155   1.494   1.729   6.768 -0.2665 -0.3725  0.1358
  147SAPE   C2116156   1.452   1.612   6.721  0.2239  0.4692  0.2891
  147SAPE   O2216157   1.496   1.552   6.621 -0.4577 -0.5111  0.1632
  147SAPE   C2216158   1.318   1.571   6.793 -0.4546  0.5831  0.0032
  147SAPE   H2R16159   1.255   1.662   6.793 -2.2971 -0.3914 -4.8406
  147SAPE   H2S16160   1.269   1.510   6.714  0.1537 -0.4938  0.4399
  147SAPE    C316161   1.731   1.728   6.794 -0.1364  0.7198  0.1454
  147SAPE    HX16162   1.830   1.774   6.773  0.3324  0.7095  2.1597
  147SAPE    HY16163   1.727   1.617   6.792  0.2916  0.7028 -1.4535
  147SAPE   O3116164   1.708   1.773   6.931 -0.3976  0.0228  0.0164
  147SAPE   C3116165   1.732   1.693   7.034 -0.3731  0.0280  0.7917
  147SAPE   O3216166   1.753   1.571   7.025 -0.2020  0.0909  0.0803
  147SAPE   C3216167   1.744   1.775   7.164  0.9568 -0.1419  0.9347
  147SAPE   H2X16168   1.673   1.860   7.163  0.7687 -0.1902  3.7070
  147SAPE   H2Y16169   1.848   1.812   7.161  1.5101 -1.6615 -1.4532
  147SAPE   C2316170   1.334   1.478   6.917 -0.0734  0.2705  0.2761
  147SAPE   H3R16171   1.370   1.375   6.892  0.4032  0.7718 -1.2344
  147SAPE   H3S16172   1.236   1.458   6.964 -1.4302  1.2372 -2.0077
  147SAPE   C2416173   1.423   1.532   7.034 -0.3993  0.3970 -0.3712
  147SAPE   H4R16174   1.528   1.538   6.999 -0.0799  2.2542  0.8078
  147SAPE   H4S16175   1.425   1.462   7.121 -0.2787 -0.7554 -1.2629
  147SAPE   C2516176   1.387   1.671   7.074  0.4288  0.7864 -0.8689
  147SAPE   H5R16177   1.409   1.755   7.005 -0.0775  2.6071  1.0821
  147SAPE   C2616178   1.327   1.697   7.195  0.8162  0.5028 -0.0890
  147SAPE   H6R16179   1.309   1.805   7.211  2.6972  1.0269 -1.1133
  147SAPE   C2716180   1.278   1.611   7.305 -0.1591  0.4159  0.0209
  147SAPE   H7R16181   1.330   1.515   7.325  1.4904  1.6962  2.2795
  147SAPE   H7S16182   1.176   1.583   7.269 -0.1286 -0.9476  0.9115
  147SAPE   C2816183   1.268   1.681   7.439  0.5535  0.1699 -0.4659
  147SAPE   H8R16184   1.238   1.786   7.426 -0.5398 -0.1638 -0.7243
  147SAPE   C2916185   1.274   1.636   7.565 -0.5844 -1.0038  0.1327
  147SAPE   H9R16186   1.230   1.704   7.639 -0.4145 -1.2037  0.4212
  147SAPE  C21016187   1.306   1.496   7.615 -0.1302  0.4200 -0.3124
  147SAPE  H10R16188   1.410   1.483   7.651 -0.8966 -0.6926  1.6354
  147SAPE  H10S16189   1.300   1.424   7.531  1.3653  0.1257 -0.1859
  147SAPE  C21116190   1.209   1.481   7.730 -0.7929  0.3118 -0.0289
  147SAPE  H11R16191   1.113   1.432   7.708 -1.9444  2.4138  0.0187
  147SAPE  C21216192   1.238   1.503   7.860  0.5691  0.2740  0.0967
  147SAPE  H12R16193   1.148   1.495   7.923  0.5281 -0.9479 -0.1051
  147SAPE  C21316194   1.362   1.558   7.924  0.2030  0.2867  0.2481
  147SAPE  H13R16195   1.385   1.652   7.869 -1.5470  0.9169  0.5294
  147SAPE  H13S16196   1.438   1.477   7.917 -0.8371 -1.0741  2.9621
  147SAPE  C21416197   1.340   1.597   8.068 -0.6668 -0.0422 -0.9600
  147SAPE  H14R16198   1.304   1.700   8.084 -0.4382  0.0007 -0.7104
  147SAPE  C21516199   1.356   1.515   8.174 -0.2771 -0.0189 -0.1554
  147SAPE  H15R16200   1.322   1.550   8.273 -0.4673 -0.6801  0.0211
  147SAPE  C21616201   1.406   1.368   8.166 -0.8172 -0.1227 -0.1492
  147SAPE  H16R16202   1.514   1.371   8.141 -0.9937 -0.5239 -0.9870
  147SAPE  H16S16203   1.357   1.309   8.086  1.4199 -0.0784 -1.6690
  147SAPE  C21716204   1.392   1.296   8.298 -1.0616 -0.5238  0.3927
  147SAPE  H17R16205   1.437   1.350   8.384 -0.1497 -0.3513 -0.1738
  147SAPE  H17S16206   1.456   1.204   8.295  2.8520  1.9878 -1.5243
  147SAPE  C21816207   1.254   1.262   8.337  0.3909  0.2125 -0.6433
  147SAPE  H18R16208   1.216   1.211   8.246 -0.8856 -0.8144  0.4142
  147SAPE  H18S16209   1.196   1.356   8.354  1.7414  1.2816 -1.6852
  147SAPE  C21916210   1.239   1.160   8.447  0.0528 -0.3722 -0.2149
  147SAPE  H19R16211   1.131   1.155   8.474  0.6053 -0.0912  2.2507
  147SAPE  H19S16212   1.295   1.196   8.535  0.2672 -2.8106  0.7153
  147SAPE  C22016213   1.285   1.019   8.418 -0.0969  0.0265 -0.4041
  147SAPE  H20R16214   1.249   0.983   8.319 -3.0228 -3.3909  1.6275
  147SAPE  H20S16215   1.243   0.955   8.498  0.1679 -0.2521 -0.4848
  147SAPE  H20T16216   1.395   1.022   8.411 -0.1245 -0.7753 -1.4638
  147SAPE   C3316217   1.714   1.692   7.293  0.4349 -0.1517  0.0425
  147SAPE   H3X16218   1.776   1.599   7.297  0.1679 -0.4369 -1.6008
  147SAPE   H3Y16219   1.609   1.657   7.286  0.7869 -0.9963 -1.3771
  147SAPE   C3416220   1.737   1.773   7.423  0.2719  0.2704 -0.0799
  147SAPE   H4X16221   1.673   1.864   7.424 -0.9054 -0.5438 -0.0984
  147SAPE   H4Y16222   1.843   1.805   7.426  0.3030  0.1970 -0.3684
  147SAPE   C3516223   1.711   1.689   7.551 -0.5047 -0.1232 -0.6566
  147SAPE   H5X16224   1.747   1.584   7.554 -0.7977 -0.2750 -1.7711
  147SAPE   H5Y16225   1.601   1.675   7.544 -0.6623  1.1107 -1.0326
  147SAPE   C3616226   1.738   1.764   7.679 -0.6361  0.7405 -0.8420
  147SAPE   H6X16227   1.664   1.846   7.689  1.5856  2.6527  1.4429
  147SAPE   H6Y16228   1.839   1.811   7.674 -0.1721  0.2681  2.1756
  147SAPE   C3716229   1.730   1.663   7.794 -0.0940  0.3669 -1.0126
  147SAPE   H7X16230   1.810   1.587   7.781  0.1975  0.6056 -0.6131
  147SAPE   H7Y16231   1.634   1.607   7.787  0.0710 -0.2647  1.0632
  147SAPE   C3816232   1.744   1.731   7.933  0.2480 -0.2688  0.8426
  147SAPE   H8X16233   1.667   1.810   7.951  1.6983  1.4271 -0.0717
  147SAPE   H8Y16234   1.837   1.790   7.915  0.2617 -0.5413 -0.0292
  147SAPE   C3916235   1.736   1.640   8.055 -0.7101 -0.0749 -0.0093
  147SAPE   H9X16236   1.827   1.576   8.050  0.2718  1.3497 -1.5083
  147SAPE   H9Y16237   1.655   1.566   8.040 -1.8107  1.5438 -2.8258
  147SAPE  C31016238   1.704   1.717   8.188  0.3324 -0.0231  0.3891
  147SAPE  H10X16239   1.612   1.777   8.175  1.1770  0.8570 -2.1447
  147SAPE  H10Y16240   1.788   1.790   8.187  1.3055 -1.1092 -1.0950
  147SAPE  C31116241   1.709   1.625   8.317  0.4167  0.1085 -0.1859
  147SAPE  H11X16242   1.807   1.574   8.331  0.4578 -0.0412 -1.0014
  147SAPE  H11Y16243   1.645   1.535   8.307 -0.7510  0.8648  0.3210
  147SAPE  C31216244   1.671   1.703   8.444 -0.5412 -0.3133 -0.1172
  147SAPE  H12X16245   1.679   1.632   8.529 -2.4888 -0.5539 -0.0866
  147SAPE  H12Y16246   1.562   1.728   8.443 -0.8722 -1.6703 -0.5046
  147SAPE  C31316247   1.745   1.837   8.464 -0.0612 -0.1031  0.2001
  147SAPE  H13X16248   1.754   1.885   8.364 -1.7029 -1.1899 -0.5155
  147SAPE  H13Y16249   1.849   1.812   8.495 -0.0924 -1.1707 -0.5156
  147SAPE  C31416250   1.677   1.940   8.553  0.2619 -0.6001  0.0288
  147SAPE  H14X16251   1.684   1.909   8.660  0.2843 -1.2218 -0.1525
  147SAPE  H14Y16252   1.567   1.935   8.540  0.2272  1.4987 -0.8209
  147SAPE  C31516253   1.713   2.093   8.543 -0.1804 -0.2091  0.0543
  147SAPE  H15X16254   1.634   2.140   8.606 -2.9176 -1.6121 -2.1100
  147SAPE  H15Y16255   1.702   2.122   8.436 -1.3117 -1.2806 -0.1494
  147SAPE  C31616256   1.856   2.127   8.603 -0.3524  1.0510  0.7295
  147SAPE  H16X16257   1.923   2.084   8.526 -2.1008 -0.7992  0.1263
  147SAPE  H16Y16258   1.874   2.079   8.702  1.2380 -1.0215 -0.4708
  147SAPE  C31716259   1.882   2.272   8.631 -0.5163 -0.4323  0.0687
  147SAPE  H17X16260   1.796   2.307   8.692  0.4234  3.3283 -0.4981
  147SAPE  H17Y16261   1.888   2.327   8.534  1.1405  0.7743  0.8152
  147SAPE  C31816262   2.013   2.304   8.713  0.5749  0.2027 -0.1360
  147SAPE  H18X16263   1.991   2.264   8.814 -1.6145  0.0947 -0.6034
  147SAPE  H18Y16264   2.020   2.415   8.715 -0.7944  0.3145 -0.2943
  147SAPE  H18Z16265   2.103   2.255   8.670 -1.8810 -3.2553 -1.9496
  148SAPE     N16266   6.704   6.481   6.490  0.4721  0.7549  0.1112
  148SAPE   HN116267   6.631   6.545   6.452  1.0485  0.3959 -1.7147
  148SAPE   HN216268   6.785   6.477   6.425  1.0242 -0.8197  0.8539
  148SAPE   HN316269   6.665   6.386   6.476  1.7846  0.2800 -0.4968
  148SAPE   C1216270   6.755   6.505   6.624 -0.1309  0.0916  0.6961
  148SAPE  H12A16271   6.670   6.484   6.692 -0.8073  3.7142  1.1919
  148SAPE  H12B16272   6.777   6.614   6.633 -0.3391  0.3018 -0.8732
  148SAPE   C1116273   6.879   6.415   6.653 -0.0732 -0.0276 -0.7108
  148SAPE  H11A16274   6.907   6.450   6.755 -1.3581  2.7834 -1.2156
  148SAPE  H11B16275   6.962   6.431   6.582  1.4092 -1.4362  0.6290
  148SAPE     P16276   6.858   6.179   6.785 -0.2763  0.0826  0.3204
  148SAPE   O1316277   6.778   6.228   6.898  0.0037 -0.3058  0.5550
  148SAPE   O1416278   6.841   6.042   6.735  0.3320 -0.2560 -0.2753
  148SAPE   O1216279   6.848   6.272   6.656  0.0718 -0.2805 -0.1711
  148SAPE   O1116280   7.013   6.198   6.808  0.3086 -0.0569 -0.5609
  148SAPE    C116281   7.066   6.125   6.922 -0.3420 -0.5130  0.7524
  148SAPE    HA16282   6.990   6.084   6.992 -1.5314  0.9591  0.3647
  148SAPE    HB16283   7.120   6.035   6.884  1.9797  0.9319  0.4476
  148SAPE    C216284   7.172   6.198   7.004 -0.4055 -0.6564 -0.4958
  148SAPE    HS16285   7.196   6.141   7.097 -0.2785  0.4774  0.1798
  148SAPE   O2116286   7.130   6.329   7.039 -0.0318  0.0749  0.4406
  148SAPE   C2116287   7.054   6.337   7.147  1.4121 -0.1427 -0.8666
  148SAPE   O2216288   7.041   6.249   7.235 -0.1315  0.0601 -0.0055
  148SAPE   C2216289   6.987   6.482   7.143 -0.4778  0.0386 -0.5266
  148SAPE   H2R16290   7.073   6.533   7.096  1.2519 -1.6157  0.7030
  148SAPE   H2S16291   6.901   6.476   7.072  1.3065  0.0876 -2.7882
  148SAPE    C316292   7.304   6.214   6.921 -0.3941 -0.5218  0.5764
  148SAPE    HX16293   7.299   6.300   6.850  3.7299  1.1390  1.9809
  148SAPE    HY16294   7.311   6.128   6.851  0.9225 -0.7837  1.0083
  148SAPE   O3116295   7.410   6.229   7.024 -0.4339  0.0091  0.1032
  148SAPE   C3116296   7.481   6.111   7.033 -0.3593  0.0192  0.8339
  148SAPE   O3216297   7.465   6.015   6.959 -0.4316 -0.3538  0.0831
  148SAPE   C3216298   7.598   6.132   7.132  0.8534 -0.5310  0.8158
  148SAPE   H2X16299   7.651   6.227   7.111  1.8845 -1.1292  0.6410
  148SAPE   H2Y16300   7.678   6.058   7.108  2.3139  0.9504  0.9265
  148SAPE   C2316301   6.938   6.544   7.275 -0.6021  0.7114  0.3340
  148SAPE   H3R16302   6.886   6.466   7.335  1.3776  0.7800  2.2917
  148SAPE   H3S16303   6.876   6.631   7.245  3.3101  3.1550 -1.6029
  148SAPE   C2416304   7.051   6.624   7.339 -0.7127 -0.4818  0.1697
  148SAPE   H4R16305   7.084   6.687   7.254 -2.6836 -0.7304 -0.8476
  148SAPE   H4S16306   7.142   6.566   7.365 -0.8356 -0.1282  1.4769
  148SAPE   C2516307   7.016   6.709   7.456 -0.4064  1.1373 -1.3027
  148SAPE   H5R16308   7.008   6.818   7.444  0.0430  1.6256  1.9745
  148SAPE   C2616309   7.010   6.652   7.579  0.5072 -0.2769  0.4951
  148SAPE   H6R16310   6.972   6.720   7.657 -0.2677 -0.9107  0.6876
  148SAPE   C2716311   7.012   6.512   7.628  0.2154 -0.2640 -0.1861
  148SAPE   H7R16312   7.054   6.513   7.731  0.2530  1.5474 -0.1916
  148SAPE   H7S16313   7.080   6.452   7.563 -0.0579  0.3553 -1.0560
  148SAPE   C2816314   6.882   6.430   7.623 -0.0847  0.2587 -0.1872
  148SAPE   H8R16315   6.802   6.463   7.555 -2.3766 -1.9047  1.2451
  148SAPE   C2916316   6.845   6.328   7.702  0.8433 -0.1586 -0.5476
  148SAPE   H9R16317   6.739   6.301   7.689  0.5722  1.7271 -3.2980
  148SAPE  C21016318   6.915   6.253   7.814 -0.3485 -0.2322  0.1004
  148SAPE  H10R16319   6.871   6.152   7.830 -1.0403 -0.3154 -2.0114
  148SAPE  H10S16320   6.886   6.301   7.910  0.7775  0.7981 -0.0488
  148SAPE  C21116321   7.063   6.233   7.817 -0.2897  0.2076 -0.1821
  148SAPE  H11R16322   7.121   6.326   7.802  0.5701 -0.1919  0.5973
  148SAPE  C21216323   7.136   6.125   7.865  0.2690 -0.2986 -0.8281
  148SAPE  H12R16324   7.246   6.134   7.867  0.2246  0.1932  0.0737
  148SAPE  C21316325   7.072   5.993   7.919  0.0439 -0.1159 -0.5644
  148SAPE  H13R16326   7.031   5.934   7.834  1.5411 -0.3413 -1.1548
  148SAPE  H13S16327   6.991   6.027   7.987  1.2995  1.5333  0.1697
  148SAPE  C21416328   7.164   5.904   7.996 -0.3951  0.3608  0.0605
  148SAPE  H14R16329   7.229   5.841   7.934  0.2524  1.3768 -0.3018
  148SAPE  C21516330   7.167   5.873   8.131 -0.3752  0.3480  0.5119
  148SAPE  H15R16331   7.244   5.804   8.168  0.0468 -0.4824 -1.8018
  148SAPE  C21616332   7.080   5.939   8.235 -0.3674  0.4006  0.3205
  148SAPE  H16R16333   7.076   6.048   8.215  1.0246  0.1789 -1.4419
  148SAPE  H16S16334   7.133   5.925   8.331 -0.5518 -2.4266  0.0958
  148SAPE  C21716335   6.935   5.876   8.222 -0.4501  0.3822 -0.1403
  148SAPE  H17R16336   6.933   5.773   8.179  0.3721  0.4051 -0.2504
  148SAPE  H17S16337   6.861   5.943   8.173  0.2262  0.8103 -0.5797
  148SAPE  C21816338   6.874   5.870   8.364  0.2229  0.1928  0.1634
  148SAPE  H18R16339   6.868   5.974   8.401 -1.3833  0.0937  0.2444
  148SAPE  H18S16340   6.937   5.809   8.433  0.9844  1.0119  0.2057
  148SAPE  C21916341   6.737   5.803   8.370 -0.3868  0.0136  0.2361
  148SAPE  H19R16342   6.682   5.842   8.458 -0.3515  1.2741 -0.2862
  148SAPE  H19S16343   6.753   5.694   8.382 -1.3315 -0.5548 -2.6732
  148SAPE  C22016344   6.644   5.824   8.251 -0.2831  0.2843  0.4379
  148SAPE  H20R16345   6.541   5.785   8.260  0.0931 -1.1495 -0.9062
  148SAPE  H20S16346   6.677   5.775   8.157 -0.8056  2.5408 -0.9977
  148SAPE  H20T16347   6.645   5.933   8.231 -0.4670  0.1684 -0.2269
  148SAPE   C3316348   7.542   6.108   7.268  0.1275  0.2510  0.5480
  148SAPE   H3X16349   7.507   6.003   7.277 -1.1789  0.4510 -1.5871
  148SAPE   H3Y16350   7.444   6.155   7.292 -1.3100 -1.0591 -2.2790
  148SAPE   C3416351   7.643   6.140   7.378 -0.4676 -0.0925 -0.0131
  148SAPE   H4X16352   7.653   6.246   7.411  0.1797 -0.7310  2.0229
  148SAPE   H4Y16353   7.746   6.111   7.347 -0.4779  0.4927 -0.6264
  148SAPE   C3516354   7.621   6.072   7.516  0.0187 -0.5634  1.1111
  148SAPE   H5X16355   7.634   5.963   7.500  0.2399 -0.4959  0.8066
  148SAPE   H5Y16356   7.516   6.085   7.548 -0.5036  0.4541 -0.8716
  148SAPE   C3616357   7.726   6.116   7.616  0.7129  0.1586 -0.0374
  148SAPE   H6X16358   7.728   6.227   7.629  0.4069  0.3287 -1.3031
  148SAPE   H6Y16359   7.820   6.094   7.560 -0.0508 -1.5606 -0.6869
  148SAPE   C3716360   7.730   6.046   7.749 -0.3346 -0.2609 -0.3190
  148SAPE   H7X16361   7.833   6.052   7.790 -1.0600 -1.4797  1.8844
  148SAPE   H7Y16362   7.703   5.938   7.742 -1.5994  0.0658 -0.6688
  148SAPE   C3816363   7.632   6.111   7.840 -0.7575 -0.3205  0.3134
  148SAPE   H8X16364   7.532   6.098   7.793  0.3836 -1.9778 -1.8377
  148SAPE   H8Y16365   7.659   6.218   7.835  1.5095 -0.8105  1.0343
  148SAPE   C3916366   7.621   6.076   7.985 -0.4726  0.6083 -0.3415
  148SAPE   H9X16367   7.696   6.131   8.046 -0.5759 -0.8831  1.2354
  148SAPE   H9Y16368   7.647   5.968   7.989 -0.8337  0.4522 -1.9237
  148SAPE  C31016369   7.489   6.090   8.048 -0.3698 -0.2694  1.1272
  148SAPE  H10X16370   7.483   6.049   8.151  0.8128 -1.9834  0.5552
  148SAPE  H10Y16371   7.419   6.042   7.976  0.0322  0.1093  0.4700
  148SAPE  C31116372   7.456   6.240   8.068 -0.3400  0.1938 -0.2146
  148SAPE  H11X16373   7.459   6.293   7.970  2.5876  1.6647  0.5671
  148SAPE  H11Y16374   7.536   6.279   8.134  0.4366 -0.0935 -0.9531
  148SAPE  C31216375   7.328   6.268   8.139  0.5427  0.2311 -0.4313
  148SAPE  H12X16376   7.324   6.194   8.221 -1.1540 -2.9808 -3.1589
  148SAPE  H12Y16377   7.243   6.235   8.075  1.1461 -0.6504 -0.7858
  148SAPE  C31316378   7.311   6.413   8.190  0.2988  0.0477 -0.7923
  148SAPE  H13X16379   7.332   6.484   8.107 -0.0886  0.1066 -0.8446
  148SAPE  H13Y16380   7.381   6.428   8.275 -2.2881 -0.2201  1.5080
  148SAPE  C31416381   7.169   6.432   8.237 -0.3733 -0.2509  0.0194
  148SAPE  H14X16382   7.144   6.370   8.326  0.9839  0.9388  1.2862
  148SAPE  H14Y16383   7.111   6.391   8.152  1.3723 -3.6917  0.2829
  148SAPE  C31516384   7.135   6.571   8.284  0.6404 -0.5470 -0.0494
  148SAPE  H15X16385   7.207   6.588   8.366  0.4490  0.3302 -0.0470
  148SAPE  H15Y16386   7.034   6.568   8.330  0.8753 -0.0141  0.5152
  148SAPE  C31616387   7.144   6.693   8.180 -0.7036  0.2273  0.7778
  148SAPE  H16X16388   7.252   6.691   8.157 -0.3860 -2.2454  2.0917
  148SAPE  H16Y16389   7.104   6.786   8.226  1.5140  1.0745  1.1050
  148SAPE  C31716390   7.049   6.679   8.055 -0.8685 -0.2163 -0.7004
  148SAPE  H17X16391   7.101   6.608   7.988 -0.2921  0.0384 -0.5328
  148SAPE  H17Y16392   7.058   6.781   8.011  1.8620  0.3265  0.9375
  148SAPE  C31816393   6.904   6.642   8.086  0.0117 -0.3602 -0.3399
  148SAPE  H18X16394   6.859   6.728   8.140  1.2935 -0.5784  1.1314
  148SAPE  H18Y16395   6.900   6.543   8.136  0.5356 -0.2578 -0.0925
  148SAPE  H18Z16396   6.851   6.636   7.988  2.5880  2.6032 -2.1370
  149SAPE     N16397   6.375   0.623   6.435 -0.1725  0.0267  0.9864
  149SAPE   HN116398   6.449   0.694   6.416 -0.5192  0.7352  2.1592
  149SAPE   HN216399   6.379   0.545   6.366 -0.7289 -0.1695  1.1696
  149SAPE   HN316400   6.287   0.676   6.424  0.6856  1.0889 -1.2519
  149SAPE   C1216401   6.393   0.588   6.581  0.3166 -0.6416 -0.3213
  149SAPE  H12A16402   6.357   0.678   6.635 -0.4063  1.3328 -3.8133
  149SAPE  H12B16403   6.502   0.577   6.601 -0.3342 -2.9067  2.7565
  149SAPE   C1116404   6.331   0.457   6.624  0.1088 -0.5428 -0.6888
  149SAPE  H11A16405   6.224   0.488   6.618 -0.4643 -1.9166  1.3333
  149SAPE  H11B16406   6.354   0.444   6.732 -0.0138 -2.1699 -0.8406
  149SAPE     P16407   6.315   0.209   6.570  0.1800  0.2992 -0.0360
  149SAPE   O1316408   6.173   0.214   6.609 -0.5447  0.4808 -0.1313
  149SAPE   O1416409   6.336   0.121   6.456 -0.0561 -0.0087  0.3825
  149SAPE   O1216410   6.374   0.353   6.535  0.0203 -0.9422 -0.1266
  149SAPE   O1116411   6.410   0.162   6.683  0.3296 -0.2128 -0.3119
  149SAPE    C116412   6.540   0.102   6.667  0.0549  0.0679 -0.0334
  149SAPE    HA16413   6.537  -0.009   6.668 -1.3117  0.0987  0.5325
  149SAPE    HB16414   6.591   0.123   6.570 -0.7356 -2.7429 -1.1731
  149SAPE    C216415   6.632   0.145   6.784  0.6428  1.2512 -1.4652
  149SAPE    HS16416   6.734   0.110   6.755 -0.2030 -2.4132 -0.5911
  149SAPE   O2116417   6.596   0.061   6.894 -0.1659 -0.5054 -0.3989
  149SAPE   C2116418   6.684   0.007   6.973  0.7237  0.2139 -0.3321
  149SAPE   O2216419   6.803   0.004   6.958  0.2157 -0.2275  0.0659
  149SAPE   C2216420   6.608  -0.058   7.090 -0.0428  0.2083 -0.3390
  149SAPE   H2R16421   6.672  -0.057   7.180  0.8717 -0.3497 -0.9675
  149SAPE   H2S16422   6.518   0.006   7.105  0.0579  0.7132 -1.7481
  149SAPE    C316423   6.623   0.294   6.824  0.1235  0.2548 -0.6237
  149SAPE    HX16424   6.516   0.304   6.852  0.0805 -1.7324  0.1274
  149SAPE    HY16425   6.647   0.356   6.735  1.1457  0.7552 -0.0255
  149SAPE   O3116426   6.707   0.340   6.936 -0.0493 -0.2754 -0.0255
  149SAPE   C3116427   6.676   0.458   6.986 -0.2558 -0.4646 -0.3666
  149SAPE   O3216428   6.584   0.531   6.955  0.6099  0.2977 -0.1975
  149SAPE   C3216429   6.782   0.502   7.085  1.0766 -0.2010 -0.5853
  149SAPE   H2X16430   6.758   0.608   7.109  0.9293  0.1916 -2.3115
  149SAPE   H2Y16431   6.877   0.510   7.029  1.2898  0.1719 -0.1764
  149SAPE   C2316432   6.558  -0.199   7.052 -0.3294 -0.9538  0.8884
  149SAPE   H3R16433   6.640  -0.265   7.017 -0.9324 -1.0133 -0.4709
  149SAPE   H3S16434   6.499  -0.192   6.958  1.9171  0.3852 -0.5149
  149SAPE   C2416435   6.470  -0.258   7.170  0.6301  0.6122  0.0752
  149SAPE   H4R16436   6.387  -0.320   7.129 -1.8554  1.2652  3.6345
  149SAPE   H4S16437   6.419  -0.182   7.233  1.1570  1.3940 -0.4128
  149SAPE   C2516438   6.564  -0.348   7.240  0.1501 -0.0690 -0.4773
  149SAPE   H5R16439   6.642  -0.392   7.177  0.2301 -0.9281  0.2010
  149SAPE   C2616440   6.570  -0.382   7.371  0.0121  0.0886  0.2210
  149SAPE   H6R16441   6.657  -0.439   7.408  0.2946 -1.2429 -2.2669
  149SAPE   C2716442   6.477  -0.317   7.467  0.3961 -0.4654  0.2466
  149SAPE   H7R16443   6.372  -0.336   7.437  0.7227  0.1155 -1.3740
  149SAPE   H7S16444   6.493  -0.207   7.469 -2.4740  0.1401 -2.2905
  149SAPE   C2816445   6.494  -0.371   7.604 -0.2785 -0.6866  0.6593
  149SAPE   H8R16446   6.506  -0.480   7.612 -1.5895 -0.8618  0.3890
  149SAPE   C2916447   6.497  -0.298   7.717  0.0324  0.1324 -0.3390
  149SAPE   H9R16448   6.506  -0.356   7.810 -1.1488  1.4923  0.6593
  149SAPE  C21016449   6.488  -0.148   7.725  0.0652 -0.4220  0.2540
  149SAPE  H10R16450   6.384  -0.110   7.736  0.0778  0.0520 -1.1140
  149SAPE  H10S16451   6.508  -0.096   7.629 -0.6555 -2.1163 -0.8633
  149SAPE  C21116452   6.581  -0.098   7.838  0.8036 -0.5816 -0.2366
  149SAPE  H11R16453   6.687  -0.089   7.811 -0.1637  2.3928 -3.9622
  149SAPE  C21216454   6.530  -0.068   7.959  0.3425 -0.2810 -0.3415
  149SAPE  H12R16455   6.601  -0.031   8.035  0.8195  0.9467 -1.3291
  149SAPE  C21316456   6.393  -0.079   8.009 -0.2360  0.2361  0.3092
  149SAPE  H13R16457   6.384  -0.182   8.050 -2.0354 -0.1020 -0.8363
  149SAPE  H13S16458   6.328  -0.069   7.920  0.6913  0.9250 -0.3069
  149SAPE  C21416459   6.353   0.018   8.120  0.4325 -0.4490 -0.1548
  149SAPE  H14R16460   6.279   0.089   8.079  1.9369  1.0558 -0.3755
  149SAPE  C21516461   6.384   0.018   8.248 -0.0536 -0.1443 -0.1213
  149SAPE  H15R16462   6.357   0.102   8.314  0.2295  0.6970 -1.0498
  149SAPE  C21616463   6.460  -0.084   8.326  0.2454 -0.0396 -0.4013
  149SAPE  H16R16464   6.475  -0.172   8.261 -0.4548 -0.3521 -0.1550
  149SAPE  H16S16465   6.401  -0.121   8.413  0.4084 -1.8951 -1.0448
  149SAPE  C21716466   6.604  -0.048   8.384 -0.3736  0.0781 -0.2941
  149SAPE  H17R16467   6.673  -0.046   8.297 -0.5664 -0.7450 -0.4703
  149SAPE  H17S16468   6.642  -0.134   8.443 -0.0679  0.0179 -0.5784
  149SAPE  C21816469   6.617   0.089   8.457 -0.1020 -0.0320 -0.2164
  149SAPE  H18R16470   6.555   0.098   8.548 -0.6211  0.4619 -0.6156
  149SAPE  H18S16471   6.590   0.149   8.368 -0.0645  0.2809 -0.0147
  149SAPE  C21916472   6.763   0.130   8.499 -0.0117 -0.0554  0.4575
  149SAPE  H19R16473   6.793   0.060   8.579  0.4059 -1.4820 -0.8924
  149SAPE  H19S16474   6.768   0.233   8.539  1.6312  0.2134 -0.3777
  149SAPE  C22016475   6.863   0.129   8.392  0.4496 -0.6093 -0.2987
  149SAPE  H20R16476   6.814   0.176   8.304 -0.0545  1.4370  1.0342
  149SAPE  H20S16477   6.893   0.031   8.347  2.3891 -0.0111 -0.3934
  149SAPE  H20T16478   6.960   0.178   8.417 -0.1672  0.8085 -0.6164
  149SAPE   C3316479   6.809   0.399   7.198  0.5755 -0.0621 -0.7975
  149SAPE   H3X16480   6.895   0.442   7.253 -0.1349 -1.0422  1.1845
  149SAPE   H3Y16481   6.832   0.304   7.145  0.0922  0.3123 -1.7172
  149SAPE   C3416482   6.695   0.387   7.299  0.1090 -0.0298 -0.0544
  149SAPE   H4X16483   6.600   0.420   7.251  0.1229 -0.1869 -0.1900
  149SAPE   H4Y16484   6.725   0.460   7.378 -0.2480  2.0557 -1.7555
  149SAPE   C3516485   6.684   0.241   7.342  0.0238 -0.4600 -0.0943
  149SAPE   H5X16486   6.787   0.208   7.364  0.3524 -1.6660 -3.0074
  149SAPE   H5Y16487   6.651   0.194   7.247  0.6020  0.4914 -0.7887
  149SAPE   C3616488   6.601   0.213   7.457  0.1026 -0.3667  0.8277
  149SAPE   H6X16489   6.591   0.105   7.481  2.3311 -0.9889 -0.7936
  149SAPE   H6Y16490   6.498   0.246   7.431 -0.8532 -2.3653  1.8023
  149SAPE   C3716491   6.657   0.282   7.581  0.3179  0.4708 -0.0289
  149SAPE   H7X16492   6.674   0.387   7.549  2.9027 -0.3662 -1.6765
  149SAPE   H7Y16493   6.752   0.229   7.603 -0.9394 -2.1957 -0.5333
  149SAPE   C3816494   6.554   0.284   7.702  0.9208 -0.1229  0.7586
  149SAPE   H8X16495   6.552   0.179   7.739 -0.3465 -0.6694 -0.7244
  149SAPE   H8Y16496   6.455   0.303   7.656  1.8044  2.7422 -0.1674
  149SAPE   C3916497   6.616   0.367   7.815 -0.0470 -0.0758 -0.0929
  149SAPE   H9X16498   6.606   0.472   7.781 -1.4245 -0.3682 -0.6404
  149SAPE   H9Y16499   6.725   0.344   7.825 -0.1651 -0.3273  0.6836
  149SAPE  C31016500   6.549   0.352   7.950 -0.1134  0.5512  0.1502
  149SAPE  H10X16501   6.550   0.247   7.985 -3.4133  0.5192  0.4837
  149SAPE  H10Y16502   6.440   0.373   7.946 -0.1091  0.4277 -1.7509
  149SAPE  C31116503   6.616   0.446   8.045  0.2343 -0.1252  0.0008
  149SAPE  H11X16504   6.594   0.545   8.000 -1.6636  0.1387  1.3987
  149SAPE  H11Y16505   6.726   0.428   8.048  0.2505  0.0846  1.5426
  149SAPE  C31216506   6.555   0.440   8.186 -0.4673 -0.4345 -0.5263
  149SAPE  H12X16507   6.583   0.340   8.225 -1.3768 -0.3828  0.3167
  149SAPE  H12Y16508   6.446   0.460   8.186 -0.2557  0.9029 -2.1146
  149SAPE  C31316509   6.624   0.532   8.289  0.3309  0.2804  0.5721
  149SAPE  H13X16510   6.627   0.627   8.231 -1.3085  0.3466  0.5370
  149SAPE  H13Y16511   6.725   0.496   8.315 -0.1554 -1.4609  0.1758
  149SAPE  C31416512   6.539   0.553   8.417 -0.7050 -0.7485  0.0434
  149SAPE  H14X16513   6.482   0.461   8.443 -1.0976 -0.9392 -1.3834
  149SAPE  H14Y16514   6.463   0.628   8.386  0.6117  0.5416 -0.1559
  149SAPE  C31516515   6.626   0.607   8.535  0.9074 -0.1840 -0.0616
  149SAPE  H15X16516   6.660   0.711   8.514  0.5380  0.1496  0.9403
  149SAPE  H15Y16517   6.713   0.540   8.526  1.3669  0.4342 -0.2997
  149SAPE  C31616518   6.563   0.598   8.669  0.6496  0.5429  0.6266
  149SAPE  H16X16519   6.651   0.615   8.735  1.7488  0.5033 -0.7838
  149SAPE  H16Y16520   6.518   0.499   8.694  1.2900 -0.5636 -2.1911
  149SAPE  C31716521   6.458   0.705   8.698 -0.3529  0.2822 -0.1711
  149SAPE  H17X16522   6.375   0.693   8.626  0.7842 -0.8123 -1.3622
  149SAPE  H17Y16523   6.500   0.806   8.679  2.6529 -0.3649  2.1633
  149SAPE  C31816524   6.398   0.677   8.832 -0.3943 -0.6344 -0.7932
  149SAPE  H18X16525   6.328   0.591   8.830  0.7943 -1.6932  0.7850
  149SAPE  H18Y16526   6.341   0.760   8.879 -0.7976 -1.2533 -0.1670
  149SAPE  H18Z16527   6.473   0.654   8.911 -0.9375 -1.2799 -0.4476
  150SAPE     N16528   6.340   1.134   6.549 -0.1369 -0.0444 -0.1369
  150SAPE   HN116529   6.397   1.049   6.533 -2.3325 -1.6288 -0.0678
  150SAPE   HN216530   6.243   1.106   6.524  0.0151 -0.5535 -0.1707
  150SAPE   HN316531   6.379   1.204   6.483  1.1062 -0.5118  0.0798
  150SAPE   C1216532   6.352   1.174   6.691  0.6007 -0.1657  0.0929
  150SAPE  H12A16533   6.349   1.081   6.752 -1.4236 -1.0653 -1.2767
  150SAPE  H12B16534   6.262   1.237   6.711  0.4768 -0.1370 -0.5387
  150SAPE   C1116535   6.471   1.261   6.718 -0.0946  0.0327 -0.2637
  150SAPE  H11A16536   6.555   1.193   6.695  0.2298  1.0512 -2.3559
  150SAPE  H11B16537   6.487   1.286   6.825 -1.1595  2.4475 -0.5934
  150SAPE     P16538   6.441   1.519   6.701  0.0233  0.1863 -0.0434
  150SAPE   O1316539   6.487   1.631   6.619 -0.4834  0.4654  0.1082
  150SAPE   O1416540   6.296   1.516   6.736 -0.1596 -0.6341  0.3894
  150SAPE   O1216541   6.475   1.380   6.629 -0.3131  0.0380  0.0026
  150SAPE   O1116542   6.521   1.507   6.839  0.5346  0.7350 -0.7140
  150SAPE    C116543   6.532   1.623   6.925 -0.3177 -0.3189  0.5609
  150SAPE    HA16544   6.635   1.662   6.931  0.3115 -1.8619  0.3679
  150SAPE    HB16545   6.466   1.709   6.903 -0.8324 -0.1459  2.6002
  150SAPE    C216546   6.494   1.576   7.069 -0.2600 -0.1859 -0.3839
  150SAPE    HS16547   6.391   1.536   7.078 -0.2696 -0.1946 -0.5253
  150SAPE   O2116548   6.515   1.692   7.160  0.2616  0.1071  0.1304
  150SAPE   C2116549   6.421   1.784   7.164 -0.5070 -0.5333 -0.0991
  150SAPE   O2216550   6.323   1.790   7.092 -0.2902 -0.3597  0.3463
  150SAPE   C2216551   6.440   1.888   7.276 -0.3608  0.1483 -0.2443
  150SAPE   H2R16552   6.394   1.848   7.369 -1.1812  1.8893  0.1349
  150SAPE   H2S16553   6.550   1.890   7.289 -0.1497 -1.5083 -1.4193
  150SAPE    C316554   6.587   1.454   7.124  0.5508  0.0027  0.0026
  150SAPE    HX16555   6.692   1.487   7.114 -0.0686  2.1183 -0.1409
  150SAPE    HY16556   6.563   1.362   7.067 -3.7451  0.7744  0.1702
  150SAPE   O3116557   6.585   1.449   7.267  0.0071 -0.1050 -0.2944
  150SAPE   C3116558   6.476   1.388   7.321  0.0012 -0.1448  1.2200
  150SAPE   O3216559   6.377   1.355   7.260  0.4777 -0.5775 -0.1550
  150SAPE   C3216560   6.491   1.354   7.467 -0.0280 -0.8061  0.0113
  150SAPE   H2X16561   6.522   1.249   7.483  1.7496 -0.1372  1.2899
  150SAPE   H2Y16562   6.387   1.359   7.505 -0.4965  0.9374 -1.3227
  150SAPE   C2316563   6.381   2.024   7.237  0.3001 -0.3023 -0.5976
  150SAPE   H3R16564   6.272   2.011   7.220 -0.0628  0.0304  1.2594
  150SAPE   H3S16565   6.423   2.057   7.140 -0.3969  0.8965 -0.5152
  150SAPE   C2416566   6.404   2.138   7.336  0.0556  0.1690 -0.1139
  150SAPE   H4R16567   6.389   2.241   7.296  2.1227 -0.0488 -1.6077
  150SAPE   H4S16568   6.510   2.137   7.369  0.0901  2.1677 -0.0543
  150SAPE   C2516569   6.303   2.115   7.444 -0.1720 -0.7292 -0.0197
  150SAPE   H5R16570   6.201   2.103   7.407  0.0298  0.7978 -1.1904
  150SAPE   C2616571   6.320   2.107   7.581  0.3960  0.5061  0.4032
  150SAPE   H6R16572   6.238   2.075   7.647  0.3925  1.6532  0.9871
  150SAPE   C2716573   6.453   2.113   7.645  0.1177  0.1992 -0.5016
  150SAPE   H7R16574   6.463   2.217   7.685 -2.9541 -0.5220  2.6567
  150SAPE   H7S16575   6.543   2.103   7.580  0.4133 -1.4314  0.1216
  150SAPE   C2816576   6.458   2.013   7.755 -0.2214 -0.1707  0.6363
  150SAPE   H8R16577   6.504   1.919   7.722  0.1829  1.3862 -3.9633
  150SAPE   C2916578   6.425   2.041   7.886  0.4561  0.0365  0.1511
  150SAPE   H9R16579   6.433   1.965   7.966  0.4401 -1.1936 -0.9890
  150SAPE  C21016580   6.360   2.166   7.925  0.1185  0.3433 -0.2228
  150SAPE  H10R16581   6.275   2.184   7.855 -1.7804 -2.3246  1.2011
  150SAPE  H10S16582   6.440   2.242   7.913  0.5846 -0.1254 -0.1371
  150SAPE  C21116583   6.307   2.165   8.065 -0.3834 -0.6866  0.0978
  150SAPE  H11R16584   6.217   2.106   8.086  1.0784 -3.2525 -0.4117
  150SAPE  C21216585   6.337   2.261   8.153  0.1854 -0.1920  0.4324
  150SAPE  H12R16586   6.302   2.254   8.256  3.4769  0.6597  1.7344
  150SAPE  C21316587   6.440   2.372   8.134  0.0779  0.5452  0.1177
  150SAPE  H13R16588   6.447   2.404   8.028 -1.2584 -0.5133 -0.3205
  150SAPE  H13S16589   6.537   2.344   8.180 -0.3923  0.9603  1.4311
  150SAPE  C21416590   6.377   2.496   8.202  0.2027 -0.1237 -0.1142
  150SAPE  H14R16591   6.285   2.533   8.154 -0.5506 -0.1633  1.2371
  150SAPE  C21516592   6.428   2.562   8.311  0.0307  0.5547 -0.6937
  150SAPE  H15R16593   6.364   2.637   8.359  0.1380 -0.5745  1.2924
  150SAPE  C21616594   6.555   2.523   8.382  1.0475  0.5116 -0.3788
  150SAPE  H16R16595   6.650   2.569   8.347  1.2004  0.2441 -0.3135
  150SAPE  H16S16596   6.577   2.415   8.371 -1.7453 -0.2747  0.8554
  150SAPE  C21716597   6.548   2.551   8.532 -0.1371 -0.7648  0.3364
  150SAPE  H17R16598   6.456   2.507   8.575 -2.1937  1.1880 -1.7484
  150SAPE  H17S16599   6.531   2.660   8.543  1.6173 -0.0869 -2.5692
  150SAPE  C21816600   6.676   2.508   8.608 -0.1578 -0.2880  0.5763
  150SAPE  H18R16601   6.757   2.576   8.573 -1.1572  1.4587  1.5278
  150SAPE  H18S16602   6.709   2.402   8.602 -0.2957 -0.2670 -1.4086
  150SAPE  C21916603   6.664   2.535   8.755  0.3186 -0.0833  0.4288
  150SAPE  H19R16604   6.573   2.479   8.786  1.1544 -1.2608  0.8161
  150SAPE  H19S16605   6.653   2.644   8.773 -0.4115  0.3312 -2.0646
  150SAPE  C22016606   6.790   2.493   8.834  0.3148 -1.0518 -0.9749
  150SAPE  H20R16607   6.802   2.385   8.854  0.0748 -0.8109  0.5356
  150SAPE  H20S16608   6.786   2.532   8.937  0.9989  0.1277 -1.3778
  150SAPE  H20T16609   6.882   2.538   8.790 -0.9562  3.0743  0.1313
  150SAPE   C3316610   6.586   1.453   7.538 -0.1108  0.1456 -0.1774
  150SAPE   H3X16611   6.534   1.550   7.522 -0.5258 -0.1180 -0.4341
  150SAPE   H3Y16612   6.679   1.445   7.477 -0.7147  0.3021 -1.1323
  150SAPE   C3416613   6.610   1.398   7.677 -0.2399 -0.2381 -0.0910
  150SAPE   H4X16614   6.715   1.409   7.713  0.2623 -0.4946 -1.4323
  150SAPE   H4Y16615   6.577   1.292   7.687 -1.2556  0.0434 -0.3684
  150SAPE   C3516616   6.538   1.503   7.763  0.5354 -0.2896 -0.2448
  150SAPE   H5X16617   6.430   1.508   7.736  0.4905  1.7490  0.1429
  150SAPE   H5Y16618   6.580   1.606   7.763  1.0419 -0.4956  0.1240
  150SAPE   C3616619   6.531   1.452   7.905 -0.4668 -0.7688  0.1324
  150SAPE   H6X16620   6.636   1.429   7.930  0.7695  3.3539 -0.4019
  150SAPE   H6Y16621   6.474   1.357   7.905 -1.1134 -0.4603 -2.6046
  150SAPE   C3716622   6.487   1.549   8.015 -0.3096  0.4703 -0.6596
  150SAPE   H7X16623   6.452   1.488   8.101 -1.3799  1.8810 -0.0568
  150SAPE   H7Y16624   6.405   1.614   7.977 -1.8976 -0.8916  0.2589
  150SAPE   C3816625   6.594   1.635   8.084 -0.4682  0.0440 -0.1756
  150SAPE   H8X16626   6.657   1.694   8.013 -0.8625 -0.1446 -0.6917
  150SAPE   H8Y16627   6.658   1.568   8.146  1.2155  1.1626 -0.6212
  150SAPE   C3916628   6.527   1.738   8.165  0.1572 -0.1788  0.8660
  150SAPE   H9X16629   6.458   1.696   8.242 -1.6511  0.7958 -0.1595
  150SAPE   H9Y16630   6.464   1.808   8.105 -1.2537 -1.2518  1.0405
  150SAPE  C31016631   6.622   1.819   8.251  0.1311 -0.2087  0.3118
  150SAPE  H10X16632   6.704   1.855   8.184  0.6094 -0.4703  0.7513
  150SAPE  H10Y16633   6.670   1.747   8.320 -2.2351 -2.6347 -0.3817
  150SAPE  C31116634   6.562   1.943   8.322  0.1169  0.2133 -0.1426
  150SAPE  H11X16635   6.504   2.010   8.255  1.8266  2.7609  0.7755
  150SAPE  H11Y16636   6.646   2.004   8.360  0.4351  0.0896 -0.6428
  150SAPE  C31216637   6.480   1.915   8.455  0.6681  0.4351  0.7162
  150SAPE  H12X16638   6.377   1.879   8.435  0.8719  0.5168 -0.5319
  150SAPE  H12Y16639   6.447   2.005   8.512 -3.0832 -1.1600  1.3873
  150SAPE  C31316640   6.538   1.805   8.542  0.1448  0.1344 -0.2123
  150SAPE  H13X16641   6.648   1.819   8.551  0.0894  0.1000  0.5179
  150SAPE  H13Y16642   6.517   1.708   8.492  0.2841 -0.0021 -0.0059
  150SAPE  C31416643   6.473   1.807   8.680  0.2156 -0.2855 -0.0039
  150SAPE  H14X16644   6.362   1.814   8.674  0.3470  1.4632 -3.3132
  150SAPE  H14Y16645   6.504   1.905   8.721  0.5693  0.6578 -2.3344
  150SAPE  C31516646   6.519   1.690   8.756  0.0145  0.0085 -0.0097
  150SAPE  H15X16647   6.616   1.715   8.803  0.0757  0.6705 -0.4728
  150SAPE  H15Y16648   6.532   1.599   8.693  0.7010  1.0447 -1.4320
  150SAPE  C31616649   6.420   1.656   8.869  0.4024 -0.2359 -0.5701
  150SAPE  H16X16650   6.455   1.559   8.909  0.2575  0.6065  1.7432
  150SAPE  H16Y16651   6.317   1.653   8.826  0.6508  3.6501 -1.8312
  150SAPE  C31716652   6.420   1.757   8.981 -0.0800 -0.4435  0.8816
  150SAPE  H17X16653   6.395   1.852   8.929  2.1114 -0.7388 -0.8871
  150SAPE  H17Y16654   6.524   1.774   9.017 -0.5614  0.0509  2.0973
  150SAPE  C31816655   6.323   1.723   9.097  0.5949 -0.2493  0.2014
  150SAPE  H18X16656   6.347   1.621   9.134  0.1078 -0.5782 -0.3804
  150SAPE  H18Y16657   6.215   1.738   9.075  1.5204  3.0020 -3.1902
  150SAPE  H18Z16658   6.346   1.800   9.174  1.2023 -1.2240  1.0129
  151SAPE     N16659   0.747   5.545   6.131  0.1855 -0.2527  0.5172
  151SAPE   HN116660   0.659   5.528   6.079 -0.6363  1.9001  1.1084
  151SAPE   HN216661   0.806   5.459   6.124 -0.1735 -0.4327 -0.4517
  151SAPE   HN316662   0.729   5.565   6.231 -1.2763 -0.9768  0.4241
  151SAPE   C1216663   0.824   5.659   6.065 -0.3997 -0.1161  0.7314
  151SAPE  H12A16664   0.756   5.743   6.038  2.1060  1.8821  0.2928
  151SAPE  H12B16665   0.872   5.627   5.970 -0.8425  2.2263 -0.3535
  151SAPE   C1116666   0.936   5.703   6.168  0.6430  0.0970  0.9495
  151SAPE  H11A16667   0.982   5.796   6.127 -0.1151  0.6089  1.2376
  151SAPE  H11B16668   1.013   5.623   6.172 -0.0174 -0.5344  1.2527
  151SAPE     P16669   0.989   5.728   6.412 -0.2396 -0.0525  0.2806
  151SAPE   O1316670   0.920   5.752   6.537 -1.0625  0.3038  0.1439
  151SAPE   O1416671   1.084   5.609   6.401  0.0616 -0.0019 -0.4421
  151SAPE   O1216672   0.877   5.728   6.298 -0.7627  0.6331 -0.1903
  151SAPE   O1116673   1.073   5.857   6.382  0.5848  0.6020  0.4284
  151SAPE    C116674   1.021   5.988   6.359  0.3965 -0.5614  0.3963
  151SAPE    HA16675   1.078   6.039   6.278 -1.6048 -0.2658 -0.9095
  151SAPE    HB16676   0.922   5.981   6.308  0.7009  0.0450 -0.2975
  151SAPE    C216677   1.027   6.088   6.481 -0.5393  0.0736  0.1856
  151SAPE    HS16678   1.044   6.188   6.436  2.4039 -0.4363 -0.0154
  151SAPE   O2116679   1.141   6.059   6.575 -0.9386  0.2879  0.8289
  151SAPE   C2116680   1.266   6.090   6.525 -0.4024  0.1750  1.0276
  151SAPE   O2216681   1.285   6.166   6.430  0.1498 -0.7059 -0.3652
  151SAPE   C2216682   1.369   6.021   6.614 -0.6086 -0.6878  0.3151
  151SAPE   H2R16683   1.323   5.971   6.702  0.7636 -0.7809  0.9906
  151SAPE   H2S16684   1.419   5.939   6.558  2.7149  1.0133  0.5588
  151SAPE    C316685   0.895   6.092   6.549 -1.6400 -1.1932  0.4671
  151SAPE    HX16686   0.836   5.998   6.556 -2.7059 -0.6587 -0.9225
  151SAPE    HY16687   0.835   6.149   6.475 -0.7888 -0.2073  0.5219
  151SAPE   O3116688   0.903   6.150   6.680  0.5275  0.1469  0.3326
  151SAPE   C3116689   0.922   6.279   6.701  0.1931 -0.1343  0.0930
  151SAPE   O3216690   0.928   6.361   6.609  0.0622 -0.2868 -1.3812
  151SAPE   C3216691   0.945   6.309   6.848  0.3561 -0.0091  0.8284
  151SAPE   H2X16692   0.978   6.215   6.897  0.9043  0.2805  1.0243
  151SAPE   H2Y16693   0.847   6.348   6.882  1.5980  2.3331  1.9621
  151SAPE   C2316694   1.472   6.127   6.666 -0.5729 -0.2631  0.2453
  151SAPE   H3R16695   1.524   6.169   6.577 -1.4474 -0.2865 -0.2852
  151SAPE   H3S16696   1.547   6.067   6.721 -0.5681 -0.5284 -0.0508
  151SAPE   C2416697   1.421   6.236   6.749  0.0399 -0.2113 -0.8103
  151SAPE   H4R16698   1.350   6.296   6.688 -0.2361  1.8712  1.3876
  151SAPE   H4S16699   1.495   6.318   6.766 -1.3150  0.7302  0.8170
  151SAPE   C2516700   1.357   6.192   6.881  0.0384 -0.6032 -0.7707
  151SAPE   H5R16701   1.259   6.143   6.875 -0.2431 -0.0121 -1.0933
  151SAPE   C2616702   1.418   6.200   7.001 -0.1258  0.3235 -0.4342
  151SAPE   H6R16703   1.357   6.158   7.081 -1.5770 -0.1065 -1.7190
  151SAPE   C2716704   1.564   6.240   7.032 -0.9005 -0.5346  0.1544
  151SAPE   H7R16705   1.571   6.336   7.087 -2.7756  1.7574 -3.2283
  151SAPE   H7S16706   1.621   6.255   6.938  2.2174  1.9142  2.2239
  151SAPE   C2816707   1.643   6.126   7.097  0.4619 -1.2010  0.4069
  151SAPE   H8R16708   1.685   6.054   7.025 -0.1781 -0.6589 -0.5158
  151SAPE   C2916709   1.646   6.092   7.227 -0.9369 -0.9046 -0.2388
  151SAPE   H9R16710   1.708   6.009   7.261  0.6376  0.5708  0.6547
  151SAPE  C21016711   1.583   6.165   7.343 -0.1887 -0.1732  0.5588
  151SAPE  H10R16712   1.572   6.273   7.319 -0.0756 -0.4747 -0.9324
  151SAPE  H10S16713   1.649   6.154   7.432  1.3290  0.6049 -0.4155
  151SAPE  C21116714   1.437   6.122   7.361 -0.2082 -0.0621 -0.1031
  151SAPE  H11R16715   1.384   6.093   7.269  2.4919  3.3796 -3.0458
  151SAPE  C21216716   1.364   6.117   7.473  0.0591  0.3804  0.0958
  151SAPE  H12R16717   1.258   6.091   7.471 -0.1739  1.2437  0.8150
  151SAPE  C21316718   1.413   6.158   7.615 -0.0698 -0.1340  0.4303
  151SAPE  H13R16719   1.317   6.155   7.670  0.0792 -0.8159  0.6641
  151SAPE  H13S16720   1.445   6.264   7.628  2.3968 -0.9558  1.7863
  151SAPE  C21416721   1.524   6.064   7.657  0.1308  0.2678 -0.2137
  151SAPE  H14R16722   1.579   6.008   7.580  1.7409  1.3623  0.1099
  151SAPE  C21516723   1.555   6.049   7.787 -0.0493  0.1199 -0.6403
  151SAPE  H15R16724   1.644   5.991   7.813 -0.7802 -2.4401 -3.3103
  151SAPE  C21616725   1.492   6.100   7.914  1.4137 -0.1801 -0.6318
  151SAPE  H16R16726   1.420   6.181   7.890  2.1842  0.3952 -1.0718
  151SAPE  H16S16727   1.563   6.134   7.992  2.5809  0.2887 -1.8478
  151SAPE  C21716728   1.426   5.973   7.976 -0.0486 -0.4239 -0.7162
  151SAPE  H17R16729   1.496   5.887   7.987 -1.1064 -1.2441 -0.1678
  151SAPE  H17S16730   1.333   5.946   7.921 -0.2347  0.6439 -0.9398
  151SAPE  C21816731   1.377   5.994   8.123  0.4208  0.4180  0.2389
  151SAPE  H18R16732   1.466   6.000   8.188 -0.4368 -0.5035  1.5427
  151SAPE  H18S16733   1.324   5.906   8.166  0.1606  1.4098  2.0282
  151SAPE  C21916734   1.293   6.130   8.134 -0.0838  0.3631  0.0902
  151SAPE  H19R16735   1.227   6.137   8.045 -1.2404 -1.0802  0.7853
  151SAPE  H19S16736   1.359   6.218   8.145  0.8310 -0.4254  1.1363
  151SAPE  C22016737   1.196   6.115   8.250  0.1243 -0.4971 -0.1589
  151SAPE  H20R16738   1.152   6.017   8.280  0.2329 -0.6801 -0.5953
  151SAPE  H20S16739   1.249   6.157   8.338 -1.5691  2.9878 -0.6709
  151SAPE  H20T16740   1.112   6.187   8.244  0.4523  0.1962  2.3904
  151SAPE   C3316741   1.043   6.424   6.874 -0.0476  0.1568  0.1254
  151SAPE   H3X16742   1.010   6.526   6.842  3.2258  1.3254  0.1590
  151SAPE   H3Y16743   1.139   6.403   6.823 -1.2968  1.2558 -2.9421
  151SAPE   C3416744   1.084   6.427   7.020  0.2065  0.3243  0.8885
  151SAPE   H4X16745   1.126   6.325   7.035 -0.5992 -0.0440  0.7005
  151SAPE   H4Y16746   0.994   6.436   7.085 -0.7091  0.1001 -0.3060
  151SAPE   C3516747   1.191   6.532   7.041  0.1102 -0.0166  0.3567
  151SAPE   H5X16748   1.135   6.628   7.039 -3.7032 -2.0424  1.6098
  151SAPE   H5Y16749   1.267   6.527   6.959 -0.4833  0.7836 -0.2600
  151SAPE   C3616750   1.241   6.523   7.184  0.5257  0.2396  0.4573
  151SAPE   H6X16751   1.319   6.596   7.212 -1.9326  2.6694  1.5001
  151SAPE   H6Y16752   1.279   6.420   7.200 -0.1249  0.2522  2.3900
  151SAPE   C3716753   1.132   6.547   7.289 -0.5211 -0.0779 -1.0681
  151SAPE   H7X16754   1.047   6.477   7.272 -0.5102 -0.1909 -0.6804
  151SAPE   H7Y16755   1.089   6.648   7.276  1.9971  1.0218 -1.4700
  151SAPE   C3816756   1.196   6.535   7.431  0.0864  0.3538  0.1268
  151SAPE   H8X16757   1.293   6.588   7.434  1.4208 -1.9651  1.7866
  151SAPE   H8Y16758   1.209   6.426   7.451 -0.2931  0.2016 -0.4436
  151SAPE   C3916759   1.103   6.594   7.536  0.0779  0.2240  0.1971
  151SAPE   H9X16760   1.012   6.531   7.526  0.4227  0.0501 -2.6934
  151SAPE   H9Y16761   1.077   6.701   7.525  0.3864  0.3387  0.5375
  151SAPE  C31016762   1.165   6.572   7.680  0.6449 -0.2377 -0.0579
  151SAPE  H10X16763   1.127   6.644   7.755  0.1853 -0.6661  0.1224
  151SAPE  H10Y16764   1.271   6.604   7.671  0.5699 -0.2608 -1.2175
  151SAPE  C31116765   1.156   6.422   7.730 -0.0728  0.1131  0.4816
  151SAPE  H11X16766   1.166   6.359   7.639  0.4246 -0.4730  0.9312
  151SAPE  H11Y16767   1.051   6.405   7.762 -0.0757  0.1117  0.4721
  151SAPE  C31216768   1.248   6.387   7.848  0.4699  0.0879 -0.5457
  151SAPE  H12X16769   1.353   6.402   7.815 -0.2406  0.6997 -2.6661
  151SAPE  H12Y16770   1.237   6.281   7.881 -1.4263  0.2509 -0.5262
  151SAPE  C31316771   1.223   6.472   7.976  0.6799 -0.6843 -0.3019
  151SAPE  H13X16772   1.241   6.580   7.955 -1.4751 -0.9191 -4.2534
  151SAPE  H13Y16773   1.302   6.441   8.048 -0.3419  0.4062  1.3699
  151SAPE  C31416774   1.086   6.438   8.036  0.2785 -0.1840 -0.4315
  151SAPE  H14X16775   1.088   6.329   8.060 -0.7630 -0.4451 -1.4262
  151SAPE  H14Y16776   1.005   6.450   7.962 -0.3017 -0.0884  0.2039
  151SAPE  C31516777   1.056   6.515   8.159 -0.1205 -0.3886 -0.1394
  151SAPE  H15X16778   1.140   6.499   8.229  0.1033  2.1894  0.2961
  151SAPE  H15Y16779   0.967   6.470   8.208 -0.5845  0.8856  0.2449
  151SAPE  C31616780   1.030   6.662   8.130  0.7444  0.2349 -0.0030
  151SAPE  H16X16781   0.952   6.672   8.052  2.2962  0.6168 -1.5866
  151SAPE  H16Y16782   1.126   6.709   8.098  0.9565 -0.0422  0.2151
  151SAPE  C31716783   0.985   6.729   8.262  0.0182  0.3423  0.4354
  151SAPE  H17X16784   1.061   6.721   8.343 -1.5102  1.5420  2.0786
  151SAPE  H17Y16785   0.897   6.671   8.297  2.0692 -2.3131  1.4656
  151SAPE  C31816786   0.973   6.879   8.240  0.0136  0.6436  0.2465
  151SAPE  H18X16787   0.893   6.911   8.170  0.8304  2.7693  0.1889
  151SAPE  H18Y16788   1.063   6.931   8.200  0.8529  0.5983  2.0051
  151SAPE  H18Z16789   0.948   6.934   8.333  0.5720 -0.5155  1.0995
  152SAPE     N16790   5.538   1.311   6.015 -0.5359 -0.0584 -0.5412
  152SAPE   HN116791   5.513   1.211   6.006 -0.7448 -0.2161  1.3981
  152SAPE   HN216792   5.450   1.355   6.048 -0.7313 -0.8621  0.0325
  152SAPE   HN316793   5.574   1.344   5.923  0.1675 -0.6226 -0.4771
  152SAPE   C1216794   5.636   1.325   6.123  0.0861 -0.9284  0.1410
  152SAPE  H12A16795   5.732   1.335   6.069 -1.5326  0.2495 -2.7434
  152SAPE  H12B16796   5.630   1.245   6.201  0.5391 -0.1072  1.0299
  152SAPE   C1116797   5.609   1.455   6.200 -0.0851 -0.3199  0.2507
  152SAPE  H11A16798   5.625   1.539   6.129  0.3746 -1.1323 -0.6291
  152SAPE  H11B16799   5.690   1.460   6.275 -0.1671  0.4077  0.2957
  152SAPE     P16800   5.431   1.561   6.371 -0.7813 -0.4211 -0.1089
  152SAPE   O1316801   5.440   1.703   6.332  0.7897 -0.2014 -0.0925
  152SAPE   O1416802   5.299   1.519   6.415  0.4073  0.4918  0.2418
  152SAPE   O1216803   5.480   1.464   6.253 -0.1587 -0.0713 -0.1505
  152SAPE   O1116804   5.534   1.524   6.486 -0.0178  0.3252 -0.0091
  152SAPE    C116805   5.657   1.585   6.511  0.1095  0.0805  0.1044
  152SAPE    HA16806   5.736   1.512   6.483  1.0077  1.6463 -1.6962
  152SAPE    HB16807   5.683   1.672   6.447  0.7840  0.7550  1.2539
  152SAPE    C216808   5.672   1.618   6.665  0.7692 -0.8182 -0.6435
  152SAPE    HS16809   5.762   1.678   6.692  0.1776 -1.2101  2.7641
  152SAPE   O2116810   5.670   1.500   6.749 -0.3794 -0.2520 -0.1435
  152SAPE   C2116811   5.779   1.433   6.763  0.1965  0.0640  0.3173
  152SAPE   O2216812   5.878   1.451   6.697  0.1094  0.1453 -0.0412
  152SAPE   C2216813   5.763   1.329   6.868  0.4761 -0.2099 -0.7957
  152SAPE   H2R16814   5.773   1.385   6.963  0.1097 -0.9088 -0.3309
  152SAPE   H2S16815   5.661   1.284   6.857  1.5516 -2.7744 -1.1313
  152SAPE    C316816   5.555   1.717   6.708  0.2646 -0.1665  0.9483
  152SAPE    HX16817   5.454   1.675   6.690  0.6984 -0.3015 -1.5141
  152SAPE    HY16818   5.550   1.801   6.635  0.7679 -1.1433 -0.2322
  152SAPE   O3116819   5.581   1.773   6.840 -0.0410  0.3708 -0.2660
  152SAPE   C3116820   5.638   1.888   6.851  0.0260  0.4020  0.5817
  152SAPE   O3216821   5.669   1.951   6.752 -0.0028 -0.0295 -0.0494
  152SAPE   C3216822   5.647   1.937   7.000  0.2037  0.0768  0.1140
  152SAPE   H2X16823   5.753   1.939   7.033 -0.4679  0.9956  2.3795
  152SAPE   H2Y16824   5.593   1.868   7.068 -0.5033  1.0888  0.6104
  152SAPE   C2316825   5.842   1.195   6.857  0.1003 -0.7904 -0.2458
  152SAPE   H3R16826   5.816   1.151   6.758 -1.4837 -1.9092  0.6204
  152SAPE   H3S16827   5.816   1.128   6.942  1.7686  1.4765  2.2322
  152SAPE   C2416828   5.994   1.213   6.866  0.5782  0.3154  0.2514
  152SAPE   H4R16829   6.035   1.258   6.773  0.3389  0.2437  0.1093
  152SAPE   H4S16830   6.039   1.112   6.872 -0.7941 -0.3988 -0.7729
  152SAPE   C2516831   6.019   1.296   6.985 -0.5965 -0.6881 -0.7034
  152SAPE   H5R16832   6.025   1.405   6.968  2.1050 -0.9454 -2.1184
  152SAPE   C2616833   6.058   1.233   7.102 -0.4066  0.8069 -0.7417
  152SAPE   H6R16834   6.078   1.292   7.192 -0.6320 -1.2709  0.7304
  152SAPE   C2716835   6.077   1.083   7.137  0.0178 -0.5923  0.2279
  152SAPE   H7R16836   6.187   1.089   7.150 -0.1347  0.4700  1.1442
  152SAPE   H7S16837   6.061   1.019   7.047 -0.9564  0.2373 -0.2096
  152SAPE   C2816838   6.018   1.036   7.265  0.1216 -0.2088 -0.2818
  152SAPE   H8R16839   5.924   0.983   7.247  0.4065 -0.3873 -1.3187
  152SAPE   C2916840   6.044   1.066   7.390 -0.1872  0.3452 -1.0038
  152SAPE   H9R16841   6.004   1.011   7.476  0.5298 -0.4046 -1.1330
  152SAPE  C21016842   6.161   1.152   7.440  0.2931 -1.2742  0.1678
  152SAPE  H10R16843   6.224   1.183   7.354 -0.2935  0.6385  0.3726
  152SAPE  H10S16844   6.227   1.086   7.499  0.3648  1.4537  3.4783
  152SAPE  C21116845   6.123   1.286   7.501 -0.1297 -0.1077 -0.6151
  152SAPE  H11R16846   6.111   1.366   7.426 -0.4635 -1.0420 -1.5863
  152SAPE  C21216847   6.094   1.306   7.634  0.2771 -0.2029 -0.3589
  152SAPE  H12R16848   6.072   1.407   7.672 -0.8752 -0.9100  0.9473
  152SAPE  C21316849   6.103   1.206   7.746  0.0164 -0.7644 -0.1813
  152SAPE  H13R16850   6.152   1.118   7.698  2.0049  0.2279 -0.0721
  152SAPE  H13S16851   6.000   1.191   7.784 -0.6663  2.7996 -0.2814
  152SAPE  C21416852   6.207   1.277   7.838 -0.3387 -0.1705  0.9198
  152SAPE  H14R16853   6.307   1.272   7.795 -1.0431 -0.0835 -0.7900
  152SAPE  C21516854   6.183   1.331   7.958  0.2342 -0.0809 -0.2275
  152SAPE  H15R16855   6.265   1.390   8.002  1.8220 -2.4433  0.1832
  152SAPE  C21616856   6.053   1.345   8.031 -0.1530 -1.0262  0.5198
  152SAPE  H16R16857   5.989   1.259   8.003  1.2185 -1.2500 -2.2989
  152SAPE  H16S16858   6.004   1.439   7.999  2.5421  0.2497 -0.1831
  152SAPE  C21716859   6.084   1.340   8.183  0.4302  0.7986 -0.3552
  152SAPE  H17R16860   6.157   1.261   8.209  0.5238  1.3168  1.1123
  152SAPE  H17S16861   5.989   1.318   8.236  0.9845  1.0494  0.7847
  152SAPE  C21816862   6.136   1.473   8.243 -0.2451 -0.3156 -0.1892
  152SAPE  H18R16863   6.052   1.546   8.235 -0.5663 -0.7977 -1.4428
  152SAPE  H18S16864   6.216   1.519   8.181  0.2718 -0.8011  0.1079
  152SAPE  C21916865   6.174   1.454   8.384  0.0506 -0.2556 -0.2122
  152SAPE  H19R16866   6.264   1.388   8.388 -0.8355 -1.4679  0.6282
  152SAPE  H19S16867   6.097   1.415   8.453 -0.0278  1.1561  0.5161
  152SAPE  C22016868   6.235   1.587   8.438  0.3806  0.5245 -0.2653
  152SAPE  H20R16869   6.320   1.617   8.374 -0.0680  1.3582 -0.4780
  152SAPE  H20S16870   6.270   1.585   8.543  0.4334 -1.5592 -0.2802
  152SAPE  H20T16871   6.160   1.668   8.426  0.2209  0.2565 -1.1296
  152SAPE   C3316872   5.577   2.074   7.022 -0.1711  0.5014 -0.4692
  152SAPE   H3X16873   5.467   2.058   7.028  0.1861 -1.9551  1.1562
  152SAPE   H3Y16874   5.616   2.152   6.955  0.9175  0.1514 -0.2587
  152SAPE   C3416875   5.605   2.124   7.165  0.1410 -0.1440  0.3788
  152SAPE   H4X16876   5.553   2.221   7.185  1.1974  0.3020  1.0447
  152SAPE   H4Y16877   5.714   2.136   7.182  0.0350  0.9969  0.3427
  152SAPE   C3516878   5.563   2.033   7.277 -0.9294 -0.2576  0.2211
  152SAPE   H5X16879   5.630   1.945   7.283 -0.5669  0.0807  1.8210
  152SAPE   H5Y16880   5.461   1.997   7.253 -1.1449 -0.4581  1.3558
  152SAPE   C3616881   5.555   2.094   7.414 -0.8096 -0.0976  0.2321
  152SAPE   H6X16882   5.466   2.161   7.410  0.0115  1.2279  2.2136
  152SAPE   H6Y16883   5.642   2.163   7.414 -0.0520 -0.9318 -2.5491
  152SAPE   C3716884   5.549   1.998   7.532  0.5177 -0.0272 -0.8555
  152SAPE   H7X16885   5.625   1.917   7.539  1.1308  0.6773  3.9477
  152SAPE   H7Y16886   5.450   1.947   7.530  0.6733 -0.3534 -0.4185
  152SAPE   C3816887   5.559   2.069   7.665 -0.4235 -0.0245 -0.5218
  152SAPE   H8X16888   5.476   2.142   7.674 -1.0173 -0.9139  2.0708
  152SAPE   H8Y16889   5.653   2.127   7.676  1.2113 -2.8693  2.1785
  152SAPE   C3916890   5.551   1.972   7.776 -0.1537  0.0665 -0.4336
  152SAPE   H9X16891   5.629   1.893   7.768 -1.6018 -1.3848 -0.6205
  152SAPE   H9Y16892   5.457   1.915   7.766 -0.6224  0.7776 -0.1859
  152SAPE  C31016893   5.553   2.029   7.917 -0.2742 -0.4780  0.5671
  152SAPE  H10X16894   5.482   2.115   7.917 -2.4054 -2.1376  0.2954
  152SAPE  H10Y16895   5.656   2.061   7.942 -0.0869 -0.8754  0.2981
  152SAPE  C31116896   5.501   1.923   8.020 -0.3396 -0.4390  0.5384
  152SAPE  H11X16897   5.548   1.826   7.992 -1.4181  0.2553 -4.4853
  152SAPE  H11Y16898   5.394   1.912   7.996  0.0037 -0.0834 -1.2791
  152SAPE  C31216899   5.526   1.956   8.167 -0.1181 -0.3056  0.1156
  152SAPE  H12X16900   5.473   2.048   8.198 -0.4909 -0.6875  0.6221
  152SAPE  H12Y16901   5.633   1.974   8.195  0.2190 -2.0342  0.0222
  152SAPE  C31316902   5.459   1.849   8.258 -0.4061  0.2178  0.3470
  152SAPE  H13X16903   5.531   1.765   8.273 -1.3310 -0.5683  0.5095
  152SAPE  H13Y16904   5.381   1.800   8.196 -1.3436  2.3312 -0.2313
  152SAPE  C31416905   5.414   1.900   8.390 -0.3033  0.1452 -0.6086
  152SAPE  H14X16906   5.352   1.821   8.439 -0.4871  0.6130 -0.0863
  152SAPE  H14Y16907   5.348   1.986   8.366 -1.2110 -1.0424 -2.6893
  152SAPE  C31516908   5.522   1.939   8.492  0.7256  0.5634  0.0735
  152SAPE  H15X16909   5.591   2.013   8.446 -0.2627  1.3614 -0.1709
  152SAPE  H15Y16910   5.572   1.842   8.513 -1.4688 -1.4290 -3.0506
  152SAPE  C31616911   5.473   2.000   8.630 -0.1540  0.1343  0.5747
  152SAPE  H16X16912   5.431   2.102   8.615 -0.5477  0.2370  2.1733
  152SAPE  H16Y16913   5.568   2.001   8.688  1.9677 -1.0257 -2.6067
  152SAPE  C31716914   5.359   1.928   8.699 -0.4096  0.3463 -0.1062
  152SAPE  H17X16915   5.294   1.887   8.619  0.9467  2.4178 -2.4092
  152SAPE  H17Y16916   5.296   2.001   8.754  0.0886  1.7434 -1.3325
  152SAPE  C31816917   5.417   1.817   8.791 -0.7223 -0.5675  0.6477
  152SAPE  H18X16918   5.352   1.727   8.792 -0.6514 -0.6156  1.4512
  152SAPE  H18Y16919   5.423   1.846   8.898 -0.7317 -1.3190  0.8572
  152SAPE  H18Z16920   5.512   1.781   8.745 -0.3497  0.2064  0.8035
  153SAPE     N16921   1.093   4.336   6.581  0.1372  0.0059 -0.0958
  153SAPE   HN116922   1.136   4.242   6.580  1.2216  0.4437 -2.2317
  153SAPE   HN216923   1.064   4.362   6.484  3.7264  1.5164 -0.9188
  153SAPE   HN316924   1.184   4.386   6.586 -0.4951  1.0426  1.7606
  153SAPE   C1216925   0.999   4.384   6.688  0.0507  0.6624 -0.1505
  153SAPE  H12A16926   1.054   4.398   6.783 -0.0879  1.3376 -0.1617
  153SAPE  H12B16927   0.919   4.308   6.701 -2.4325  2.8925 -1.2091
  153SAPE   C1116928   0.939   4.513   6.642  0.3795 -0.2114  0.1629
  153SAPE  H11A16929   0.859   4.541   6.714 -1.3640 -1.0429 -1.3524
  153SAPE  H11B16930   0.874   4.498   6.553 -0.9449 -1.6320  1.3103
  153SAPE     P16931   0.979   4.765   6.619  0.0549  0.0337 -0.1031
  153SAPE   O1316932   1.092   4.859   6.617 -0.0845  0.2314  0.2051
  153SAPE   O1416933   0.878   4.779   6.516  0.4874  0.3056  0.2559
  153SAPE   O1216934   1.041   4.615   6.622  0.4319  0.3876  0.3932
  153SAPE   O1116935   0.907   4.776   6.758  0.1679 -0.1843  0.2205
  153SAPE    C116936   0.990   4.750   6.869 -0.3397  0.5607  0.4553
  153SAPE    HA16937   1.081   4.692   6.842 -0.7807  1.2782 -3.0327
  153SAPE    HB16938   1.016   4.847   6.917 -1.9976  0.1989  2.1955
  153SAPE    C216939   0.920   4.665   6.980  0.2434  0.0329 -0.4094
  153SAPE    HS16940   0.873   4.587   6.916  0.1900  0.6592 -1.1498
  153SAPE   O2116941   0.830   4.749   7.061 -0.1399  0.5480  0.3443
  153SAPE   C2116942   0.710   4.751   7.007 -0.4080  0.6228 -0.4397
  153SAPE   O2216943   0.677   4.693   6.906  0.4324  0.4026  0.0194
  153SAPE   C2216944   0.630   4.833   7.102 -0.0555 -0.7944  0.3215
  153SAPE   H2R16945   0.693   4.843   7.193  2.8231 -2.2718 -1.3588
  153SAPE   H2S16946   0.615   4.936   7.063 -0.5560  0.0058  2.5083
  153SAPE    C316947   1.017   4.603   7.073 -0.2472  0.1008 -0.5957
  153SAPE    HX16948   1.074   4.688   7.115  0.4855 -0.3004 -0.7544
  153SAPE    HY16949   1.093   4.547   7.014  0.5664 -1.1731  1.5466
  153SAPE   O3116950   0.949   4.518   7.170  0.8268  0.1371 -0.6487
  153SAPE   C3116951   0.914   4.394   7.139  0.4442 -0.2392 -0.3011
  153SAPE   O3216952   0.896   4.351   7.026  0.4277 -0.0722  0.0651
  153SAPE   C3216953   0.912   4.316   7.265 -0.5245 -0.0808 -0.1521
  153SAPE   H2X16954   1.016   4.289   7.293 -0.7599  1.1748  2.2095
  153SAPE   H2Y16955   0.866   4.216   7.250 -0.7816  0.1190 -0.7149
  153SAPE   C2316956   0.499   4.778   7.139  0.3365  0.5483 -0.0926
  153SAPE   H3R16957   0.435   4.768   7.048 -2.9898 -0.4154  2.1822
  153SAPE   H3S16958   0.457   4.862   7.199  1.1816  3.2692 -2.9993
  153SAPE   C2416959   0.514   4.658   7.229 -0.3577 -0.0580 -0.0485
  153SAPE   H4R16960   0.585   4.683   7.311  0.8520 -2.4435 -0.2726
  153SAPE   H4S16961   0.561   4.572   7.175  1.5835  2.2292 -2.2626
  153SAPE   C2516962   0.379   4.615   7.280 -0.0571  0.1890 -0.2892
  153SAPE   H5R16963   0.326   4.555   7.204  2.6056  0.9399 -2.9525
  153SAPE   C2616964   0.322   4.636   7.396  0.9149 -0.4664 -0.5238
  153SAPE   H6R16965   0.216   4.610   7.410  0.6100  0.2670 -1.3734
  153SAPE   C2716966   0.386   4.724   7.506 -0.2027 -0.2478 -0.4887
  153SAPE   H7R16967   0.309   4.788   7.553  0.1628 -0.3749  0.2923
  153SAPE   H7S16968   0.453   4.794   7.453 -0.1965  3.0866  3.4877
  153SAPE   C2816969   0.470   4.660   7.609  0.2694 -0.2432 -0.5618
  153SAPE   H8R16970   0.575   4.641   7.580  0.8546 -0.5485  1.5938
  153SAPE   C2916971   0.447   4.648   7.738  0.0845 -0.3644 -0.5756
  153SAPE   H9R16972   0.529   4.606   7.799 -0.1885 -1.4969 -0.9603
  153SAPE  C21016973   0.325   4.681   7.819  0.4757  0.4940  0.3138
  153SAPE  H10R16974   0.280   4.582   7.842  2.7619 -1.3100 -2.3179
  153SAPE  H10S16975   0.253   4.735   7.755  1.3638  0.9014 -0.3600
  153SAPE  C21116976   0.345   4.765   7.942 -0.1438  0.2699 -0.9098
  153SAPE  H11R16977   0.319   4.870   7.923  0.2505  0.5456  0.0012
  153SAPE  C21216978   0.405   4.730   8.061  1.0068 -0.5694 -0.6421
  153SAPE  H12R16979   0.401   4.810   8.136  1.2722  0.1227 -1.3554
  153SAPE  C21316980   0.451   4.591   8.107  0.3009 -0.4054 -0.2944
  153SAPE  H13R16981   0.467   4.516   8.026  1.3103  0.2465 -0.7036
  153SAPE  H13S16982   0.365   4.542   8.159  1.0175  0.3760  1.6841
  153SAPE  C21416983   0.567   4.601   8.192 -0.0618 -0.3876  0.2082
  153SAPE  H14R16984   0.657   4.570   8.137 -0.8947 -1.8553 -0.3779
  153SAPE  C21516985   0.559   4.648   8.321 -0.8482  0.5850  0.6973
  153SAPE  H15R16986   0.650   4.647   8.382 -0.8960  0.3616  0.7656
  153SAPE  C21616987   0.429   4.684   8.392 -0.4193 -0.1418  0.2919
  153SAPE  H16R16988   0.337   4.671   8.331 -1.0474  0.2363  1.1379
  153SAPE  H16S16989   0.436   4.792   8.417 -1.0780  0.3114 -1.3405
  153SAPE  C21716990   0.406   4.593   8.521  0.4303  0.3078  0.4751
  153SAPE  H17R16991   0.493   4.610   8.587 -0.2642  2.0026  1.0102
  153SAPE  H17S16992   0.399   4.489   8.480 -2.6300  1.3586 -2.1350
  153SAPE  C21816993   0.271   4.620   8.585 -0.2537 -0.9932 -0.0922
  153SAPE  H18R16994   0.227   4.530   8.633 -1.6886  0.2710  1.0833
  153SAPE  H18S16995   0.209   4.661   8.503  0.2040 -1.8197 -0.8583
  153SAPE  C21916996   0.276   4.735   8.690  0.1221  0.5236  0.8465
  153SAPE  H19R16997   0.190   4.801   8.669  0.0148 -0.8176 -4.0966
  153SAPE  H19S16998   0.356   4.795   8.643 -0.9201 -0.1226 -1.9100
  153SAPE  C22016999   0.298   4.701   8.834  0.4480 -0.5889  0.0411
  153SAPE  H20R17000   0.334   4.792   8.887  1.2646 -0.6748 -0.3476
  153SAPE  H20S17001   0.387   4.635   8.835  1.4038  0.6449  1.2821
  153SAPE  H20T17002   0.205   4.667   8.885 -1.0753  1.7648 -0.9739
  153SAPE   C3317003   0.840   4.383   7.381 -0.7216  0.5590 -0.5929
  153SAPE   H3X17004   0.739   4.419   7.352 -0.8251  1.7645  1.0888
  153SAPE   H3Y17005   0.913   4.457   7.419  0.0567 -0.1143 -0.7632
  153SAPE   C3417006   0.812   4.275   7.485 -0.4418  0.3024 -0.1281
  153SAPE   H4X17007   0.897   4.211   7.517 -0.2043  0.7220  0.0867
  153SAPE   H4Y17008   0.751   4.199   7.431 -0.5411  0.1408  0.2073
  153SAPE   C3517009   0.752   4.333   7.615 -0.5007  0.9720 -0.1210
  153SAPE   H5X17010   0.656   4.375   7.578 -0.6210  1.6523  0.9280
  153SAPE   H5Y17011   0.824   4.414   7.641  0.5736  0.2754 -0.8352
  153SAPE   C3617012   0.738   4.236   7.728  0.2444  0.7040 -0.2613
  153SAPE   H6X17013   0.842   4.200   7.745  1.0889  2.2424 -1.8360
  153SAPE   H6Y17014   0.689   4.145   7.688 -0.1904  0.7545  0.1547
  153SAPE   C3717015   0.699   4.290   7.861  0.3364 -0.3775 -0.0769
  153SAPE   H7X17016   0.591   4.316   7.874  0.5738  0.6917 -0.1200
  153SAPE   H7Y17017   0.757   4.383   7.877 -1.1283  0.6196 -0.3643
  153SAPE   C3817018   0.718   4.192   7.976  0.1286  0.4366  0.7525
  153SAPE   H8X17019   0.824   4.162   7.981 -0.1694 -0.7678  0.1064
  153SAPE   H8Y17020   0.655   4.100   7.970  0.7207  0.1306 -1.8239
  153SAPE   C3917021   0.677   4.248   8.113  0.8845  0.0891  0.0306
  153SAPE   H9X17022   0.575   4.289   8.097  0.8961 -0.4474 -1.6291
  153SAPE   H9Y17023   0.755   4.319   8.147  1.0409  1.0258 -2.1307
  153SAPE  C31017024   0.675   4.139   8.221  0.0509 -0.1721  0.2344
  153SAPE  H10X17025   0.770   4.083   8.203  0.3277 -0.1870  1.6388
  153SAPE  H10Y17026   0.589   4.069   8.213  0.3179 -0.5098  0.2900
  153SAPE  C31117027   0.685   4.205   8.358  0.5014  0.0171  0.5409
  153SAPE  H11X17028   0.583   4.244   8.379 -0.0702 -1.5151  0.8072
  153SAPE  H11Y17029   0.757   4.288   8.372  0.6207 -0.4145  2.7826
  153SAPE  C31217030   0.717   4.106   8.482  0.0908 -1.0865  0.2656
  153SAPE  H12X17031   0.825   4.083   8.483  0.0985 -1.0120  1.2529
  153SAPE  H12Y17032   0.667   4.006   8.481 -1.8816 -0.1530 -0.9363
  153SAPE  C31317033   0.665   4.181   8.617 -0.2719  0.5051 -0.1265
  153SAPE  H13X17034   0.674   4.120   8.710  1.8659  0.8706 -0.0384
  153SAPE  H13Y17035   0.556   4.181   8.598 -0.5308 -1.7564  0.9855
  153SAPE  C31417036   0.726   4.324   8.649  0.1074 -0.1465  0.1412
  153SAPE  H14X17037   0.713   4.391   8.561 -0.1288 -1.2215 -0.6650
  153SAPE  H14Y17038   0.836   4.326   8.669 -0.4369  0.5647  3.6984
  153SAPE  C31517039   0.659   4.388   8.770 -0.3655 -0.0935  0.5914
  153SAPE  H15X17040   0.549   4.386   8.759 -0.6831 -1.9899  3.3348
  153SAPE  H15Y17041   0.673   4.499   8.771 -2.2629  0.3213 -2.8321
  153SAPE  C31617042   0.692   4.315   8.903  0.4313 -0.9237  0.3231
  153SAPE  H16X17043   0.650   4.212   8.906  3.4131 -2.2502  0.7379
  153SAPE  H16Y17044   0.644   4.383   8.976  0.0871 -0.0325 -0.7127
  153SAPE  C31717045   0.843   4.309   8.936 -0.3949  0.2584  0.0114
  153SAPE  H17X17046   0.898   4.405   8.928  0.9355 -0.6293 -3.2693
  153SAPE  H17Y17047   0.896   4.243   8.864  0.7652  1.5341 -0.3405
  153SAPE  C31817048   0.871   4.251   9.076  0.2359  0.0729  0.2295
  153SAPE  H18X17049   0.978   4.250   9.106 -0.0243  2.0483  1.4343
  153SAPE  H18Y17050   0.822   4.152   9.087 -2.7549  1.2708 -1.2606
  153SAPE  H18Z17051   0.823   4.323   9.146 -1.2335  0.3994 -1.0541
  154SAPE     N17052   5.199   1.347   6.623  0.0903  0.2805 -0.1026
  154SAPE   HN117053   5.208   1.425   6.556  0.3725  0.9037  0.6411
  154SAPE   HN217054   5.251   1.373   6.709 -3.6656  0.9433  2.2026
  154SAPE   HN317055   5.234   1.254   6.591  2.7286  1.0486  0.3423
  154SAPE   C1217056   5.055   1.328   6.661 -0.3209 -0.9483  0.0963
  154SAPE  H12A17057   5.049   1.231   6.714  1.4633 -1.2910 -0.2612
  154SAPE  H12B17058   4.999   1.308   6.567 -0.9228 -1.6490  0.5930
  154SAPE   C1117059   4.989   1.445   6.729 -0.4235  0.1796  0.1483
  154SAPE  H11A17060   5.026   1.460   6.832  0.1397  3.0688 -0.3677
  154SAPE  H11B17061   4.880   1.425   6.723 -0.7140  1.7712 -0.5436
  154SAPE     P17062   4.936   1.643   6.562 -0.1507  0.3956 -0.0722
  154SAPE   O1317063   5.004   1.761   6.502  0.0223 -0.2866 -0.0996
  154SAPE   O1417064   4.888   1.538   6.469 -0.2159  0.1808 -0.2258
  154SAPE   O1217065   5.026   1.567   6.666 -0.3477  0.3757  0.0841
  154SAPE   O1117066   4.811   1.675   6.654  0.1279 -0.3340 -0.0713
  154SAPE    C117067   4.813   1.791   6.749 -0.6028  0.0608 -0.3619
  154SAPE    HA17068   4.904   1.850   6.726 -0.1547 -0.0631  1.0044
  154SAPE    HB17069   4.714   1.841   6.740 -0.5580  0.2565  0.2471
  154SAPE    C217070   4.806   1.738   6.899 -0.6718 -0.3373  0.5803
  154SAPE    HS17071   4.875   1.650   6.899  1.4857  1.2717  0.6032
  154SAPE   O2117072   4.670   1.703   6.924 -0.0600 -0.2200 -0.3074
  154SAPE   C2117073   4.640   1.592   6.981  0.0354 -1.2775 -0.9161
  154SAPE   O2217074   4.718   1.502   7.008 -0.8721 -0.1293 -0.5976
  154SAPE   C2217075   4.484   1.583   6.991 -0.8933 -0.6015 -0.5544
  154SAPE   H2R17076   4.451   1.616   6.890  0.9605 -1.4916 -1.5065
  154SAPE   H2S17077   4.460   1.477   7.013 -0.0132 -0.3679  1.7949
  154SAPE    C317078   4.858   1.834   7.008 -1.2083  0.9346 -0.2760
  154SAPE    HX17079   4.791   1.921   6.995  1.5173  3.2569  0.4255
  154SAPE    HY17080   4.960   1.871   6.984 -1.1969  0.1335 -1.5770
  154SAPE   O3117081   4.862   1.780   7.140 -0.1275  0.2615 -0.0936
  154SAPE   C3117082   4.977   1.722   7.165  0.5038  0.5450 -0.5196
  154SAPE   O3217083   5.078   1.720   7.100 -0.0780 -0.6841  0.0049
  154SAPE   C3217084   4.951   1.631   7.287 -0.4279 -0.6159  0.5422
  154SAPE   H2X17085   4.852   1.580   7.284 -0.0439 -1.3461 -1.6826
  154SAPE   H2Y17086   4.956   1.697   7.377  1.3527 -1.6587  1.2480
  154SAPE   C2317087   4.425   1.658   7.109  0.4467 -0.7443 -0.2322
  154SAPE   H3R17088   4.453   1.766   7.112  0.2070 -0.7001  1.3611
  154SAPE   H3S17089   4.467   1.621   7.205 -0.0322  0.4591  0.4767
  154SAPE   C2417090   4.267   1.683   7.098 -0.8760 -0.2258  0.2718
  154SAPE   H4R17091   4.226   1.580   7.090 -2.2097  0.1231  2.0345
  154SAPE   H4S17092   4.245   1.737   7.004 -1.5144 -0.2465  0.4065
  154SAPE   C2517093   4.217   1.754   7.222 -0.0402 -0.0062 -0.3712
  154SAPE   H5R17094   4.169   1.696   7.301 -0.5115  0.7695 -0.0718
  154SAPE   C2617095   4.200   1.883   7.229  0.3068  0.1101 -0.9625
  154SAPE   H6R17096   4.151   1.917   7.321  0.6425 -0.7299 -0.4621
  154SAPE   C2717097   4.223   1.995   7.126 -0.9564 -0.1373 -0.0393
  154SAPE   H7R17098   4.276   1.948   7.041 -0.5545  2.3553 -1.2364
  154SAPE   H7S17099   4.312   2.055   7.156 -0.6298  0.0725 -1.3964
  154SAPE   C2817100   4.099   2.074   7.100  0.1195  0.3169 -0.0363
  154SAPE   H8R17101   4.021   2.026   7.039  2.7437 -0.0323 -3.4594
  154SAPE   C2917102   4.080   2.200   7.145 -0.0172 -0.0888  0.1404
  154SAPE   H9R17103   3.987   2.254   7.122 -1.5599 -2.8011 -0.4771
  154SAPE  C21017104   4.173   2.282   7.235 -0.5307  0.4445  0.1964
  154SAPE  H10R17105   4.228   2.216   7.306  0.7947  0.6981 -0.5725
  154SAPE  H10S17106   4.107   2.351   7.292 -0.3832  1.8032 -1.2307
  154SAPE  C21117107   4.278   2.348   7.146  0.1110  0.1514  0.2231
  154SAPE  H11R17108   4.301   2.289   7.057 -0.2157  0.5467 -0.1288
  154SAPE  C21217109   4.341   2.462   7.163  0.5402 -0.4049  0.2176
  154SAPE  H12R17110   4.414   2.480   7.083  0.0140  1.5351  0.1451
  154SAPE  C21317111   4.345   2.544   7.288 -0.6778 -0.1650 -0.4890
  154SAPE  H13R17112   4.281   2.491   7.363 -1.6728  0.7075 -0.6980
  154SAPE  H13S17113   4.299   2.639   7.255  0.2686  0.5824  0.2904
  154SAPE  C21417114   4.485   2.570   7.352 -0.1550 -0.2037 -0.0566
  154SAPE  H14R17115   4.572   2.571   7.286 -0.1045  0.5484  0.0093
  154SAPE  C21517116   4.512   2.601   7.485  0.2323 -1.2191 -0.0111
  154SAPE  H15R17117   4.615   2.616   7.519  0.0622  0.0261  0.0033
  154SAPE  C21617118   4.407   2.610   7.591 -0.5746  0.4226 -0.1335
  154SAPE  H16R17119   4.310   2.582   7.544 -0.7840 -0.3233  0.7121
  154SAPE  H16S17120   4.387   2.710   7.635 -2.9203  0.0266 -0.1807
  154SAPE  C21717121   4.429   2.521   7.714 -0.0951 -0.3731 -0.3806
  154SAPE  H17R17122   4.510   2.448   7.695  0.5606  0.2444 -0.0045
  154SAPE  H17S17123   4.340   2.454   7.722  1.0428 -1.7931  1.0278
  154SAPE  C21817124   4.465   2.598   7.846 -0.0552 -0.0259  0.0412
  154SAPE  H18R17125   4.393   2.673   7.885  1.2626  0.3702  1.7990
  154SAPE  H18S17126   4.561   2.655   7.846 -1.0137  1.7029  1.6572
  154SAPE  C21917127   4.489   2.490   7.960  0.5196 -1.0103 -0.6906
  154SAPE  H19R17128   4.573   2.422   7.932  0.2719 -1.9784  0.8181
  154SAPE  H19S17129   4.400   2.425   7.970  1.4452 -2.1819  0.1428
  154SAPE  C22017130   4.522   2.563   8.094  0.2712  0.0013 -0.0905
  154SAPE  H20R17131   4.428   2.611   8.129 -0.5058 -1.0229 -0.7030
  154SAPE  H20S17132   4.602   2.636   8.073  0.7703 -0.7179 -0.7114
  154SAPE  H20T17133   4.567   2.490   8.165  1.5125  0.8081 -0.0227
  154SAPE   C3317134   5.064   1.523   7.307 -0.3374 -0.4589 -1.1348
  154SAPE   H3X17135   5.157   1.577   7.332 -0.2970 -1.4110  0.9148
  154SAPE   H3Y17136   5.083   1.468   7.212  0.2092  0.1343 -1.3704
  154SAPE   C3417137   5.024   1.429   7.424 -0.1539 -0.6077  0.5168
  154SAPE   H4X17138   5.098   1.346   7.423  1.5948  0.8639  1.2683
  154SAPE   H4Y17139   4.931   1.370   7.414  0.8669 -2.1466 -0.2496
  154SAPE   C3517140   5.030   1.501   7.558  0.0561  0.2804 -0.5860
  154SAPE   H5X17141   4.941   1.564   7.581 -0.3973 -0.1547 -1.1284
  154SAPE   H5Y17142   5.130   1.549   7.563  0.2061 -0.0378 -0.4938
  154SAPE   C3617143   5.036   1.389   7.669  0.5373  0.3554 -0.3095
  154SAPE   H6X17144   5.131   1.334   7.654 -0.9877 -1.6228 -3.7208
  154SAPE   H6Y17145   4.952   1.317   7.661  1.4175 -0.6364 -0.8554
  154SAPE   C3717146   5.033   1.447   7.821  0.4119 -0.3112 -0.2685
  154SAPE   H7X17147   4.974   1.372   7.878 -0.2378  1.4656  1.4742
  154SAPE   H7Y17148   4.970   1.539   7.825 -0.8639 -1.1934  0.9539
  154SAPE   C3817149   5.172   1.470   7.882 -0.4867  0.1098 -0.3344
  154SAPE   H8X17150   5.223   1.530   7.803 -1.0326  1.2157  0.1363
  154SAPE   H8Y17151   5.221   1.372   7.901 -1.6223 -0.4525 -0.2416
  154SAPE   C3917152   5.173   1.570   7.998  0.9182  0.5230  0.2851
  154SAPE   H9X17153   5.127   1.669   7.980 -1.1371 -0.6739 -1.5119
  154SAPE   H9Y17154   5.276   1.599   8.028  1.1796  0.3970 -0.4556
  154SAPE  C31017155   5.100   1.516   8.127  0.2671 -0.6712  0.0939
  154SAPE  H10X17156   5.132   1.412   8.150  0.4352  0.1992  4.6011
  154SAPE  H10Y17157   4.993   1.514   8.099  0.3701 -0.6278 -0.3163
  154SAPE  C31117158   5.138   1.611   8.241  0.6014 -0.2502  0.5821
  154SAPE  H11X17159   5.117   1.717   8.213 -1.6829 -0.1398  2.3617
  154SAPE  H11Y17160   5.244   1.583   8.258  1.4252  0.9466 -2.0413
  154SAPE  C31217161   5.064   1.584   8.367 -0.8734 -0.8726  0.1575
  154SAPE  H12X17162   5.074   1.474   8.378 -0.6339 -1.0211 -1.3200
  154SAPE  H12Y17163   4.957   1.613   8.357 -0.6762 -0.0905  0.2331
  154SAPE  C31317164   5.130   1.643   8.488  0.0379  0.2010 -0.1745
  154SAPE  H13X17165   5.135   1.752   8.470  1.7908 -0.3262 -3.7427
  154SAPE  H13Y17166   5.236   1.610   8.490  0.0222  0.1380 -0.3708
  154SAPE  C31417167   5.055   1.614   8.619 -0.1005 -0.7905  0.4439
  154SAPE  H14X17168   4.946   1.622   8.598 -0.2897  0.2147  1.6452
  154SAPE  H14Y17169   5.088   1.695   8.689 -0.5671 -1.4185  1.4102
  154SAPE  C31517170   5.075   1.477   8.689  0.4069  0.0384  0.0385
  154SAPE  H15X17171   5.052   1.397   8.616  0.6288  1.0851 -1.2141
  154SAPE  H15Y17172   5.017   1.473   8.784 -0.0437  1.1680 -0.1696
  154SAPE  C31617173   5.223   1.455   8.727 -0.0415 -0.7335 -0.3384
  154SAPE  H16X17174   5.229   1.465   8.837 -0.1685 -0.3546 -0.3635
  154SAPE  H16Y17175   5.280   1.538   8.680 -0.6148  1.2814  2.2622
  154SAPE  C31717176   5.278   1.311   8.704  0.3729 -0.1373 -0.3728
  154SAPE  H17X17177   5.289   1.304   8.594  2.3217  2.3032 -0.4177
  154SAPE  H17Y17178   5.202   1.236   8.736 -1.4208 -0.2406 -4.3634
  154SAPE  C31817179   5.416   1.285   8.768 -0.6377 -0.1158  0.4452
  154SAPE  H18X17180   5.447   1.181   8.749  1.3651  0.5177  0.0016
  154SAPE  H18Y17181   5.403   1.300   8.878 -1.8700 -2.7303  0.7147
  154SAPE  H18Z17182   5.501   1.348   8.734 -0.8005 -0.6160 -0.9088
  155SAPE     N17183   3.938   2.200   6.652  0.3241  0.6165 -0.2380
  155SAPE   HN117184   3.925   2.277   6.584  1.6478  1.4432  0.4135
  155SAPE   HN217185   3.991   2.124   6.604  0.8387 -0.1300  1.4436
  155SAPE   HN317186   3.840   2.173   6.675  0.4660  0.5923  0.3483
  155SAPE   C1217187   4.005   2.246   6.784  0.3600 -0.1376  0.7724
  155SAPE  H12A17188   4.020   2.151   6.838  0.4825 -0.5265  0.0742
  155SAPE  H12B17189   3.934   2.322   6.824 -1.7088 -0.1658 -2.4228
  155SAPE   C1117190   4.147   2.302   6.765 -0.2172 -0.7266 -0.1069
  155SAPE  H11A17191   4.210   2.223   6.717  1.2659 -0.7305  1.7654
  155SAPE  H11B17192   4.204   2.320   6.858 -2.0122 -0.3268  0.9794
  155SAPE     P17193   4.117   2.562   6.723  0.2043  0.1114  0.0158
  155SAPE   O1317194   4.180   2.655   6.622  0.4505 -0.1254  0.1768
  155SAPE   O1417195   3.975   2.580   6.742 -0.1563  0.4288 -0.6606
  155SAPE   O1217196   4.151   2.413   6.679 -0.0223 -0.2666 -0.0353
  155SAPE   O1117197   4.192   2.581   6.856 -0.1095 -0.6155 -0.0124
  155SAPE    C117198   4.251   2.706   6.895 -0.0343 -0.5847 -0.0721
  155SAPE    HA17199   4.189   2.792   6.861  1.4829 -0.2646 -2.2031
  155SAPE    HB17200   4.254   2.711   7.006  1.2978  0.6615 -0.1367
  155SAPE    C217201   4.402   2.727   6.845  0.5874 -0.2333 -0.3787
  155SAPE    HS17202   4.403   2.710   6.735  1.8120 -0.0616 -0.4153
  155SAPE   O2117203   4.481   2.643   6.921 -0.4250  0.6096 -0.1697
  155SAPE   C2117204   4.603   2.626   6.880  0.0186  0.1842  0.2710
  155SAPE   O2217205   4.655   2.674   6.783  0.2123 -0.2197  0.1148
  155SAPE   C2217206   4.676   2.518   6.969  0.2669 -0.6877 -0.3791
  155SAPE   H2R17207   4.672   2.562   7.071  0.5506 -0.0521 -0.6379
  155SAPE   H2S17208   4.610   2.429   6.978  1.2017 -1.5078 -1.4449
  155SAPE    C317209   4.440   2.879   6.870 -0.0975  0.2318  0.0089
  155SAPE    HX17210   4.358   2.913   6.804 -0.9178 -0.9420  0.3878
  155SAPE    HY17211   4.541   2.898   6.828  0.9861 -1.6280  1.5854
  155SAPE   O3117212   4.427   2.926   7.001  0.0163  0.5588 -0.2535
  155SAPE   C3117213   4.532   2.913   7.084  0.4365  0.4288 -0.2807
  155SAPE   O3217214   4.639   2.867   7.054  0.2622 -0.1037  0.1922
  155SAPE   C3217215   4.486   2.969   7.224 -0.4673  0.3750 -0.1759
  155SAPE   H2X17216   4.395   2.911   7.249 -0.8104  1.0381  0.1420
  155SAPE   H2Y17217   4.457   3.076   7.220  0.6974  0.6913 -1.1073
  155SAPE   C2317218   4.812   2.472   6.919  0.8768  0.0984 -0.8210
  155SAPE   H3R17219   4.879   2.551   6.879  4.3034 -1.1122  1.9748
  155SAPE   H3S17220   4.784   2.407   6.833 -3.0056  1.7770 -1.0344
  155SAPE   C2417221   4.881   2.377   7.022 -0.2364  0.3699 -0.1239
  155SAPE   H4R17222   4.810   2.294   7.041 -1.9768  1.8152 -0.0422
  155SAPE   H4S17223   4.888   2.426   7.122 -0.2377 -0.4107  0.2658
  155SAPE   C2517224   5.016   2.319   6.969 -0.0595  0.0912 -0.3156
  155SAPE   H5R17225   5.048   2.349   6.868  2.3178 -0.1140  0.3168
  155SAPE   C2617226   5.088   2.229   7.035 -0.1949 -0.0871  0.6355
  155SAPE   H6R17227   5.178   2.188   6.988  0.3253  1.5064  0.1817
  155SAPE   C2717228   5.045   2.178   7.169  0.1532  0.3500  0.0363
  155SAPE   H7R17229   5.039   2.067   7.169  2.4557  0.1749  0.1804
  155SAPE   H7S17230   4.944   2.208   7.204 -0.2835 -1.4645  0.3994
  155SAPE   C2817231   5.132   2.220   7.286 -0.8092 -0.1803  0.2600
  155SAPE   H8R17232   5.212   2.289   7.254  0.5071 -2.3247 -1.3021
  155SAPE   C2917233   5.148   2.153   7.398 -1.2379  0.1657 -0.1601
  155SAPE   H9R17234   5.223   2.185   7.472 -0.1523 -0.6205 -0.8859
  155SAPE  C21017235   5.064   2.033   7.442 -0.2198  1.0014  0.2639
  155SAPE  H10R17236   4.993   2.007   7.361  1.0974  2.8589 -1.6084
  155SAPE  H10S17237   5.007   2.055   7.535  0.6986  1.7794  0.6733
  155SAPE  C21117238   5.156   1.916   7.479 -0.5385 -0.6177  0.1340
  155SAPE  H11R17239   5.237   1.896   7.407  1.1215  0.6975  1.5613
  155SAPE  C21217240   5.167   1.863   7.604 -0.2241  0.4811 -0.1371
  155SAPE  H12R17241   5.221   1.771   7.629  0.4286  0.9118  0.0591
  155SAPE  C21317242   5.096   1.903   7.732 -0.4790 -0.0845 -0.2605
  155SAPE  H13R17243   5.086   1.812   7.794 -1.1362 -1.6090 -2.4972
  155SAPE  H13S17244   4.993   1.935   7.704 -0.3348  0.3455 -0.3127
  155SAPE  C21417245   5.171   2.014   7.800  0.6607  0.3653 -0.1840
  155SAPE  H14R17246   5.241   2.065   7.733  1.3142  0.3559  0.4793
  155SAPE  C21517247   5.143   2.058   7.927 -0.2692 -0.3758  0.3009
  155SAPE  H15R17248   5.196   2.149   7.959  1.1826 -1.1022  0.0247
  155SAPE  C21617249   5.039   2.011   8.019 -0.0294 -0.3483  0.2959
  155SAPE  H16R17250   4.991   1.914   7.996 -1.1031  0.5936 -1.6378
  155SAPE  H16S17251   4.947   2.073   8.012 -0.4614 -0.8444  1.3300
  155SAPE  C21717252   5.085   2.004   8.169 -0.6260 -0.1233  0.6749
  155SAPE  H17R17253   5.193   1.978   8.171 -0.5594 -0.0607 -0.7505
  155SAPE  H17S17254   5.039   1.911   8.208 -1.0597  0.2678  1.1003
  155SAPE  C21817255   5.049   2.120   8.266  1.2241  0.4320 -0.1072
  155SAPE  H18R17256   4.944   2.152   8.250  1.1551  1.1546  1.5649
  155SAPE  H18S17257   5.110   2.208   8.239  1.3688 -0.1662 -1.8399
  155SAPE  C21917258   5.068   2.080   8.417  0.7212 -0.1047  0.0619
  155SAPE  H19R17259   5.159   2.017   8.424  1.4327  0.8644 -0.2726
  155SAPE  H19S17260   4.973   2.029   8.443  0.2487  0.2184 -0.9691
  155SAPE  C22017261   5.071   2.200   8.506  0.3501  0.0603 -0.5767
  155SAPE  H20R17262   5.151   2.271   8.477  1.2392 -0.1291  1.2634
  155SAPE  H20S17263   5.090   2.167   8.611 -1.7841 -0.2783 -0.2495
  155SAPE  H20T17264   4.974   2.254   8.510 -0.0851 -0.7626  0.7929
  155SAPE   C3317265   4.595   2.943   7.333 -0.1800 -0.3056 -0.1508
  155SAPE   H3X17266   4.684   3.008   7.320  0.9276 -1.7988 -0.3419
  155SAPE   H3Y17267   4.634   2.841   7.314  0.1988 -0.1238 -0.3621
  155SAPE   C3417268   4.535   2.966   7.465  0.4588  0.2425  0.0839
  155SAPE   H4X17269   4.463   2.883   7.481  1.1328 -0.9322 -2.5385
  155SAPE   H4Y17270   4.484   3.064   7.476  0.9636  0.2889  2.6712
  155SAPE   C3517271   4.645   2.968   7.573  0.4332 -0.3306  0.3358
  155SAPE   H5X17272   4.722   3.044   7.545  0.5106 -1.3319 -2.3738
  155SAPE   H5Y17273   4.685   2.865   7.570 -0.4005 -0.6389 -0.3342
  155SAPE   C3617274   4.578   2.997   7.713 -0.2936  0.7621 -0.4062
  155SAPE   H6X17275   4.499   2.920   7.720  1.1925 -0.9080 -1.1594
  155SAPE   H6Y17276   4.527   3.095   7.725 -0.6547  0.6543 -1.0557
  155SAPE   C3717277   4.675   2.987   7.829 -0.3374 -0.0037  0.0849
  155SAPE   H7X17278   4.740   3.076   7.814 -0.5807  0.1236 -0.2199
  155SAPE   H7Y17279   4.740   2.899   7.814  0.2564  0.4468 -0.0402
  155SAPE   C3817280   4.606   2.985   7.965 -0.0389  0.1028  0.4521
  155SAPE   H8X17281   4.546   2.891   7.965 -0.7334  0.3460 -3.7806
  155SAPE   H8Y17282   4.537   3.070   7.982 -0.5005 -0.0477 -0.6186
  155SAPE   C3917283   4.709   2.985   8.084 -0.5255  0.0550 -0.0260
  155SAPE   H9X17284   4.772   3.074   8.063  2.8561 -1.8701  1.0720
  155SAPE   H9Y17285   4.767   2.892   8.065 -0.3373  0.1652  0.0022
  155SAPE  C31017286   4.650   2.996   8.219 -0.5441 -0.0728 -0.2990
  155SAPE  H10X17287   4.572   2.917   8.232  0.3752 -1.0882 -0.7798
  155SAPE  H10Y17288   4.599   3.094   8.214  0.5602  0.4233 -3.1311
  155SAPE  C31117289   4.747   2.995   8.340 -0.5192 -0.5943 -0.0680
  155SAPE  H11X17290   4.826   3.074   8.333  0.2968 -1.3017  0.9343
  155SAPE  H11Y17291   4.796   2.896   8.352  0.2125 -0.3752 -1.0991
  155SAPE  C31217292   4.680   3.026   8.476 -0.6768  0.1179  0.0019
  155SAPE  H12X17293   4.614   2.938   8.497 -0.4969  0.0450  0.2769
  155SAPE  H12Y17294   4.618   3.118   8.473 -0.9963 -0.1011 -0.2670
  155SAPE  C31317295   4.782   3.022   8.588  1.3124  0.4113  0.6832
  155SAPE  H13X17296   4.836   3.120   8.585  0.7655  0.7126 -1.3126
  155SAPE  H13Y17297   4.859   2.945   8.566  1.5198  0.2512  1.9081
  155SAPE  C31417298   4.718   2.991   8.725 -0.4498  0.7098 -0.2875
  155SAPE  H14X17299   4.670   2.891   8.723  0.1761  0.4022 -0.1516
  155SAPE  H14Y17300   4.648   3.073   8.749  0.8979  1.4399  1.2941
  155SAPE  C31517301   4.823   2.987   8.835 -0.4475 -0.2496 -0.7485
  155SAPE  H15X17302   4.780   3.015   8.934  3.3352  0.3479  0.8825
  155SAPE  H15Y17303   4.906   3.057   8.811  1.6872 -2.9284 -1.6740
  155SAPE  C31617304   4.893   2.844   8.855  0.5997  0.1588 -0.3940
  155SAPE  H16X17305   4.947   2.844   8.953 -2.0671  1.6330  1.1853
  155SAPE  H16Y17306   4.977   2.835   8.783  0.4484 -0.4010 -0.5104
  155SAPE  C31717307   4.803   2.712   8.856 -0.0602  0.4861 -0.6655
  155SAPE  H17X17308   4.761   2.685   8.756  1.4814  2.6466 -1.9911
  155SAPE  H17Y17309   4.709   2.728   8.913 -0.3199 -1.2381 -0.5458
  155SAPE  C31817310   4.880   2.600   8.915 -0.3635 -0.5803 -0.4237
  155SAPE  H18X17311   4.913   2.632   9.016 -1.2638 -1.0351  0.0191
  155SAPE  H18Y17312   4.972   2.581   8.856 -0.7398  0.1744 -1.2726
  155SAPE  H18Z17313   4.824   2.505   8.924 -2.7462  0.7438 -0.3378
  156SAPE     N17314   3.363   3.524   6.969  0.1323  0.2039  0.0609
  156SAPE   HN117315   3.370   3.566   6.874 -1.3629 -1.0348 -0.6354
  156SAPE   HN217316   3.265   3.517   7.001 -0.3568  1.3286 -1.1109
  156SAPE   HN317317   3.412   3.581   7.041 -0.6137 -0.4168  1.0827
  156SAPE   C1217318   3.427   3.387   6.969 -0.3265 -0.5007 -0.2307
  156SAPE  H12A17319   3.418   3.350   7.073 -0.2453 -0.8599 -0.3502
  156SAPE  H12B17320   3.535   3.407   6.950 -0.0133  1.7772  2.9927
  156SAPE   C1117321   3.366   3.298   6.858  0.4509 -0.2225 -0.0984
  156SAPE  H11A17322   3.427   3.206   6.850 -0.7041 -0.8936 -1.5191
  156SAPE  H11B17323   3.371   3.347   6.758 -0.9250 -0.2954 -0.2161
  156SAPE     P17324   3.152   3.174   6.794  0.1155 -0.3871 -0.0240
  156SAPE   O1317325   3.004   3.192   6.814 -0.1369 -0.2315  0.0023
  156SAPE   O1417326   3.212   3.182   6.658  0.2650  0.6086  0.5825
  156SAPE   O1217327   3.229   3.272   6.892 -0.2124 -0.3233 -0.0942
  156SAPE   O1117328   3.191   3.038   6.851 -0.4571 -0.2828 -0.0160
  156SAPE    C117329   3.190   2.981   6.986  0.6219  0.0404 -0.7560
  156SAPE    HA17330   3.285   2.928   7.009  0.3196 -0.0148  0.4475
  156SAPE    HB17331   3.184   3.056   7.068 -1.0605 -0.6064 -0.2506
  156SAPE    C217332   3.065   2.892   7.004 -0.0781  0.7172  0.9042
  156SAPE    HS17333   3.082   2.797   6.949  1.1451  0.4441  1.7295
  156SAPE   O2117334   2.943   2.954   6.968 -0.2816  0.8896  0.4918
  156SAPE   C2117335   2.873   2.923   6.860 -0.0029 -0.2197 -0.1771
  156SAPE   O2217336   2.901   2.830   6.785  0.1410  0.2095  0.5553
  156SAPE   C2217337   2.750   3.014   6.865 -0.6506 -0.0056  0.2231
  156SAPE   H2R17338   2.771   3.114   6.908  2.6853 -0.7685  0.6811
  156SAPE   H2S17339   2.719   3.030   6.759  1.3538 -0.4043 -0.4674
  156SAPE    C317340   3.048   2.854   7.162  0.0245 -0.3565 -0.8275
  156SAPE    HX17341   2.953   2.796   7.167  0.2126 -0.6446 -0.6003
  156SAPE    HY17342   3.031   2.950   7.215  2.2883 -1.3991  2.0132
  156SAPE   O3117343   3.174   2.791   7.214  0.1291 -0.2484 -0.1975
  156SAPE   C3117344   3.171   2.664   7.199 -0.6012  0.3951  1.0975
  156SAPE   O3217345   3.090   2.596   7.137  0.5115  0.0589 -0.4307
  156SAPE   C3217346   3.305   2.608   7.256  0.5206 -0.3333  0.0980
  156SAPE   H2X17347   3.375   2.687   7.289  2.5184 -1.7258 -0.6157
  156SAPE   H2Y17348   3.353   2.551   7.174  0.4100  1.8469 -1.5779
  156SAPE   C2317349   2.639   2.942   6.945  0.1192 -0.0420  0.6296
  156SAPE   H3R17350   2.611   2.847   6.894  1.9715 -0.1477 -0.2363
  156SAPE   H3S17351   2.547   3.004   6.935  0.3629  0.3000  0.5321
  156SAPE   C2417352   2.680   2.921   7.089 -0.2767  0.2819  0.7728
  156SAPE   H4R17353   2.715   3.012   7.141 -1.9083  1.8462 -0.7596
  156SAPE   H4S17354   2.770   2.856   7.100  0.6587  1.1028 -1.4903
  156SAPE   C2517355   2.565   2.855   7.166  0.8316  0.2804  0.3690
  156SAPE   H5R17356   2.502   2.796   7.098 -0.3786  1.7775  0.1638
  156SAPE   C2617357   2.554   2.846   7.304  0.2939  0.2499 -0.7935
  156SAPE   H6R17358   2.472   2.786   7.346 -0.7690  1.2304 -1.4267
  156SAPE   C2717359   2.659   2.889   7.399 -0.0144 -0.2418 -0.6584
  156SAPE   H7R17360   2.691   2.994   7.381 -3.1243  1.1943  1.2777
  156SAPE   H7S17361   2.751   2.829   7.383 -0.3608 -0.8157 -0.5046
  156SAPE   C2817362   2.613   2.870   7.544  0.7566 -0.1386  0.3878
  156SAPE   H8R17363   2.507   2.893   7.562  0.9094  0.0902  1.0085
  156SAPE   C2917364   2.686   2.816   7.640  0.2071  0.4382  0.0059
  156SAPE   H9R17365   2.636   2.815   7.739  2.4129 -1.3287  1.1839
  156SAPE  C21017366   2.825   2.754   7.644  0.9729 -0.2048  0.0545
  156SAPE  H10R17367   2.875   2.810   7.726 -0.2699 -1.5747  1.8216
  156SAPE  H10S17368   2.887   2.786   7.557  2.4510  0.4211  1.2882
  156SAPE  C21117369   2.826   2.606   7.672  0.0671 -0.1053  0.8824
  156SAPE  H11R17370   2.777   2.537   7.602 -0.7258 -0.6129  1.9021
  156SAPE  C21217371   2.874   2.549   7.790  0.2691  0.1224  0.1728
  156SAPE  H12R17372   2.857   2.442   7.808  1.6377 -0.7095 -2.8364
  156SAPE  C21317373   2.937   2.627   7.904  0.4856 -0.4443  0.3397
  156SAPE  H13R17374   2.872   2.703   7.952  0.5505  0.0463 -0.3367
  156SAPE  H13S17375   3.006   2.697   7.851  0.6877 -1.8930 -1.4092
  156SAPE  C21417376   3.007   2.538   8.006  0.1418  0.1996 -0.7029
  156SAPE  H14R17377   3.054   2.447   7.966 -0.6876 -0.7234  0.3875
  156SAPE  C21517378   3.010   2.547   8.137 -0.2335  0.2342  0.2903
  156SAPE  H15R17379   3.049   2.463   8.197  1.4265 -0.5102 -1.6843
  156SAPE  C21617380   2.945   2.656   8.217  0.4606  0.4191 -0.4664
  156SAPE  H16R17381   2.872   2.624   8.293 -1.9539  3.6483 -1.1821
  156SAPE  H16S17382   2.893   2.727   8.149  3.8441  1.6281 -2.0379
  156SAPE  C21717383   3.055   2.735   8.292 -0.4355  0.0392 -0.2199
  156SAPE  H17R17384   3.008   2.798   8.369  2.9578  0.3748  1.7844
  156SAPE  H17S17385   3.102   2.797   8.212  1.3487 -0.9063  0.0385
  156SAPE  C21817386   3.166   2.651   8.359  0.1634 -0.6448  0.2555
  156SAPE  H18R17387   3.248   2.624   8.289  1.6861  3.5807  0.1383
  156SAPE  H18S17388   3.119   2.557   8.396  0.4547 -0.9735 -0.1971
  156SAPE  C21917389   3.227   2.704   8.487  0.6186 -0.1890 -1.0154
  156SAPE  H19R17390   3.150   2.725   8.564  1.9199 -0.1135  0.3066
  156SAPE  H19S17391   3.294   2.790   8.470 -0.4589  1.0071  0.5035
  156SAPE  C22017392   3.317   2.595   8.544 -0.2041 -0.0940  0.6517
  156SAPE  H20R17393   3.417   2.615   8.500  0.1195 -1.3570  0.7670
  156SAPE  H20S17394   3.280   2.495   8.513 -0.5087  0.0830  0.4360
  156SAPE  H20T17395   3.339   2.605   8.653  1.1994 -1.7679  0.5694
  156SAPE   C3317396   3.276   2.495   7.363 -0.1682 -0.0005  0.9767
  156SAPE   H3X17397   3.369   2.434   7.367  1.1221  1.8254  0.3651
  156SAPE   H3Y17398   3.188   2.435   7.333 -1.1130  0.8472  1.9374
  156SAPE   C3417399   3.246   2.551   7.502 -0.0881  0.4391  0.4941
  156SAPE   H4X17400   3.149   2.604   7.490 -1.6614 -2.0790  1.3374
  156SAPE   H4Y17401   3.330   2.614   7.539 -0.1510 -0.6946  2.7735
  156SAPE   C3517402   3.222   2.436   7.602  0.3109  0.7292 -0.2944
  156SAPE   H5X17403   3.173   2.347   7.558  1.3432 -1.0852  2.0161
  156SAPE   H5Y17404   3.144   2.459   7.678 -0.5047 -2.6942  0.0510
  156SAPE   C3617405   3.359   2.392   7.666  0.1150  0.6931  0.3002
  156SAPE   H6X17406   3.388   2.461   7.748 -1.4840  0.9257  0.6902
  156SAPE   H6Y17407   3.434   2.394   7.584  1.9421  0.4267  1.8995
  156SAPE   C3717408   3.362   2.245   7.711  0.3688  0.0152 -0.6262
  156SAPE   H7X17409   3.470   2.224   7.719  0.3800  0.5514  0.8378
  156SAPE   H7Y17410   3.325   2.186   7.624  2.1400 -3.7489  0.9512
  156SAPE   C3817411   3.279   2.212   7.837 -0.6401  0.1917 -0.4587
  156SAPE   H8X17412   3.246   2.106   7.840 -0.4659  0.1004 -1.6662
  156SAPE   H8Y17413   3.182   2.267   7.832 -0.7876 -0.1010 -0.8180
  156SAPE   C3917414   3.354   2.248   7.967  0.2754  0.5624  0.2506
  156SAPE   H9X17415   3.382   2.355   7.958 -1.0507  0.8699 -0.3804
  156SAPE   H9Y17416   3.437   2.177   7.989  0.0665 -0.1259 -1.0595
  156SAPE  C31017417   3.266   2.239   8.095 -0.1843  0.0998  0.5206
  156SAPE  H10X17418   3.189   2.159   8.084 -1.3757  1.4200 -1.2456
  156SAPE  H10Y17419   3.208   2.332   8.117  0.8889  0.7424  0.7183
  156SAPE  C31117420   3.345   2.208   8.220  0.0034  0.0126  0.6708
  156SAPE  H11X17421   3.434   2.275   8.221  1.4454 -1.7384 -1.5882
  156SAPE  H11Y17422   3.375   2.102   8.218 -1.1811 -0.3254 -0.1552
  156SAPE  C31217423   3.263   2.250   8.342 -0.4662  0.6164 -0.2233
  156SAPE  H12X17424   3.164   2.201   8.331 -1.2679  1.9493  0.6771
  156SAPE  H12Y17425   3.247   2.360   8.351 -2.4745  0.2965  0.8627
  156SAPE  C31317426   3.320   2.211   8.481 -0.6692  0.0300 -0.0206
  156SAPE  H13X17427   3.300   2.102   8.495 -0.9872  0.0532 -0.2821
  156SAPE  H13Y17428   3.259   2.263   8.557 -0.2015  0.2097  0.2359
  156SAPE  C31417429   3.468   2.247   8.496  0.0789 -0.3988 -0.5604
  156SAPE  H14X17430   3.457   2.353   8.466  0.0600 -0.3138 -0.2611
  156SAPE  H14Y17431   3.533   2.186   8.430 -2.1932 -2.0753 -1.3811
  156SAPE  C31517432   3.507   2.249   8.641 -0.6226 -0.1240 -0.2253
  156SAPE  H15X17433   3.476   2.150   8.678 -0.6688  0.2000  0.6277
  156SAPE  H15Y17434   3.448   2.328   8.694  0.6583  0.9784 -0.3750
  156SAPE  C31617435   3.657   2.277   8.651 -0.5033 -0.0114  0.9383
  156SAPE  H16X17436   3.712   2.186   8.616  2.7886  1.4052  1.9626
  156SAPE  H16Y17437   3.680   2.303   8.757  1.2628  2.4655  0.0480
  156SAPE  C31717438   3.726   2.394   8.564 -0.3242  0.6316 -0.0237
  156SAPE  H17X17439   3.661   2.484   8.569 -0.1881  0.6887  1.1415
  156SAPE  H17Y17440   3.703   2.371   8.458 -3.1987 -0.3758  0.7509
  156SAPE  C31817441   3.871   2.420   8.599  0.8481 -0.7273  0.6420
  156SAPE  H18X17442   3.905   2.516   8.554 -1.4371 -1.0847 -2.1161
  156SAPE  H18Y17443   3.933   2.335   8.562  0.9069 -0.7725  0.8449
  156SAPE  H18Z17444   3.890   2.423   8.708  0.4351  1.6265  0.6918
  157SAPE     N17445   2.496   5.399   6.481  0.5067 -0.3795  0.1578
  157SAPE   HN117446   2.534   5.314   6.436  1.7588  1.0877 -1.6940
  157SAPE   HN217447   2.396   5.406   6.455  0.4101 -0.0457  0.5955
  157SAPE   HN317448   2.537   5.481   6.433 -1.3733  0.0944 -0.7453
  157SAPE   C1217449   2.522   5.399   6.629 -0.6634 -0.0289 -1.0546
  157SAPE  H12A17450   2.624   5.355   6.632 -0.9554 -0.9202 -2.6976
  157SAPE  H12B17451   2.450   5.321   6.664 -1.3311  0.4670 -1.2974
  157SAPE   C1117452   2.508   5.542   6.688 -1.2092  0.4269 -0.0779
  157SAPE  H11A17453   2.544   5.550   6.793  4.1256 -1.5107 -1.4383
  157SAPE  H11B17454   2.399   5.561   6.678 -1.1972 -0.0518 -1.2969
  157SAPE     P17455   2.536   5.746   6.527  0.1344 -0.4972 -0.4209
  157SAPE   O1317456   2.651   5.831   6.492  0.1114 -0.2396  0.6680
  157SAPE   O1417457   2.473   5.691   6.411  0.7334  0.1584  0.6645
  157SAPE   O1217458   2.591   5.634   6.622 -0.5198 -0.3523 -0.6119
  157SAPE   O1117459   2.438   5.830   6.626 -0.4484  0.5167  0.2439
  157SAPE    C117460   2.501   5.890   6.740  0.2457 -0.5417  0.0556
  157SAPE    HA17461   2.420   5.904   6.816 -1.1592  0.8883 -1.6293
  157SAPE    HB17462   2.577   5.827   6.790  1.7993  1.0255 -0.2485
  157SAPE    C217463   2.560   6.033   6.723 -0.0387 -1.1545 -0.2763
  157SAPE    HS17464   2.658   6.021   6.673  0.5763 -1.7054  1.0293
  157SAPE   O2117465   2.578   6.087   6.862 -0.3490  0.2094  0.3661
  157SAPE   C2117466   2.654   6.190   6.869  0.2013  0.0518  0.2791
  157SAPE   O2217467   2.706   6.253   6.776  0.4772 -0.0812  0.2205
  157SAPE   C2217468   2.680   6.217   7.019  0.3693  0.7667 -0.4709
  157SAPE   H2R17469   2.595   6.166   7.069 -0.8921  1.8632 -1.4293
  157SAPE   H2S17470   2.774   6.159   7.030 -1.1278 -1.6631  0.1768
  157SAPE    C317471   2.467   6.119   6.637 -0.3156 -0.4822  0.8138
  157SAPE    HX17472   2.445   6.060   6.545 -2.9842  0.4725  0.7693
  157SAPE    HY17473   2.513   6.214   6.603  1.0952 -1.2803  0.3976
  157SAPE   O3117474   2.337   6.138   6.702 -0.2372 -0.7089 -0.0443
  157SAPE   C3117475   2.316   6.256   6.757  0.0718 -0.0157  0.2852
  157SAPE   O3217476   2.379   6.356   6.745  0.3189 -0.1285  1.1164
  157SAPE   C3217477   2.208   6.238   6.857  0.0953 -0.4929 -0.2353
  157SAPE   H2X17478   2.237   6.149   6.918  2.9271 -0.4994 -1.4217
  157SAPE   H2Y17479   2.122   6.213   6.792 -0.2393 -2.4180  0.8588
  157SAPE   C2317480   2.682   6.362   7.063  0.9726  0.9124 -0.3636
  157SAPE   H3R17481   2.596   6.415   7.016  0.0609 -1.3400 -1.3498
  157SAPE   H3S17482   2.770   6.423   7.032  0.5733  1.1728 -1.0079
  157SAPE   C2417483   2.668   6.392   7.213 -0.0917 -0.3165  0.1883
  157SAPE   H4R17484   2.573   6.341   7.240 -0.2669 -0.5772 -0.8702
  157SAPE   H4S17485   2.641   6.500   7.210 -1.4671 -0.6546 -1.9324
  157SAPE   C2517486   2.780   6.355   7.306 -0.0882  0.1863 -0.8993
  157SAPE   H5R17487   2.876   6.391   7.267  0.0931  0.6841 -0.0141
  157SAPE   C2617488   2.780   6.265   7.417 -0.3842 -0.2150 -0.0100
  157SAPE   H6R17489   2.872   6.245   7.473 -0.8009 -0.2167  0.6844
  157SAPE   C2717490   2.663   6.187   7.461  0.1393  0.7440 -0.2850
  157SAPE   H7R17491   2.652   6.096   7.397  1.3303 -0.1521  0.7209
  157SAPE   H7S17492   2.562   6.232   7.452  0.0467  0.8063  0.9290
  157SAPE   C2817493   2.691   6.130   7.600  0.1114  0.0594 -0.8265
  157SAPE   H8R17494   2.760   6.045   7.601  2.6305  1.8949  2.3308
  157SAPE   C2917495   2.661   6.181   7.725 -0.6649 -0.7443 -0.2549
  157SAPE   H9R17496   2.697   6.133   7.817  0.6459  1.5348  0.5044
  157SAPE  C21017497   2.601   6.319   7.754  0.3951 -0.3821 -0.2740
  157SAPE  H10R17498   2.634   6.388   7.673 -1.5828  0.6864 -0.2244
  157SAPE  H10S17499   2.641   6.340   7.855 -0.3738  0.5533 -0.1546
  157SAPE  C21117500   2.452   6.316   7.735  0.3042 -0.9863  0.5103
  157SAPE  H11R17501   2.417   6.313   7.631 -0.9364  3.5947  0.5899
  157SAPE  C21217502   2.362   6.355   7.830  0.2235  0.8161 -0.1556
  157SAPE  H12R17503   2.258   6.338   7.800  1.0023 -1.3157 -1.8911
  157SAPE  C21317504   2.392   6.387   7.971 -0.2573  0.0840 -0.3111
  157SAPE  H13R17505   2.297   6.406   8.026  0.6868  0.7055  1.1512
  157SAPE  H13S17506   2.448   6.483   7.975  2.0457 -1.1376 -1.3394
  157SAPE  C21417507   2.452   6.277   8.053 -0.5515 -0.1093  0.0871
  157SAPE  H14R17508   2.437   6.176   8.012  2.4800 -1.2564  1.5199
  157SAPE  C21517509   2.516   6.275   8.169  0.1264  0.7751  0.1610
  157SAPE  H15R17510   2.528   6.179   8.222  0.5926 -0.1603 -1.5703
  157SAPE  C21617511   2.553   6.393   8.253  0.0949 -0.1791  0.1509
  157SAPE  H16R17512   2.521   6.483   8.195 -1.5055 -0.5210  0.4592
  157SAPE  H16S17513   2.662   6.382   8.272  0.0078 -0.0419  0.7395
  157SAPE  C21717514   2.473   6.416   8.388 -0.7000 -0.5199 -0.4891
  157SAPE  H17R17515   2.446   6.318   8.432  1.5652  0.0643  2.5354
  157SAPE  H17S17516   2.383   6.474   8.360 -1.7672 -1.6881  0.3882
  157SAPE  C21817517   2.550   6.494   8.497 -0.7198 -0.4262 -0.3575
  157SAPE  H18R17518   2.578   6.594   8.458 -0.3805 -0.8109 -1.1284
  157SAPE  H18S17519   2.652   6.450   8.508 -1.4352 -1.8916  0.8174
  157SAPE  C21917520   2.486   6.507   8.630 -0.0793  0.1710  0.9879
  157SAPE  H19R17521   2.460   6.408   8.673  2.1453 -0.5702  0.7571
  157SAPE  H19S17522   2.383   6.548   8.616 -0.5573 -1.1527  0.3721
  157SAPE  C22017523   2.559   6.590   8.735 -0.2241  0.5997 -0.3590
  157SAPE  H20R17524   2.559   6.699   8.714 -2.9162  0.3871 -1.8851
  157SAPE  H20S17525   2.664   6.554   8.740 -1.0468 -1.8567  1.9916
  157SAPE  H20T17526   2.515   6.584   8.837 -2.4631  0.8566 -1.2566
  157SAPE   C3317527   2.183   6.367   6.946  0.0912 -0.4134 -0.2451
  157SAPE   H3X17528   2.147   6.445   6.874  0.6492  0.6573  0.6090
  157SAPE   H3Y17529   2.284   6.393   6.985  0.3532 -0.6703 -0.7444
  157SAPE   C3417530   2.089   6.348   7.075 -0.0620  0.4805  0.2759
  157SAPE   H4X17531   2.000   6.295   7.036 -0.4892  2.6042 -1.8037
  157SAPE   H4Y17532   2.066   6.452   7.108 -0.7694 -0.2529  2.2838
  157SAPE   C3517533   2.138   6.271   7.192 -0.0555  0.3380 -0.0297
  157SAPE   H5X17534   2.213   6.333   7.245  0.4656 -0.2200 -0.0983
  157SAPE   H5Y17535   2.201   6.186   7.158 -2.3162 -0.5870 -2.2677
  157SAPE   C3617536   2.025   6.223   7.285  0.6708 -0.0695  0.5117
  157SAPE   H6X17537   1.960   6.151   7.231 -2.2776  0.2922  3.2635
  157SAPE   H6Y17538   1.960   6.309   7.314 -1.1323 -2.2507  3.5866
  157SAPE   C3717539   2.078   6.165   7.416  0.1240  0.2095  0.3713
  157SAPE   H7X17540   2.132   6.248   7.466  0.7542  0.2028 -0.2685
  157SAPE   H7Y17541   2.148   6.080   7.398 -0.6545 -0.3600 -0.0136
  157SAPE   C3817542   1.957   6.110   7.491  0.2452 -0.2639 -0.8608
  157SAPE   H8X17543   1.892   6.039   7.436 -2.5793  0.0985  1.7187
  157SAPE   H8Y17544   1.889   6.195   7.513 -0.2362 -0.0997 -2.8001
  157SAPE   C3917545   1.999   6.041   7.617 -0.3594  0.4582  0.1743
  157SAPE   H9X17546   2.083   5.970   7.602 -0.5639 -0.0340  1.2533
  157SAPE   H9Y17547   1.913   5.984   7.658  0.0353  1.1416  2.0807
  157SAPE  C31017548   2.047   6.141   7.733  0.5972  0.1831  0.1064
  157SAPE  H10X17549   1.963   6.211   7.754  0.7043  0.0993  0.8428
  157SAPE  H10Y17550   2.135   6.196   7.692 -0.0096  1.0407 -0.0911
  157SAPE  C31117551   2.077   6.064   7.861  0.5579 -0.0125  0.1389
  157SAPE  H11X17552   2.147   6.112   7.932 -1.8729  2.3685  1.1027
  157SAPE  H11Y17553   2.133   5.975   7.824  0.2813  0.3372 -1.1880
  157SAPE  C31217554   1.946   6.034   7.930  0.9665  0.6631  0.2135
  157SAPE  H12X17555   1.877   5.990   7.854 -0.2370  3.0335 -0.1463
  157SAPE  H12Y17556   1.897   6.131   7.951 -1.1812 -0.0307 -1.2568
  157SAPE  C31317557   1.961   5.944   8.051 -0.4377  0.4429  0.6589
  157SAPE  H13X17558   2.039   5.991   8.114 -0.4305  0.8572  0.3488
  157SAPE  H13Y17559   2.002   5.850   8.007  3.1305  2.5543 -0.9665
  157SAPE  C31417560   1.827   5.932   8.129 -0.6910  0.5206  0.1016
  157SAPE  H14X17561   1.767   5.846   8.092  0.4843 -0.1859 -0.1965
  157SAPE  H14Y17562   1.770   6.027   8.115  1.2782  1.6203 -0.7909
  157SAPE  C31517563   1.843   5.914   8.281 -0.3697 -0.1673  0.1056
  157SAPE  H15X17564   1.907   5.997   8.318 -0.2928 -0.9416  1.7714
  157SAPE  H15Y17565   1.912   5.828   8.290  2.3212  1.7405 -0.8837
  157SAPE  C31617566   1.707   5.915   8.351  0.2994  0.2658  0.2132
  157SAPE  H16X17567   1.715   5.843   8.435  1.2729 -1.5544 -1.3476
  157SAPE  H16Y17568   1.630   5.873   8.283 -1.4258  0.1995  2.1418
  157SAPE  C31717569   1.656   6.058   8.364 -0.5484 -0.5428 -0.3282
  157SAPE  H17X17570   1.630   6.103   8.266 -1.2048  1.6597  0.8004
  157SAPE  H17Y17571   1.741   6.111   8.412 -1.2617 -0.6163  1.0821
  157SAPE  C31817572   1.538   6.076   8.451 -0.1154 -0.5315  0.2131
  157SAPE  H18X17573   1.518   6.185   8.445  0.8916 -0.4172 -3.1025
  157SAPE  H18Y17574   1.557   6.042   8.555  1.2668 -1.1651 -0.2261
  157SAPE  H18Z17575   1.443   6.031   8.416 -1.7477  1.9834  1.1204
  158SAPE     N17576   4.811   0.903   6.560 -0.0968  0.2464 -0.3075
  158SAPE   HN117577   4.790   0.888   6.661 -0.6662  1.8208 -0.1621
  158SAPE   HN217578   4.914   0.907   6.546  0.2156 -1.2492  1.2048
  158SAPE   HN317579   4.775   0.998   6.537  1.9478  1.2123  0.2758
  158SAPE   C1217580   4.732   0.814   6.466 -1.0278  0.7465 -0.2653
  158SAPE  H12A17581   4.794   0.800   6.375  0.8610 -1.4370  1.2460
  158SAPE  H12B17582   4.637   0.867   6.445 -0.9443  1.3654  0.8639
  158SAPE   C1117583   4.707   0.679   6.528 -0.2386  0.1297 -0.1147
  158SAPE  H11A17584   4.660   0.608   6.457 -2.0030 -1.4350  2.4534
  158SAPE  H11B17585   4.633   0.694   6.610 -0.1025 -2.1935  0.5171
  158SAPE     P17586   4.903   0.509   6.521  0.1712  0.4169  0.1185
  158SAPE   O1317587   4.832   0.387   6.541  0.5142 -0.0504  0.1373
  158SAPE   O1417588   4.933   0.550   6.382  0.0556 -0.3682  0.3891
  158SAPE   O1217589   4.827   0.629   6.590  0.6134 -0.2970 -0.1474
  158SAPE   O1117590   5.034   0.506   6.607 -0.0243  0.0758 -0.0582
  158SAPE    C117591   5.028   0.523   6.752 -0.0016 -0.2217  0.5683
  158SAPE    HA17592   5.130   0.547   6.788 -0.1125  0.6174  0.3494
  158SAPE    HB17593   4.975   0.616   6.782 -0.5202 -0.8037  1.5122
  158SAPE    C217594   4.994   0.394   6.841 -0.1594 -0.6943 -0.2396
  158SAPE    HS17595   4.891   0.366   6.812  0.1736 -1.4994 -0.6809
  158SAPE   O2117596   5.005   0.424   6.981  0.7843  0.4416 -0.3294
  158SAPE   C2117597   4.925   0.353   7.068 -0.0892 -0.0747  0.5683
  158SAPE   O2217598   4.839   0.272   7.037  0.8357 -0.6580 -0.2121
  158SAPE   C2217599   4.946   0.410   7.216  0.1297 -0.1734 -0.9182
  158SAPE   H2R17600   5.055   0.410   7.233 -0.2223  1.2314  2.1039
  158SAPE   H2S17601   4.909   0.515   7.209 -0.4646 -0.2337  0.7185
  158SAPE    C317602   5.082   0.276   6.800  0.7104  0.0050 -0.0801
  158SAPE    HX17603   5.083   0.272   6.689 -2.5874 -0.9821 -0.1760
  158SAPE    HY17604   5.038   0.180   6.835  0.2167  0.5165  0.7194
  158SAPE   O3117605   5.209   0.292   6.848 -0.4349  0.4434 -0.3794
  158SAPE   C3117606   5.246   0.254   6.968  0.1792 -0.7455 -0.7468
  158SAPE   O3217607   5.175   0.202   7.055 -0.5139 -0.5296  0.0402
  158SAPE   C3217608   5.399   0.285   6.972 -0.0917 -0.7602 -0.6504
  158SAPE   H2X17609   5.434   0.263   6.868 -1.2456  1.9017 -1.6945
  158SAPE   H2Y17610   5.447   0.214   7.043 -1.4340  0.1606  1.2551
  158SAPE   C2317611   4.852   0.332   7.321  0.2365 -0.3938 -0.3791
  158SAPE   H3R17612   4.870   0.222   7.319 -0.8590 -0.6703  1.8592
  158SAPE   H3S17613   4.743   0.332   7.298  0.2428 -0.1503 -0.4110
  158SAPE   C2417614   4.875   0.392   7.463 -0.3239  0.1533  0.1557
  158SAPE   H4R17615   4.802   0.349   7.535 -0.0532 -1.8181 -0.6727
  158SAPE   H4S17616   4.856   0.501   7.468  0.2534  0.2385  0.6396
  158SAPE   C2517617   5.008   0.343   7.501 -0.1357  0.4821  0.8484
  158SAPE   H5R17618   5.085   0.333   7.423  0.0136 -2.7688  1.2661
  158SAPE   C2617619   5.055   0.307   7.623 -0.3029  0.1598  0.1724
  158SAPE   H6R17620   5.156   0.266   7.638  0.4447  2.2279  1.2805
  158SAPE   C2717621   4.977   0.303   7.748  0.2010  0.2246 -0.1027
  158SAPE   H7R17622   4.993   0.200   7.786 -0.5989  0.0436 -0.2440
  158SAPE   H7S17623   4.868   0.294   7.727 -0.0447 -1.5692  1.6344
  158SAPE   C2817624   4.996   0.408   7.850 -0.0083 -0.3781 -0.6351
  158SAPE   H8R17625   4.999   0.511   7.811 -3.1629 -0.2746 -0.8521
  158SAPE   C2917626   5.004   0.383   7.981  0.0066 -0.1916 -0.8572
  158SAPE   H9R17627   5.020   0.465   8.053 -2.8364 -0.8388  0.7046
  158SAPE  C21017628   4.999   0.251   8.048 -0.0119  0.2265 -0.2609
  158SAPE  H10R17629   5.097   0.200   8.046 -0.4805 -0.6853 -0.2397
  158SAPE  H10S17630   4.927   0.192   7.988 -1.6622  0.2915  1.5660
  158SAPE  C21117631   4.964   0.249   8.196  0.2218  0.7456 -0.4899
  158SAPE  H11R17632   5.054   0.250   8.259 -0.9605  1.5603  1.2573
  158SAPE  C21217633   4.838   0.256   8.249 -1.2341  0.2122  0.4330
  158SAPE  H12R17634   4.827   0.251   8.358 -0.4350  0.9892  0.5523
  158SAPE  C21317635   4.709   0.267   8.179  0.1011 -0.6674  1.0901
  158SAPE  H13R17636   4.708   0.360   8.118  2.4951 -1.7121 -0.6708
  158SAPE  H13S17637   4.633   0.288   8.258  1.4118  0.4994  2.0959
  158SAPE  C21417638   4.672   0.152   8.092 -0.1800  0.7986  1.0202
  158SAPE  H14R17639   4.681   0.175   7.985  0.3873  0.8184  1.0680
  158SAPE  C21517640   4.631   0.025   8.125 -0.2577 -0.3512 -0.6166
  158SAPE  H15R17641   4.615  -0.047   8.043  3.2152 -1.1682 -0.7479
  158SAPE  C21617642   4.610  -0.024   8.271 -0.1237 -0.3758  0.0410
  158SAPE  H16R17643   4.501  -0.027   8.287  0.2939  0.0426  3.5796
  158SAPE  H16S17644   4.645   0.055   8.340  0.5129  0.5580 -1.3172
  158SAPE  C21717645   4.669  -0.167   8.301 -0.1263 -0.3760  0.7797
  158SAPE  H17R17646   4.665  -0.243   8.220 -1.6668  2.0321 -1.5299
  158SAPE  H17S17647   4.613  -0.207   8.388 -1.4819 -1.3825 -0.4956
  158SAPE  C21817648   4.816  -0.154   8.351  0.6282 -0.1939 -0.3184
  158SAPE  H18R17649   4.831  -0.074   8.428  2.6198 -0.3344 -0.5179
  158SAPE  H18S17650   4.873  -0.118   8.263 -3.4351  3.1869 -1.9230
  158SAPE  C21917651   4.880  -0.277   8.418  0.8384  0.2756 -0.8185
  158SAPE  H19R17652   4.869  -0.372   8.360  1.0336 -0.9661  1.0829
  158SAPE  H19S17653   4.822  -0.287   8.512  0.8334  1.0030 -0.7437
  158SAPE  C22017654   5.026  -0.253   8.454  0.1276 -0.3226 -0.0970
  158SAPE  H20R17655   5.102  -0.272   8.375 -0.1453  2.5415 -1.1671
  158SAPE  H20S17656   5.058  -0.308   8.545  1.2548  0.5156  0.0270
  158SAPE  H20T17657   5.038  -0.145   8.477  3.0093 -1.0534  2.4528
  158SAPE   C3317658   5.427   0.432   7.011 -0.6286  0.0255  0.6008
  158SAPE   H3X17659   5.364   0.500   6.949  1.0287  0.5533 -0.5867
  158SAPE   H3Y17660   5.537   0.446   7.002 -0.5772  0.0939  1.2935
  158SAPE   C3417661   5.385   0.460   7.157 -0.7928 -0.0170  0.0920
  158SAPE   H4X17662   5.278   0.464   7.184 -0.3564  1.6742  1.8295
  158SAPE   H4Y17663   5.427   0.560   7.182  4.1154 -1.7266 -0.1838
  158SAPE   C3517664   5.448   0.362   7.258  0.5132 -0.2639  0.0885
  158SAPE   H5X17665   5.548   0.330   7.221  0.0845 -2.1268  0.4839
  158SAPE   H5Y17666   5.382   0.273   7.261 -1.5105  1.1217 -1.0027
  158SAPE   C3617667   5.465   0.411   7.404  0.0399 -0.8548 -0.7098
  158SAPE   H6X17668   5.375   0.474   7.424 -0.0841 -0.9022 -1.0943
  158SAPE   H6Y17669   5.558   0.467   7.426 -0.6339  0.1279 -0.3311
  158SAPE   C3717670   5.466   0.301   7.506  0.0408 -0.2275  0.1343
  158SAPE   H7X17671   5.374   0.244   7.481  0.2449 -0.4072 -0.2131
  158SAPE   H7Y17672   5.550   0.231   7.490  1.5131  1.4644  0.1190
  158SAPE   C3817673   5.469   0.349   7.650 -0.4439  0.1814 -0.5948
  158SAPE   H8X17674   5.383   0.416   7.672 -0.1624  0.1149  0.7788
  158SAPE   H8Y17675   5.564   0.402   7.672 -1.6333  1.5962  1.5148
  158SAPE   C3917676   5.460   0.228   7.746  0.1209 -0.2055  0.6157
  158SAPE   H9X17677   5.518   0.145   7.701  0.0807  1.0127 -1.8448
  158SAPE   H9Y17678   5.354   0.199   7.728  0.5980  0.2025 -3.8742
  158SAPE  C31017679   5.488   0.253   7.898  0.3429  0.3718 -0.6073
  158SAPE  H10X17680   5.588   0.301   7.894  1.2770 -1.4651 -4.7082
  158SAPE  H10Y17681   5.497   0.152   7.943 -0.0803 -0.9476 -3.2723
  158SAPE  C31117682   5.392   0.345   7.972  1.2479  0.4759 -0.8578
  158SAPE  H11X17683   5.302   0.285   7.996  2.8773 -2.0570 -0.6363
  158SAPE  H11Y17684   5.367   0.434   7.910  0.2212  0.8753  0.0982
  158SAPE  C31217685   5.455   0.409   8.099  0.4049 -0.4835  0.3468
  158SAPE  H12X17686   5.373   0.468   8.144  0.5563 -0.0228  0.0283
  158SAPE  H12Y17687   5.530   0.480   8.058 -1.7053  1.6336 -0.0963
  158SAPE  C31317688   5.508   0.316   8.204 -0.3249  0.7918  0.0588
  158SAPE  H13X17689   5.606   0.277   8.170 -0.9792  1.0913 -2.3428
  158SAPE  H13Y17690   5.436   0.231   8.202 -0.7138  0.9998  2.2845
  158SAPE  C31417691   5.528   0.359   8.352 -0.6509 -0.1204 -0.5134
  158SAPE  H14X17692   5.626   0.410   8.366 -0.7237 -0.2105  0.3642
  158SAPE  H14Y17693   5.546   0.265   8.408  1.2558  0.4345 -0.1169
  158SAPE  C31517694   5.416   0.433   8.420  0.5021  0.0791  0.2340
  158SAPE  H15X17695   5.333   0.358   8.423  1.2373 -0.7153  1.9568
  158SAPE  H15Y17696   5.383   0.517   8.355 -0.0705 -0.2673  0.0683
  158SAPE  C31617697   5.442   0.481   8.562  0.0371 -0.0947 -0.8844
  158SAPE  H16X17698   5.454   0.389   8.623  1.9513  0.1599 -0.8273
  158SAPE  H16Y17699   5.358   0.543   8.599 -1.2841 -2.0284 -0.4951
  158SAPE  C31717700   5.566   0.570   8.581  0.0919 -0.2931 -0.0773
  158SAPE  H17X17701   5.592   0.637   8.497 -0.2487 -1.4536 -1.1441
  158SAPE  H17Y17702   5.657   0.506   8.586 -0.0577 -0.4660  0.4647
  158SAPE  C31817703   5.559   0.651   8.701 -0.6884 -0.5056 -0.2499
  158SAPE  H18X17704   5.660   0.697   8.703  0.3648 -2.6804  2.0413
  158SAPE  H18Y17705   5.562   0.586   8.791 -0.0042  0.2690  0.3047
  158SAPE  H18Z17706   5.477   0.725   8.712  1.0950  1.4521  0.5607
  159SAPE     N17707   3.435   6.049   6.340 -0.6230 -0.3742  0.2087
  159SAPE   HN117708   3.400   5.981   6.269 -2.2039  2.2401 -1.6853
  159SAPE   HN217709   3.453   6.136   6.287  0.9309 -0.5435  0.4057
  159SAPE   HN317710   3.525   6.013   6.377 -0.1872 -0.3824 -0.8434
  159SAPE   C1217711   3.329   6.066   6.446 -0.1807 -0.2439 -0.1965
  159SAPE  H12A17712   3.232   6.085   6.397 -0.9024 -2.8917  0.0624
  159SAPE  H12B17713   3.364   6.147   6.513  0.2984  0.0370 -0.7727
  159SAPE   C1117714   3.322   5.931   6.525 -0.2294  0.3947 -0.4032
  159SAPE  H11A17715   3.249   5.936   6.609  1.5835 -1.6586  1.4317
  159SAPE  H11B17716   3.420   5.926   6.577  0.4374 -0.4965 -1.6972
  159SAPE     P17717   3.161   5.787   6.361 -0.4275  0.4306 -0.3415
  159SAPE   O1317718   3.159   5.878   6.245  0.2980  0.1305 -0.3876
  159SAPE   O1417719   3.141   5.641   6.336  0.0602 -0.3892 -0.0058
  159SAPE   O1217720   3.303   5.810   6.446 -0.0911  0.8149  0.3516
  159SAPE   O1117721   3.048   5.834   6.462  0.0504 -0.9038  0.2616
  159SAPE    C117722   2.959   5.734   6.517 -0.3264 -0.4648 -0.0878
  159SAPE    HA17723   2.866   5.715   6.458 -0.1701 -1.6314  0.0073
  159SAPE    HB17724   3.017   5.640   6.533  1.8242  1.1204  2.1090
  159SAPE    C217725   2.912   5.763   6.666  0.0452 -0.8736  0.1836
  159SAPE    HS17726   2.822   5.825   6.652  0.7083  0.1134  0.2083
  159SAPE   O2117727   3.019   5.837   6.738 -0.1113  0.1700  0.5260
  159SAPE   C2117728   2.983   5.919   6.831 -0.0738 -0.3556  0.5140
  159SAPE   O2217729   2.873   5.962   6.846 -0.0538 -0.5060  0.2752
  159SAPE   C2217730   3.113   5.968   6.900 -0.4015 -0.2875  0.4533
  159SAPE   H2R17731   3.185   5.885   6.914  3.1966  2.6746  1.4508
  159SAPE   H2S17732   3.158   6.049   6.839 -1.4706 -0.3140 -0.3999
  159SAPE    C317733   2.879   5.633   6.753  0.0388  0.6012 -0.4749
  159SAPE    HX17734   2.975   5.580   6.772  1.3461  3.2132  0.6583
  159SAPE    HY17735   2.807   5.567   6.701 -0.9245  0.7294  0.6661
  159SAPE   O3117736   2.828   5.686   6.875  0.6635  0.2752 -0.2144
  159SAPE   C3117737   2.803   5.593   6.965  0.2534 -0.2158  0.2731
  159SAPE   O3217738   2.815   5.476   6.946 -0.0557  0.2732 -0.0843
  159SAPE   C3217739   2.760   5.668   7.092  0.2681  0.1978 -0.1671
  159SAPE   H2X17740   2.845   5.653   7.163  1.0500  0.8021 -0.9543
  159SAPE   H2Y17741   2.669   5.613   7.126  0.5406  1.0066  2.0548
  159SAPE   C2317742   3.096   6.033   7.039  0.7182 -0.5052  0.7685
  159SAPE   H3R17743   3.067   5.954   7.112  1.0613 -0.6955  0.7008
  159SAPE   H3S17744   3.004   6.096   7.040  0.4817 -0.6268 -2.4205
  159SAPE   C2417745   3.202   6.113   7.102  0.1702 -0.2007 -1.0624
  159SAPE   H4R17746   3.223   6.195   7.031 -0.0050  0.2227 -0.6311
  159SAPE   H4S17747   3.293   6.052   7.118  0.5725  0.9550  1.6080
  159SAPE   C2517748   3.172   6.178   7.238  0.1678  0.7795 -1.1667
  159SAPE   H5R17749   3.159   6.287   7.236  0.2808  0.8480  0.6716
  159SAPE   C2617750   3.165   6.121   7.364 -0.5659 -0.0048 -0.5214
  159SAPE   H6R17751   3.126   6.175   7.452 -2.8203 -1.3864 -0.6027
  159SAPE   C2717752   3.200   5.975   7.395  0.1230  0.3261 -0.0008
  159SAPE   H7R17753   3.252   5.933   7.307  1.7077  2.1757 -0.0148
  159SAPE   H7S17754   3.103   5.926   7.416 -1.2183  3.0737  0.7614
  159SAPE   C2817755   3.282   5.958   7.515 -0.1907 -0.3982 -0.1884
  159SAPE   H8R17756   3.388   5.936   7.497  0.0301 -0.5726  1.2792
  159SAPE   C2917757   3.230   5.966   7.641 -0.6811 -0.4128  0.0502
  159SAPE   H9R17758   3.298   5.957   7.727  1.6284  0.8752 -1.4953
  159SAPE  C21017759   3.088   5.980   7.684  0.7053 -0.2253  0.3107
  159SAPE  H10R17760   3.047   5.883   7.720 -0.5560  0.3436  0.4847
  159SAPE  H10S17761   3.026   6.001   7.593 -0.4324 -0.9614  0.8893
  159SAPE  C21117762   3.049   6.093   7.770  0.2722 -0.2231 -0.7572
  159SAPE  H11R17763   3.090   6.192   7.747  5.0795 -1.2393  1.8692
  159SAPE  C21217764   2.973   6.089   7.886 -0.9460 -0.6420  0.1241
  159SAPE  H12R17765   2.947   6.188   7.928 -0.7864 -0.7590  0.5041
  159SAPE  C21317766   2.914   5.978   7.961 -0.4016  0.5323  0.6319
  159SAPE  H13R17767   2.922   5.887   7.898 -2.7212  0.6898 -0.0067
  159SAPE  H13S17768   2.806   6.003   7.967 -0.5875 -0.4712  1.9459
  159SAPE  C21417769   2.966   5.954   8.096 -0.0468 -0.3073  0.5585
  159SAPE  H14R17770   3.074   5.933   8.085 -0.1282  0.4073 -2.5490
  159SAPE  C21517771   2.906   5.968   8.214 -0.0779 -0.3804 -0.3418
  159SAPE  H15R17772   2.964   5.951   8.306  0.0835 -3.3455 -0.8787
  159SAPE  C21617773   2.768   6.029   8.237  0.2027  0.5028 -0.8950
  159SAPE  H16R17774   2.691   5.950   8.251  0.0558  0.5008 -1.6324
  159SAPE  H16S17775   2.732   6.077   8.144 -2.8067 -3.0581 -1.7940
  159SAPE  C21717776   2.767   6.116   8.364  0.1778  0.1952  0.6791
  159SAPE  H17R17777   2.664   6.156   8.371  0.5229  0.9007  1.9807
  159SAPE  H17S17778   2.831   6.204   8.339  0.9460 -1.0295 -2.0942
  159SAPE  C21817779   2.811   6.057   8.499 -0.1486 -0.2422 -0.4605
  159SAPE  H18R17780   2.919   6.034   8.494 -0.9762 -5.0346 -0.7282
  159SAPE  H18S17781   2.764   5.962   8.530  0.7249  0.2063  2.4650
  159SAPE  C21917782   2.782   6.171   8.596 -0.1182 -0.1885  0.8679
  159SAPE  H19R17783   2.676   6.193   8.619  0.5222  1.6108  2.3588
  159SAPE  H19S17784   2.804   6.265   8.541 -3.2373  0.0447 -0.1629
  159SAPE  C22017785   2.856   6.179   8.733 -0.5197 -0.0754  0.0550
  159SAPE  H20R17786   2.865   6.080   8.782 -3.3264  0.0560  1.0143
  159SAPE  H20S17787   2.809   6.252   8.803 -1.9804  0.2000 -1.1667
  159SAPE  H20T17788   2.952   6.230   8.705 -1.0246  1.3504  0.8042
  159SAPE   C3317789   2.729   5.818   7.083  0.4044  0.1355 -0.0172
  159SAPE   H3X17790   2.679   5.846   6.988  0.0926 -0.6128 -0.0853
  159SAPE   H3Y17791   2.828   5.858   7.052 -0.7952  0.8069 -3.4448
  159SAPE   C3417792   2.678   5.886   7.214 -0.1560  0.1528 -0.3369
  159SAPE   H4X17793   2.643   5.989   7.193 -1.2930  0.3962  2.2566
  159SAPE   H4Y17794   2.778   5.886   7.263  1.7673  2.5102 -3.8151
  159SAPE   C3517795   2.575   5.807   7.296  1.7602 -0.3721 -0.1058
  159SAPE   H5X17796   2.560   5.705   7.255 -0.1819 -0.3066  0.3355
  159SAPE   H5Y17797   2.474   5.852   7.281  0.9440 -2.2577 -0.5560
  159SAPE   C3617798   2.613   5.788   7.444  0.4177 -0.9445 -0.2330
  159SAPE   H6X17799   2.607   5.893   7.481 -1.4180 -1.0145 -0.2047
  159SAPE   H6Y17800   2.716   5.749   7.455  0.0106 -1.3227  3.8590
  159SAPE   C3717801   2.507   5.708   7.523 -0.0836  0.0049  0.6075
  159SAPE   H7X17802   2.484   5.616   7.465  1.0515  0.8164 -1.2069
  159SAPE   H7Y17803   2.413   5.767   7.520 -0.0441  0.0476  0.1102
  159SAPE   C3817804   2.567   5.681   7.663  0.7161 -0.2970 -0.1194
  159SAPE   H8X17805   2.670   5.640   7.662  0.7333 -0.2476 -0.3900
  159SAPE   H8Y17806   2.501   5.613   7.722 -0.8260  1.1288 -0.1256
  159SAPE   C3917807   2.583   5.801   7.750  0.7691  0.1137 -0.1367
  159SAPE   H9X17808   2.540   5.885   7.692  0.1540 -0.2395 -0.2058
  159SAPE   H9Y17809   2.682   5.833   7.788  0.3151  0.5107  0.7528
  159SAPE  C31017810   2.501   5.804   7.884  1.3857  0.3559 -0.0266
  159SAPE  H10X17811   2.530   5.718   7.948  1.3128 -0.3713 -0.9412
  159SAPE  H10Y17812   2.396   5.774   7.861  0.9655 -0.7125  2.8390
  159SAPE  C31117813   2.498   5.927   7.972 -0.2480 -0.1413  0.4391
  159SAPE  H11X17814   2.420   5.994   7.929 -1.5967 -0.8331  1.7302
  159SAPE  H11Y17815   2.593   5.985   7.968  0.2889 -0.8267  2.3497
  159SAPE  C31217816   2.451   5.899   8.116  0.0372  0.5200 -0.6677
  159SAPE  H12X17817   2.446   5.990   8.179  0.3206 -0.5140  0.8971
  159SAPE  H12Y17818   2.519   5.829   8.169 -0.7533 -0.5634 -1.0336
  159SAPE  C31317819   2.318   5.828   8.127  1.0748  0.8614 -0.3356
  159SAPE  H13X17820   2.332   5.720   8.109  0.3027  0.6124  0.4769
  159SAPE  H13Y17821   2.237   5.867   8.061  0.0098  0.9375  0.9715
  159SAPE  C31417822   2.256   5.837   8.269  0.3234 -0.1650  1.1278
  159SAPE  H14X17823   2.155   5.792   8.260  0.5192 -0.2337 -4.0147
  159SAPE  H14Y17824   2.238   5.946   8.286 -0.2198 -0.3002  1.4407
  159SAPE  C31517825   2.347   5.795   8.384 -0.1899  0.2218 -0.2940
  159SAPE  H15X17826   2.438   5.858   8.383 -0.6227  0.8709  0.0699
  159SAPE  H15Y17827   2.371   5.688   8.372  1.0359  0.1756  2.0540
  159SAPE  C31617828   2.273   5.814   8.523 -0.4873  1.0504 -0.0819
  159SAPE  H16X17829   2.341   5.772   8.600 -0.1014  0.3148 -0.8146
  159SAPE  H16Y17830   2.174   5.764   8.534 -0.2760  0.1577 -1.8587
  159SAPE  C31717831   2.254   5.959   8.567  0.0514  0.3687 -0.0343
  159SAPE  H17X17832   2.198   6.021   8.494  0.0862  2.6241  1.7471
  159SAPE  H17Y17833   2.358   5.996   8.579  0.4415 -0.7888  0.3161
  159SAPE  C31817834   2.178   5.976   8.701  0.6278  0.0117 -0.6881
  159SAPE  H18X17835   2.205   6.064   8.764  1.7672  0.7623 -2.1771
  159SAPE  H18Y17836   2.204   5.890   8.766  1.3208  1.1107  0.5355
  159SAPE  H18Z17837   2.071   5.970   8.671  1.1546 -1.0254 -2.5159
  160SAPE     N17838   3.377   1.451   6.344  0.0257  0.1919 -0.0450
  160SAPE   HN117839   3.360   1.545   6.302  0.0370 -0.4978 -1.6487
  160SAPE   HN217840   3.284   1.408   6.360  0.7841 -0.7409  2.1948
  160SAPE   HN317841   3.399   1.474   6.443 -1.4221 -1.6311  0.7634
  160SAPE   C1217842   3.489   1.367   6.286  0.2235  0.1674  0.1542
  160SAPE  H12A17843   3.542   1.430   6.212 -2.2062 -0.0438 -1.9050
  160SAPE  H12B17844   3.443   1.287   6.223  1.2221  0.1872 -0.6247
  160SAPE   C1117845   3.570   1.300   6.399  0.0477 -0.1108 -0.2134
  160SAPE  H11A17846   3.652   1.249   6.345 -0.0448  2.2711 -2.8311
  160SAPE  H11B17847   3.516   1.217   6.450  1.0784 -0.6562  0.0018
  160SAPE     P17848   3.708   1.342   6.626  0.1046 -0.1550  0.2378
  160SAPE   O1317849   3.811   1.244   6.592  0.0996 -0.4932  0.1334
  160SAPE   O1417850   3.755   1.458   6.705  0.1256  0.0021 -0.0755
  160SAPE   O1217851   3.623   1.393   6.498 -0.4275  0.7350  0.0016
  160SAPE   O1117852   3.596   1.272   6.706  0.0700  0.4615 -0.0804
  160SAPE    C117853   3.466   1.329   6.722 -0.0164  0.7443  0.1234
  160SAPE    HA17854   3.468   1.427   6.774  0.3420  0.8199 -0.0295
  160SAPE    HB17855   3.413   1.334   6.624 -0.2264  1.2897  0.2660
  160SAPE    C217856   3.382   1.222   6.800  0.0609 -0.0910  0.1560
  160SAPE    HS17857   3.277   1.256   6.788  0.1866  1.5392  2.8204
  160SAPE   O2117858   3.425   1.226   6.938 -0.7666  0.4097  0.5509
  160SAPE   C2117859   3.336   1.171   7.028  0.1291  0.2784 -0.8488
  160SAPE   O2217860   3.215   1.160   7.005  0.4134 -0.2075 -0.5168
  160SAPE   C2217861   3.414   1.129   7.151  0.2296  0.2606  0.4368
  160SAPE   H2R17862   3.365   1.061   7.224  1.4225 -0.4479  0.5982
  160SAPE   H2S17863   3.503   1.070   7.120  0.8732  1.0530  0.7505
  160SAPE    C317864   3.394   1.082   6.742  0.2576  0.4330 -0.6862
  160SAPE    HX17865   3.501   1.062   6.722  0.2993 -0.7693  0.5599
  160SAPE    HY17866   3.343   1.078   6.644  1.1084 -0.9791 -1.1025
  160SAPE   O3117867   3.346   0.979   6.838 -0.1076 -0.3125 -0.0799
  160SAPE   C3117868   3.230   0.931   6.811 -0.1982 -0.2888  0.2336
  160SAPE   O3217869   3.165   0.946   6.707 -0.0387 -0.1774  0.0915
  160SAPE   C3217870   3.196   0.834   6.928 -0.1538  0.4229  0.7384
  160SAPE   H2X17871   3.208   0.894   7.020  0.7281 -0.1833  1.0281
  160SAPE   H2Y17872   3.272   0.753   6.923 -0.4724  0.1217  0.6608
  160SAPE   C2317873   3.457   1.256   7.224  0.2196  0.1479 -0.5831
  160SAPE   H3R17874   3.370   1.323   7.242 -0.5431 -1.0816  0.5017
  160SAPE   H3S17875   3.519   1.321   7.159 -0.4206  2.1108  0.6550
  160SAPE   C2417876   3.514   1.241   7.363  0.3264 -0.2695 -0.2918
  160SAPE   H4R17877   3.619   1.204   7.357 -0.3484 -2.5260  0.8099
  160SAPE   H4S17878   3.453   1.163   7.413 -1.1923  0.9788 -0.1303
  160SAPE   C2517879   3.505   1.370   7.443 -0.1996  0.2513 -0.0629
  160SAPE   H5R17880   3.595   1.433   7.441  0.3488 -0.4996  0.5125
  160SAPE   C2617881   3.405   1.415   7.526  0.5107  0.3279  0.2458
  160SAPE   H6R17882   3.417   1.507   7.585  1.4871 -0.0425  0.6484
  160SAPE   C2717883   3.265   1.354   7.545 -0.0738 -0.4656 -0.0790
  160SAPE   H7R17884   3.276   1.244   7.537  0.6885 -0.2609 -2.8763
  160SAPE   H7S17885   3.200   1.371   7.457  0.7261 -0.7249 -0.7410
  160SAPE   C2817886   3.180   1.392   7.658 -0.0867 -0.5168  0.4688
  160SAPE   H8R17887   3.104   1.468   7.639 -0.0447 -0.4021  0.7594
  160SAPE   C2917888   3.183   1.340   7.782  0.0470  0.1254 -0.1541
  160SAPE   H9R17889   3.122   1.392   7.858 -0.5593 -0.3397 -0.3151
  160SAPE  C21017890   3.281   1.239   7.838  0.0499  0.0457 -0.5528
  160SAPE  H10R17891   3.363   1.217   7.767  1.5764  1.2984  0.7223
  160SAPE  H10S17892   3.235   1.139   7.847 -0.8561  0.5084  0.0704
  160SAPE  C21117893   3.325   1.297   7.971  0.7445  0.7075  0.5192
  160SAPE  H11R17894   3.398   1.377   7.951 -0.8932  2.2179  0.3022
  160SAPE  C21217895   3.302   1.238   8.092  0.2112  0.1502  0.1769
  160SAPE  H12R17896   3.324   1.295   8.183  0.1622  0.0648  0.2420
  160SAPE  C21317897   3.232   1.108   8.112  0.3812  0.4215  0.0423
  160SAPE  H13R17898   3.137   1.105   8.054  0.3450 -0.3321  0.1356
  160SAPE  H13S17899   3.213   1.100   8.221 -0.2685  0.2159 -0.0806
  160SAPE  C21417900   3.310   0.981   8.075  0.5324 -0.2027 -0.3669
  160SAPE  H14R17901   3.415   0.988   8.107  0.1031 -0.0285  1.0664
  160SAPE  C21517902   3.273   0.877   7.998 -0.3783 -0.0845 -0.1719
  160SAPE  H15R17903   3.343   0.793   7.986 -0.6362 -0.5695  1.4377
  160SAPE  C21617904   3.146   0.872   7.923  0.1028 -0.1292 -0.2833
  160SAPE  H16R17905   3.111   0.969   7.882 -3.2440 -1.1911 -0.2049
  160SAPE  H16S17906   3.065   0.841   7.993  1.2083 -0.7739  0.7562
  160SAPE  C21717907   3.147   0.767   7.812  0.4330 -0.5765  0.6896
  160SAPE  H17R17908   3.038   0.765   7.789  0.8693  0.8042 -1.8738
  160SAPE  H17S17909   3.172   0.665   7.850  1.0188 -1.4311 -1.7841
  160SAPE  C21817910   3.223   0.813   7.692  0.3022  0.2224  0.2972
  160SAPE  H18R17911   3.318   0.864   7.722 -0.9074  2.7473  0.0730
  160SAPE  H18S17912   3.179   0.903   7.644  0.1825  0.9928  1.7843
  160SAPE  C21917913   3.229   0.711   7.576 -0.0626  0.4178 -0.0238
  160SAPE  H19R17914   3.125   0.673   7.570  0.3288 -0.6414 -0.3052
  160SAPE  H19S17915   3.291   0.623   7.605 -0.0342  0.4323 -0.0408
  160SAPE  C22017916   3.289   0.766   7.448  0.5727 -0.3309 -0.0048
  160SAPE  H20R17917   3.275   0.876   7.446 -0.4720 -0.3423  2.5247
  160SAPE  H20S17918   3.234   0.727   7.360 -1.3282  0.6969  0.6539
  160SAPE  H20T17919   3.398   0.749   7.443  0.2989 -2.3504  0.1637
  160SAPE   C3317920   3.051   0.770   6.910  0.0257  0.1381  0.0796
  160SAPE   H3X17921   3.064   0.687   6.838  3.0571 -1.5417  2.3156
  160SAPE   H3Y17922   2.966   0.832   6.874  0.6590  1.1103  0.2066
  160SAPE   C3417923   3.009   0.703   7.043  0.1402  0.3446  0.4386
  160SAPE   H4X17924   2.906   0.721   7.078 -0.5586 -0.8413 -0.8591
  160SAPE   H4Y17925   3.081   0.738   7.120 -0.4296 -1.6443  1.9442
  160SAPE   C3517926   3.027   0.551   7.025 -0.0751 -0.4696 -0.2475
  160SAPE   H5X17927   3.121   0.532   6.969  1.1321  1.8492  0.8068
  160SAPE   H5Y17928   2.944   0.504   6.970 -0.0683 -0.5795 -0.1634
  160SAPE   C3617929   3.038   0.468   7.157 -0.2242  0.0179  0.7184
  160SAPE   H6X17930   3.123   0.515   7.212 -0.9536  0.1525  1.7730
  160SAPE   H6Y17931   3.065   0.368   7.118 -0.3990  0.4726 -0.6063
  160SAPE   C3717932   2.904   0.459   7.230 -0.0146 -0.3117  0.1596
  160SAPE   H7X17933   2.834   0.394   7.173 -1.0942  1.0884 -0.1849
  160SAPE   H7Y17934   2.853   0.557   7.222  0.0983 -0.3545 -1.4826
  160SAPE   C3817935   2.915   0.414   7.373 -0.9290  0.6877 -0.5561
  160SAPE   H8X17936   2.998   0.473   7.417  0.1218 -0.6460 -0.6861
  160SAPE   H8Y17937   2.963   0.314   7.370  0.3716  1.3164 -1.3226
  160SAPE   C3917938   2.787   0.405   7.463  0.3644  0.5360  0.7780
  160SAPE   H9X17939   2.720   0.333   7.413 -0.2057  1.3906  0.3017
  160SAPE   H9Y17940   2.734   0.502   7.451 -1.8853 -0.5422  1.4405
  160SAPE  C31017941   2.818   0.387   7.613  0.2611  0.0783 -0.0328
  160SAPE  H10X17942   2.722   0.375   7.668  0.9701  0.1339  1.2772
  160SAPE  H10Y17943   2.873   0.479   7.643  0.7457 -1.0797  3.0711
  160SAPE  C31117944   2.901   0.260   7.642  0.1685 -0.3486 -0.2961
  160SAPE  H11X17945   2.988   0.264   7.573  0.6192  1.4152  0.3071
  160SAPE  H11Y17946   2.850   0.171   7.600 -0.9491 -0.5997  1.4500
  160SAPE  C31217947   2.957   0.232   7.780  0.0225  0.6150  0.5355
  160SAPE  H12X17948   3.025   0.147   7.761  0.6213  1.5763 -1.9175
  160SAPE  H12Y17949   2.875   0.206   7.850  1.5558  0.0128  2.2096
  160SAPE  C31317950   3.037   0.342   7.853 -0.1146 -0.1406 -0.3165
  160SAPE  H13X17951   2.969   0.429   7.861 -0.6616 -0.6134  0.3462
  160SAPE  H13Y17952   3.123   0.366   7.788 -0.3633 -0.4687 -0.7773
  160SAPE  C31417953   3.080   0.307   8.000 -0.6552  0.6658 -0.2896
  160SAPE  H14X17954   3.155   0.225   8.004 -0.4887  0.8516  0.5399
  160SAPE  H14Y17955   2.984   0.272   8.046 -0.8112  1.4013 -0.0450
  160SAPE  C31517956   3.134   0.433   8.075 -0.1975  0.2545  0.5999
  160SAPE  H15X17957   3.062   0.515   8.060  0.4616  1.0859  1.8410
  160SAPE  H15Y17958   3.232   0.451   8.025 -0.0818 -0.4611  0.5516
  160SAPE  C31617959   3.150   0.408   8.229 -0.4439 -0.3063  0.6329
  160SAPE  H16X17960   3.242   0.349   8.247 -0.1724 -0.4304 -0.9867
  160SAPE  H16Y17961   3.066   0.349   8.272 -0.8382  0.0168  0.3259
  160SAPE  C31717962   3.158   0.539   8.300  0.7235  0.0876 -0.2055
  160SAPE  H17X17963   3.064   0.595   8.279 -0.0825 -1.0555  0.2870
  160SAPE  H17Y17964   3.251   0.581   8.255  0.5790 -0.3671 -0.9420
  160SAPE  C31817965   3.161   0.528   8.455 -0.6732 -0.0735 -0.3797
  160SAPE  H18X17966   3.196   0.624   8.499 -1.8213 -0.5465  1.6974
  160SAPE  H18Y17967   3.235   0.449   8.481 -2.4915 -1.7076  0.0467
  160SAPE  H18Z17968   3.067   0.493   8.503 -0.9943  1.3620  0.0619
  161SOPE     N17969   1.040   5.495  10.892 -0.2307  0.6182  0.2270
  161SOPE   HN117970   1.141   5.516  10.884 -0.1798  0.4124  0.3393
  161SOPE   HN217971   0.984   5.574  10.931 -0.5062  0.5898 -0.1043
  161SOPE   HN317972   1.026   5.413  10.954 -0.7991  1.2367  0.9456
  161SOPE   C1217973   0.996   5.453  10.755 -0.3581  0.0375 -0.5199
  161SOPE  H12A17974   1.051   5.362  10.723  0.7145  0.0286  1.2122
  161SOPE  H12B17975   1.024   5.543  10.696  2.0894  0.4513  1.1029
  161SOPE   C1117976   0.841   5.414  10.753 -0.6120 -0.3441  0.2443
  161SOPE  H11A17977   0.810   5.367  10.656 -2.0073  1.3929 -0.2091
  161SOPE  H11B17978   0.790   5.513  10.756  0.5671  0.3680 -1.4438
  161SOPE     P17979   0.732   5.367  10.993 -0.2333 -0.1471 -0.2950
  161SOPE   O1317980   0.814   5.425  11.097  0.4689 -0.0330  0.1286
  161SOPE   O1417981   0.658   5.246  11.039  0.1122  0.2665  0.6828
  161SOPE   O1217982   0.810   5.331  10.860 -0.4073  0.4357  0.4590
  161SOPE   O1117983   0.626   5.482  10.943 -0.0800 -0.1787 -0.4835
  161SOPE    C117984   0.483   5.440  10.936  0.0353  0.8641  1.0986
  161SOPE    HA17985   0.428   5.536  10.924  0.3033  0.9666  0.6839
  161SOPE    HB17986   0.446   5.383  11.024 -0.6708  1.7633  1.4013
  161SOPE    C217987   0.437   5.360  10.813 -0.2955  0.3219 -0.6148
  161SOPE    HS17988   0.461   5.254  10.834 -0.8032  0.5467  1.3757
  161SOPE   O2117989   0.511   5.390  10.688 -0.0714 -0.5408 -0.2454
  161SOPE   C2117990   0.497   5.291  10.594  0.5290 -0.2199 -0.6152
  161SOPE   O2217991   0.441   5.185  10.610  0.4299  0.4091  0.6568
  161SOPE   C2217992   0.563   5.325  10.458  0.5508 -0.5886 -0.5878
  161SOPE   H2R17993   0.590   5.222  10.428  1.8350 -0.7588  0.9956
  161SOPE   H2S17994   0.659   5.379  10.473  0.9036 -0.6789 -2.3402
  161SOPE    C317995   0.286   5.365  10.788  0.1103  0.4942 -0.3030
  161SOPE    HX17996   0.247   5.411  10.882  2.8573  2.6988 -0.1079
  161SOPE    HY17997   0.243   5.263  10.779 -0.2574  0.3251  2.5742
  161SOPE   O3117998   0.236   5.440  10.676 -0.0013  0.2303 -0.0266
  161SOPE   C3117999   0.201   5.568  10.708  0.3584  0.0381 -0.3911
  161SOPE   O3218000   0.223   5.616  10.820  0.1057 -0.6919 -0.3305
  161SOPE   C3218001   0.123   5.639  10.598  0.6219  0.2244  0.9167
  161SOPE   H2X18002   0.061   5.719  10.645  1.2279  0.2360  1.7328
  161SOPE   H2Y18003   0.059   5.565  10.545 -1.2857  0.9009  2.1687
  161SOPE   C2318004   0.460   5.390  10.371  0.6197  0.9340  0.1311
  161SOPE   H3R18005   0.435   5.488  10.416  0.6639  0.8924  0.2471
  161SOPE   H3S18006   0.363   5.336  10.365 -0.7000  2.5321  4.1427
  161SOPE   C2418007   0.512   5.420  10.228  0.4551 -0.0425  0.8162
  161SOPE   H4R18008   0.432   5.473  10.172  0.0926  0.6218  1.9244
  161SOPE   H4S18009   0.601   5.486  10.235  0.3483  0.2164 -0.1326
  161SOPE   C2518010   0.543   5.301  10.134 -0.0566  0.4825  0.6042
  161SOPE   H5R18011   0.649   5.270  10.137 -0.6402 -1.7970 -0.1617
  161SOPE   H5S18012   0.486   5.214  10.175  0.0618  0.8761  1.6456
  161SOPE   C2618013   0.483   5.311   9.985 -0.1245 -0.6083  0.2181
  161SOPE   H6R18014   0.487   5.213   9.933 -0.1404  0.7005 -2.3881
  161SOPE   H6S18015   0.377   5.340   9.997 -0.0396  0.3904 -1.2492
  161SOPE   C2718016   0.540   5.435   9.911  0.0151 -0.4939  0.3316
  161SOPE   H7R18017   0.514   5.524   9.972 -1.5135 -2.3840  2.5700
  161SOPE   H7S18018   0.649   5.414   9.921 -0.2746 -1.7409  1.0570
  161SOPE   C2818019   0.499   5.449   9.759 -0.1816 -0.1144 -0.4631
  161SOPE   H8R18020   0.585   5.485   9.700 -0.1158 -0.9347 -0.8849
  161SOPE   H8S18021   0.477   5.344   9.729 -1.9073  0.8676 -2.9495
  161SOPE   C2918022   0.376   5.538   9.748  0.1633  0.9195 -0.3769
  161SOPE   H9118023   0.311   5.548   9.835  0.8944  0.3374  0.2502
  161SOPE  C21018024   0.358   5.619   9.645 -1.3064 -0.3772  0.2013
  161SOPE  H10118025   0.278   5.694   9.658 -0.4082  0.8427 -0.9285
  161SOPE  C21118026   0.443   5.653   9.523  0.5780  0.6060  0.2076
  161SOPE  H11R18027   0.541   5.601   9.528 -0.2462 -1.1797 -1.1332
  161SOPE  H11S18028   0.463   5.762   9.519  1.6423  0.3751 -1.3634
  161SOPE  C21218029   0.379   5.614   9.390 -0.0402  0.1557 -0.7473
  161SOPE  H12R18030   0.272   5.640   9.377 -0.3153 -1.4397 -2.0582
  161SOPE  H12S18031   0.388   5.503   9.395  1.2942  0.2918  0.4489
  161SOPE  C21318032   0.454   5.669   9.264 -0.2183  0.2995  0.2425
  161SOPE  H13R18033   0.556   5.627   9.278  0.6402  1.7703 -1.2221
  161SOPE  H13S18034   0.466   5.779   9.270  0.5413  0.3152 -1.0328
  161SOPE  C21418035   0.385   5.620   9.133  0.0563 -0.7154 -0.6400
  161SOPE  H14R18036   0.281   5.659   9.127  0.0748 -0.1821  1.6628
  161SOPE  H14S18037   0.375   5.510   9.146 -1.6085 -0.2891  2.6112
  161SOPE  C21518038   0.454   5.662   9.002  0.1095  0.1420 -0.1617
  161SOPE  H15R18039   0.406   5.615   8.913 -0.9843  3.0841 -1.2333
  161SOPE  H15S18040   0.559   5.627   8.989  0.3203  1.1187 -1.2584
  161SOPE  C21618041   0.458   5.813   8.986  0.8631 -0.4801  0.0765
  161SOPE  H16R18042   0.557   5.850   9.022  1.7962 -1.9163 -0.9069
  161SOPE  H16S18043   0.371   5.862   9.034  0.1780  0.3004 -1.8669
  161SOPE  C21718044   0.450   5.836   8.832 -0.6464 -0.0517 -0.1089
  161SOPE  H17R18045   0.362   5.793   8.779  0.2212  0.6729 -2.2488
  161SOPE  H17S18046   0.536   5.778   8.792 -0.0739  0.8536 -0.2113
  161SOPE  C21818047   0.447   5.983   8.792  0.2778 -0.7496  0.2259
  161SOPE  H18R18048   0.425   5.991   8.683 -1.1841 -1.0372  0.4776
  161SOPE  H18S18049   0.542   6.033   8.818 -0.5874  1.3304 -0.3703
  161SOPE  H18T18050   0.372   6.041   8.850 -1.3845 -2.3119 -0.2566
  161SOPE   C3318051   0.217   5.721  10.507 -0.1710  0.3033 -0.0134
  161SOPE   H3X18052   0.280   5.648  10.452 -0.6728  1.2416 -1.8923
  161SOPE   H3Y18053   0.293   5.778  10.564  0.8999 -1.2443  0.1684
  161SOPE   C3418054   0.148   5.805  10.406  1.3252 -0.3725 -0.4543
  161SOPE   H4X18055   0.119   5.904  10.449  0.5328  0.0504 -1.8731
  161SOPE   H4Y18056   0.049   5.758  10.391  1.4437 -1.0999  0.9266
  161SOPE   C3518057   0.215   5.827  10.272 -0.1753 -0.2939 -0.0880
  161SOPE   H5X18058   0.248   5.732  10.224  1.0364  0.4404 -0.7771
  161SOPE   H5Y18059   0.307   5.886  10.293  0.9605 -2.0704  0.2328
  161SOPE   C3618060   0.121   5.898  10.168  0.0354  0.1668  0.8474
  161SOPE   H6X18061   0.089   6.002  10.191 -2.1366  0.0306 -1.2509
  161SOPE   H6Y18062   0.021   5.853  10.151 -1.4175  3.5352 -0.4534
  161SOPE   C3718063   0.186   5.915  10.029 -0.2265  0.2009 -0.4601
  161SOPE   H7X18064   0.248   5.828  10.000  0.5667  0.7749 -0.4963
  161SOPE   H7Y18065   0.259   5.998  10.037  0.5862 -0.6764  2.0229
  161SOPE   C3818066   0.079   5.945   9.921  0.5805 -0.2015 -0.1487
  161SOPE   H8X18067   0.055   6.049   9.953  0.6908 -0.6102  1.3493
  161SOPE   H8Y18068  -0.015   5.886   9.930 -1.1597  2.5902  1.2835
  161SOPE   C3918069   0.131   5.928   9.779  0.0066 -0.1577 -0.0501
  161SOPE   H9X18070   0.143   5.819   9.758  3.0333  0.2466 -0.8989
  161SOPE   H9Y18071   0.231   5.975   9.767 -0.3101  0.0265 -2.5129
  161SOPE  C31018072   0.038   6.006   9.681 -0.3769  0.3372  0.2897
  161SOPE  H10X18073   0.020   6.111   9.713 -1.1996 -0.0380  1.0787
  161SOPE  H10Y18074  -0.060   5.956   9.675 -0.4828  0.2834  2.0516
  161SOPE  C31118075   0.102   5.991   9.541  0.0373  0.0239  0.7088
  161SOPE  H11X18076   0.158   5.895   9.542  0.0633  0.0147  2.7312
  161SOPE  H11Y18077   0.188   6.062   9.538 -0.1989  0.2801 -0.4173
  161SOPE  C31218078   0.008   6.012   9.421 -0.5161 -0.8871 -0.0960
  161SOPE  H12X18079  -0.059   6.100   9.422 -0.7037 -0.8551 -3.4603
  161SOPE  H12Y18080  -0.055   5.920   9.416  0.2249 -1.3397 -1.8290
  161SOPE  C31318081   0.089   6.030   9.287 -0.1952  0.2567 -0.9482
  161SOPE  H13X18082   0.176   5.961   9.288  0.3420  0.9135 -0.5154
  161SOPE  H13Y18083   0.123   6.136   9.288  2.9399 -0.6380 -0.9992
  161SOPE  C31418084   0.004   5.998   9.160 -0.1162 -0.0726 -0.3465
  161SOPE  H14X18085  -0.089   6.057   9.173  1.2516  2.2051 -0.2540
  161SOPE  H14Y18086  -0.028   5.892   9.158 -0.3840  0.0134 -0.6987
  161SOPE  C31518087   0.074   6.037   9.033 -0.2058 -0.1437  0.0335
  161SOPE  H15X18088   0.178   6.000   9.033  0.3576  1.3980 -0.5362
  161SOPE  H15Y18089   0.086   6.146   9.050 -0.4960 -0.3599  1.8293
  161SOPE  C31618090   0.012   5.998   8.906 -0.3341  0.2240  1.2220
  161SOPE  H16X18091   0.066   6.052   8.825 -1.3119  0.1275  0.4934
  161SOPE  H16Y18092  -0.097   6.018   8.899 -0.6093 -1.0960  1.4860
  161SOPE  C31718093   0.042   5.852   8.885 -0.0893  0.4337  0.9359
  161SOPE  H17X18094   0.007   5.783   8.965  1.9761 -1.7046  0.1218
  161SOPE  H17Y18095   0.153   5.856   8.893  0.0833 -2.6158  1.2795
  161SOPE  C31818096   0.007   5.811   8.744  0.0570  1.0139  0.3245
  161SOPE  H18X18097   0.055   5.887   8.678 -2.4687  2.7698  0.3804
  161SOPE  H18Y18098  -0.103   5.817   8.730 -0.2354 -1.5355  0.9872
  161SOPE  H18Z18099   0.035   5.707   8.717 -2.0363 -0.1329  2.2456
  162SOPE     N18100   6.189   4.778  10.953  0.1599  0.0476  0.1546
  162SOPE   HN118101   6.182   4.865  10.897 -0.3040 -1.6252 -2.5666
  162SOPE   HN218102   6.196   4.690  10.898  1.1233  0.0480  0.2663
  162SOPE   HN318103   6.103   4.767  11.011  0.9098  2.1255  1.7575
  162SOPE   C1218104   6.297   4.822  11.046  0.1409 -0.2019 -0.0266
  162SOPE  H12A18105   6.328   4.735  11.107 -2.3244 -1.1569 -0.0564
  162SOPE  H12B18106   6.254   4.900  11.112 -1.3590 -0.9195 -0.1050
  162SOPE   C1118107   6.425   4.871  10.975  1.0967 -0.3443 -0.0951
  162SOPE  H11A18108   6.439   4.803  10.888 -1.0626  1.1528 -1.7133
  162SOPE  H11B18109   6.517   4.885  11.037  1.5653  1.7837 -1.1702
  162SOPE     P18110   6.511   5.099  10.886 -0.3894  0.0124  0.1810
  162SOPE   O1318111   6.578   5.116  11.020  0.2292 -0.0977 -0.0854
  162SOPE   O1418112   6.447   5.212  10.817 -0.7623 -0.0247 -0.2692
  162SOPE   O1218113   6.401   4.990  10.908 -0.1930 -0.3496 -0.1726
  162SOPE   O1118114   6.616   5.025  10.785 -0.2286  0.3171  0.1755
  162SOPE    C118115   6.555   4.957  10.668 -0.2400 -0.0118 -0.4268
  162SOPE    HA18116   6.444   4.947  10.674 -0.1394 -1.2093 -0.2785
  162SOPE    HB18117   6.608   4.859  10.664  1.1877  0.6358  1.2765
  162SOPE    C218118   6.578   5.041  10.535  0.2626  0.1730 -1.2036
  162SOPE    HS18119   6.531   5.140  10.555 -2.5648 -1.0427 -1.2618
  162SOPE   O2118120   6.507   4.975  10.430  0.2624  0.8388  0.0787
  162SOPE   C2118121   6.394   5.032  10.388  0.4268  0.4332  0.3774
  162SOPE   O2218122   6.324   5.107  10.448  0.1640 -0.5065 -0.5907
  162SOPE   C2218123   6.379   4.984  10.241 -0.3360  0.1004 -0.5207
  162SOPE   H2R18124   6.297   4.910  10.233 -0.3118  0.1319 -1.1265
  162SOPE   H2S18125   6.461   4.917  10.209  0.1458 -0.6364  2.0264
  162SOPE    C318126   6.722   5.065  10.492 -0.5107 -0.1215 -0.8143
  162SOPE    HX18127   6.764   4.964  10.478  1.2250  0.0024  2.4634
  162SOPE    HY18128   6.790   5.107  10.569  0.8086  0.1104 -2.0729
  162SOPE   O3118129   6.742   5.143  10.368  0.1973 -0.1058 -0.1954
  162SOPE   C3118130   6.745   5.281  10.388  0.0345  0.2072 -0.2651
  162SOPE   O3218131   6.736   5.336  10.497 -0.2059 -0.1007  0.4078
  162SOPE   C3218132   6.776   5.356  10.257 -0.2166  0.6856 -0.1092
  162SOPE   H2X18133   6.771   5.278  10.177 -2.1860  2.3005 -1.6810
  162SOPE   H2Y18134   6.879   5.393  10.272 -0.9343  3.0184 -0.5515
  162SOPE   C2318135   6.366   5.102  10.135  0.3150  0.1236 -0.1204
  162SOPE   H3R18136   6.423   5.191  10.169  0.2327 -0.0304  0.4295
  162SOPE   H3S18137   6.260   5.136  10.133  0.4017  0.3916 -0.2791
  162SOPE   C2418138   6.401   5.059   9.990 -0.1497  0.1539 -0.4431
  162SOPE   H4R18139   6.511   5.043   9.988 -0.4249 -2.2223  0.2629
  162SOPE   H4S18140   6.351   4.964   9.961  1.8618 -0.9002 -0.7062
  162SOPE   C2518141   6.360   5.155   9.880  0.0046 -0.1721 -0.2009
  162SOPE   H5R18142   6.253   5.180   9.894  0.4050  0.8686  1.2053
  162SOPE   H5S18143   6.415   5.251   9.877  3.0525 -1.7822 -0.2090
  162SOPE   C2618144   6.364   5.085   9.741  0.1334  0.5681  0.0597
  162SOPE   H6R18145   6.470   5.061   9.715 -0.5889 -1.6712 -1.0748
  162SOPE   H6S18146   6.300   4.994   9.738 -0.5233  1.0468 -1.8380
  162SOPE   C2718147   6.298   5.175   9.633  0.1417 -0.5797  0.2621
  162SOPE   H7R18148   6.190   5.167   9.657  0.5465 -0.5944  2.2851
  162SOPE   H7S18149   6.341   5.277   9.636 -1.7476  0.2330  1.5160
  162SOPE   C2818150   6.314   5.119   9.494 -0.1610 -0.2174 -0.7640
  162SOPE   H8R18151   6.251   5.028   9.499 -3.4621  1.9364  0.5376
  162SOPE   H8S18152   6.253   5.182   9.425 -1.4260 -0.6192 -0.0532
  162SOPE   C2918153   6.455   5.106   9.438  0.3008  0.1316 -0.3695
  162SOPE   H9118154   6.529   5.065   9.508 -0.9048 -2.3736 -0.4585
  162SOPE  C21018155   6.497   5.154   9.321  0.7496 -0.0438 -0.4883
  162SOPE  H10118156   6.600   5.137   9.284 -0.1950 -0.4209 -3.1518
  162SOPE  C21118157   6.407   5.225   9.217  0.3903 -0.7444 -0.3658
  162SOPE  H11R18158   6.382   5.330   9.245  0.2782 -0.6271 -0.8955
  162SOPE  H11S18159   6.312   5.166   9.210  1.5649 -2.7604 -0.0615
  162SOPE  C21218160   6.471   5.233   9.077 -0.2421  0.0547  0.1006
  162SOPE  H12R18161   6.578   5.263   9.082 -0.0891 -0.4404 -0.1311
  162SOPE  H12S18162   6.413   5.309   9.020  0.8632  1.0373  0.2401
  162SOPE  C21318163   6.471   5.103   8.995  0.2496 -0.0756  0.2475
  162SOPE  H13R18164   6.372   5.067   8.958  0.1866  0.7225 -0.3698
  162SOPE  H13S18165   6.509   5.029   9.069  2.5226  2.2604  1.5644
  162SOPE  C21418166   6.559   5.117   8.878  0.2974 -0.4216  0.3297
  162SOPE  H14R18167   6.650   5.169   8.914  0.5412  0.1497 -1.0359
  162SOPE  H14S18168   6.513   5.186   8.803  2.4069  1.2048  0.4201
  162SOPE  C21518169   6.606   4.986   8.809  0.9804  0.0546  0.6523
  162SOPE  H15R18170   6.637   4.910   8.883 -1.4880 -0.4796  1.2466
  162SOPE  H15S18171   6.699   5.008   8.753  0.0463  2.4680 -0.0891
  162SOPE  C21618172   6.501   4.931   8.713  0.5471  0.3326 -0.0913
  162SOPE  H16R18173   6.490   5.013   8.639  0.7544  0.4459  0.0036
  162SOPE  H16S18174   6.401   4.936   8.761  1.5238  1.4380  1.9735
  162SOPE  C21718175   6.522   4.790   8.673  0.4425 -0.0004 -0.4943
  162SOPE  H17R18176   6.511   4.741   8.772 -2.2351  3.4447  1.1435
  162SOPE  H17S18177   6.629   4.778   8.644  1.7257  0.4318  3.4706
  162SOPE  C21818178   6.421   4.732   8.576 -0.1518  0.3156 -0.0780
  162SOPE  H18R18179   6.452   4.626   8.565 -0.4041  0.2989 -0.6391
  162SOPE  H18S18180   6.409   4.782   8.478 -1.3893 -0.9076 -0.5852
  162SOPE  H18T18181   6.317   4.729   8.616  0.1762 -0.7203  0.7342
  162SOPE   C3318182   6.681   5.480  10.234  0.5452 -0.6217 -0.7172
  162SOPE   H3X18183   6.689   5.548  10.322 -0.4771 -1.7547  0.2797
  162SOPE   H3Y18184   6.575   5.448  10.223 -0.7959  3.1981 -0.6380
  162SOPE   C3418185   6.713   5.555  10.100 -0.1496  0.6696 -0.3816
  162SOPE   H4X18186   6.820   5.583  10.096 -0.3419  1.8687  1.6337
  162SOPE   H4Y18187   6.650   5.646  10.101 -0.8939  0.1911  1.7347
  162SOPE   C3518188   6.680   5.466   9.989  0.0771 -0.0181 -0.3600
  162SOPE   H5X18189   6.578   5.429  10.013  0.6263 -1.7341 -0.5322
  162SOPE   H5Y18190   6.739   5.372   9.986  1.6037  0.8836  0.4474
  162SOPE   C3618191   6.673   5.537   9.852 -0.1171 -0.8677  0.7140
  162SOPE   H6X18192   6.768   5.586   9.823  1.4717 -3.9719  0.3524
  162SOPE   H6Y18193   6.603   5.624   9.851  0.4537 -0.4014 -0.7327
  162SOPE   C3718194   6.647   5.443   9.726  0.1568 -0.0288  0.0571
  162SOPE   H7X18195   6.539   5.419   9.717  0.2236 -1.0599  1.4965
  162SOPE   H7Y18196   6.703   5.347   9.740  0.8817  0.4975  0.8638
  162SOPE   C3818197   6.696   5.517   9.596  1.2378  0.6754 -0.3234
  162SOPE   H8X18198   6.807   5.525   9.603  1.2595  4.3928 -2.2197
  162SOPE   H8Y18199   6.671   5.625   9.589  2.0323  1.0076  1.5134
  162SOPE   C3918200   6.661   5.435   9.470 -0.7295 -0.8260 -0.3056
  162SOPE   H9X18201   6.552   5.427   9.451 -0.8324 -2.3673  0.7367
  162SOPE   H9Y18202   6.686   5.329   9.493 -2.1407 -0.7724  1.8013
  162SOPE  C31018203   6.723   5.490   9.342 -0.1641 -0.4978 -0.2179
  162SOPE  H10X18204   6.714   5.401   9.277 -1.1241 -1.6073  1.3552
  162SOPE  H10Y18205   6.829   5.506   9.374 -0.3509 -0.2716  0.3040
  162SOPE  C31118206   6.665   5.616   9.280 -0.4662  0.0138 -0.0301
  162SOPE  H11X18207   6.734   5.660   9.204 -1.8436  1.9705 -0.2076
  162SOPE  H11Y18208   6.650   5.694   9.358  3.2171 -0.7636  1.6810
  162SOPE  C31218209   6.536   5.594   9.194  0.3512  0.4121  0.4646
  162SOPE  H12X18210   6.458   5.578   9.272  0.2592  1.9489  0.7282
  162SOPE  H12Y18211   6.563   5.512   9.125  0.2755  0.9947 -0.2794
  162SOPE  C31318212   6.491   5.718   9.112  0.2777  0.0760  0.0873
  162SOPE  H13X18213   6.407   5.691   9.044  1.0159  0.3329 -0.9574
  162SOPE  H13Y18214   6.575   5.762   9.054  0.4112  2.5325  1.9748
  162SOPE  C31418215   6.425   5.828   9.201  0.0011  1.0127 -0.2579
  162SOPE  H14X18216   6.507   5.885   9.250  2.1194  0.2163 -2.6172
  162SOPE  H14Y18217   6.362   5.785   9.281 -0.2082 -0.8967 -1.3734
  162SOPE  C31518218   6.349   5.931   9.116  0.4776  0.5660 -0.1020
  162SOPE  H15X18219   6.257   5.887   9.073 -0.1839  0.2442  1.5392
  162SOPE  H15Y18220   6.414   5.965   9.033 -1.2302  0.9580 -1.3284
  162SOPE  C31618221   6.317   6.054   9.206  1.0778 -0.3588 -0.3577
  162SOPE  H16X18222   6.263   6.126   9.140 -0.6430  1.6437  2.9604
  162SOPE  H16Y18223   6.415   6.099   9.231  1.1306 -0.6165 -0.0971
  162SOPE  C31718224   6.243   6.032   9.335  0.4303  0.2032 -1.0118
  162SOPE  H17X18225   6.293   5.950   9.392  1.4708  1.0800 -0.6313
  162SOPE  H17Y18226   6.139   6.002   9.310  0.1390  2.2499 -2.4283
  162SOPE  C31818227   6.233   6.148   9.431  0.1751 -0.4480 -0.3156
  162SOPE  H18X18228   6.169   6.123   9.518 -1.1844  0.5136 -0.9978
  162SOPE  H18Y18229   6.175   6.233   9.388 -0.2721  1.3009  3.3598
  162SOPE  H18Z18230   6.335   6.177   9.463  0.1163 -1.6350  1.0332
  163SOPE     N18231   4.671   1.252  10.873 -0.3704  0.7369 -0.0364
  163SOPE   HN118232   4.705   1.190  10.950 -3.3251 -0.0960  0.7018
  163SOPE   HN218233   4.589   1.204  10.832  0.0440  1.2348 -1.5057
  163SOPE   HN318234   4.743   1.247  10.798 -1.4465 -2.8947 -0.9749
  163SOPE   C1218235   4.658   1.382  10.948  0.0651 -1.0034  0.7071
  163SOPE  H12A18236   4.577   1.380  11.024  0.9588 -0.0648  1.7327
  163SOPE  H12B18237   4.637   1.469  10.882  0.0377  0.4346  2.5214
  163SOPE   C1118238   4.784   1.408  11.036 -0.2032 -1.2917 -0.1978
  163SOPE  H11A18239   4.877   1.405  10.976  0.3280  1.1462  0.4178
  163SOPE  H11B18240   4.803   1.333  11.116  1.6613  0.4269  1.0829
  163SOPE     P18241   4.772   1.574  11.242  0.0465 -0.3118  0.0513
  163SOPE   O1318242   4.883   1.501  11.304  0.1151  0.7122 -0.3064
  163SOPE   O1418243   4.629   1.560  11.287 -0.1099 -0.0681  0.0298
  163SOPE   O1218244   4.774   1.543  11.089 -0.3295  0.0661  0.5792
  163SOPE   O1118245   4.815   1.721  11.251  0.0029  0.7113 -0.0283
  163SOPE    C118246   4.732   1.832  11.215 -0.2305  0.4124 -0.0114
  163SOPE    HA18247   4.783   1.927  11.240  1.4460 -0.5631  0.4011
  163SOPE    HB18248   4.629   1.836  11.258 -1.7130  2.8030 -3.3143
  163SOPE    C218249   4.715   1.853  11.062  0.3367  0.3430 -0.0014
  163SOPE    HS18250   4.635   1.783  11.030  0.5819  0.4001 -0.7582
  163SOPE   O2118251   4.837   1.831  10.994  0.2555  1.1054 -0.1795
  163SOPE   C2118252   4.828   1.757  10.883  0.0323 -0.6779  0.3590
  163SOPE   O2218253   4.730   1.700  10.839 -0.0445  0.2478  0.3349
  163SOPE   C2218254   4.974   1.768  10.824  0.1138 -0.3796  0.3414
  163SOPE   H2R18255   5.043   1.715  10.892  1.1680 -0.4112 -0.7169
  163SOPE   H2S18256   5.004   1.875  10.821 -1.2400  0.0099 -1.1782
  163SOPE    C318257   4.661   1.994  11.008  0.0811 -0.0843 -0.4998
  163SOPE    HX18258   4.730   2.077  11.035 -1.5260  1.7753 -1.8345
  163SOPE    HY18259   4.564   2.023  11.054 -0.2692 -0.5107 -0.9612
  163SOPE   O3118260   4.653   1.995  10.866  0.3612  0.5200 -0.6641
  163SOPE   C3118261   4.537   1.964  10.807 -0.2910  0.1932  0.1313
  163SOPE   O3218262   4.433   1.929  10.856 -0.5682 -0.4543  0.5000
  163SOPE   C3218263   4.564   1.976  10.656  0.6296 -0.7964 -0.3343
  163SOPE   H2X18264   4.640   1.902  10.628 -1.2098 -2.4807 -1.1100
  163SOPE   H2Y18265   4.609   2.078  10.649  1.6823 -1.2807 -0.7128
  163SOPE   C2318266   5.000   1.695  10.686  0.7341  0.4154 -0.0015
  163SOPE   H3R18267   4.981   1.586  10.697 -3.2756  1.0649  0.9267
  163SOPE   H3S18268   5.107   1.701  10.658  0.5520 -1.1207 -1.0908
  163SOPE   C2418269   4.913   1.748  10.570  0.3098  0.7833 -0.0652
  163SOPE   H4R18270   4.810   1.710  10.586  0.5642  0.6337  1.4359
  163SOPE   H4S18271   4.908   1.859  10.579 -0.7267  0.8860 -1.6219
  163SOPE   C2518272   4.971   1.713  10.434 -0.1189  0.5313 -0.3340
  163SOPE   H5R18273   5.065   1.770  10.426  0.1666  0.1275  0.0801
  163SOPE   H5S18274   5.004   1.607  10.432 -0.3657  0.4358  0.2907
  163SOPE   C2618275   4.882   1.743  10.322  0.9395 -0.3747 -0.2443
  163SOPE   H6R18276   4.797   1.674  10.340 -0.7140  1.4093 -0.8558
  163SOPE   H6S18277   4.839   1.845  10.332  0.4592 -0.3257 -2.3118
  163SOPE   C2718278   4.943   1.713  10.183  0.5985 -0.1895  0.0692
  163SOPE   H7R18279   5.028   1.785  10.175  0.7248 -0.3772 -0.2747
  163SOPE   H7S18280   4.988   1.612  10.189  0.5711 -0.1855  0.3413
  163SOPE   C2818281   4.854   1.738  10.061 -0.1474 -1.1642  0.0460
  163SOPE   H8R18282   4.812   1.840  10.056  1.8811 -0.3445 -1.6117
  163SOPE   H8S18283   4.919   1.730   9.971 -1.2481 -1.7136 -0.7224
  163SOPE   C2918284   4.743   1.635  10.056  0.2059 -0.2931 -0.2010
  163SOPE   H9118285   4.677   1.638  10.144  3.3003  2.0434  2.2690
  163SOPE  C21018286   4.710   1.574   9.944  0.1305  0.7013 -0.1299
  163SOPE  H10118287   4.628   1.502   9.944 -0.1069  0.9690 -0.6169
  163SOPE  C21118288   4.786   1.569   9.813  0.2844 -0.3929  0.2541
  163SOPE  H11R18289   4.858   1.485   9.820  1.0024  0.0914 -1.1479
  163SOPE  H11S18290   4.851   1.658   9.799 -2.0831  1.5389  0.8381
  163SOPE  C21218291   4.690   1.549   9.694 -0.4110  0.4752 -0.1031
  163SOPE  H12R18292   4.617   1.633   9.694  0.4455  1.3370  2.4862
  163SOPE  H12S18293   4.647   1.447   9.704  0.0681  0.2947  0.1450
  163SOPE  C21318294   4.757   1.545   9.556 -0.6467 -0.0178 -0.1156
  163SOPE  H13R18295   4.839   1.470   9.557 -0.2319  0.3787 -1.4810
  163SOPE  H13S18296   4.800   1.646   9.539  0.7180 -0.2458  1.6722
  163SOPE  C21418297   4.680   1.511   9.432  0.0581  0.2139 -0.5783
  163SOPE  H14R18298   4.617   1.601   9.418  2.3017  2.1033  0.7791
  163SOPE  H14S18299   4.614   1.425   9.457  0.8593  0.4622  2.8569
  163SOPE  C21518300   4.771   1.487   9.309 -0.1147  0.5087 -0.1168
  163SOPE  H15R18301   4.847   1.410   9.334 -1.7970 -0.8688  0.9557
  163SOPE  H15S18302   4.833   1.579   9.301  0.5751  0.0929  0.2887
  163SOPE  C21618303   4.695   1.457   9.181 -0.7572  0.9246 -0.5269
  163SOPE  H16R18304   4.624   1.542   9.173 -1.6721  0.4803  1.9271
  163SOPE  H16S18305   4.638   1.362   9.175 -0.4692  0.6843  0.3258
  163SOPE  C21718306   4.781   1.472   9.058 -0.3406 -0.1634 -0.1200
  163SOPE  H17R18307   4.848   1.384   9.065 -1.2750 -0.8050  0.8681
  163SOPE  H17S18308   4.836   1.567   9.074 -1.4225  0.7355 -1.4461
  163SOPE  C21818309   4.713   1.465   8.923  0.2654  0.3898 -0.4263
  163SOPE  H18R18310   4.633   1.541   8.914 -0.7459 -0.8098 -2.1606
  163SOPE  H18S18311   4.669   1.364   8.908  2.6603 -0.4940 -2.1057
  163SOPE  H18T18312   4.786   1.485   8.842  0.9292 -1.5264 -0.3563
  163SOPE   C3318313   4.432   1.978  10.574  0.2201 -0.3285  0.5479
  163SOPE   H3X18314   4.348   2.026  10.629  0.7188 -0.0521  1.0669
  163SOPE   H3Y18315   4.406   1.872  10.554 -1.5793  0.1510  0.1791
  163SOPE   C3418316   4.464   2.061  10.446  0.0314 -0.0282 -0.1637
  163SOPE   H4X18317   4.536   2.143  10.469 -0.1689 -0.4172  2.0518
  163SOPE   H4Y18318   4.374   2.115  10.410 -0.1410  1.1531  1.8971
  163SOPE   C3518319   4.511   1.971  10.331 -0.4010 -0.0603  0.3300
  163SOPE   H5X18320   4.460   1.872  10.333  0.2976 -0.4197  2.2534
  163SOPE   H5Y18321   4.620   1.950  10.330 -0.2628  0.5211 -1.7510
  163SOPE   C3618322   4.490   2.037  10.184  0.2174 -0.4497 -0.0326
  163SOPE   H6X18323   4.558   2.125  10.184  0.3121 -0.5204 -0.8684
  163SOPE   H6Y18324   4.385   2.072  10.175  0.9989  2.8565  1.9620
  163SOPE   C3718325   4.519   1.928  10.075  0.1397 -0.5018  0.2637
  163SOPE   H7X18326   4.442   1.848  10.077 -0.5580  0.1860  1.9530
  163SOPE   H7Y18327   4.619   1.886  10.097  0.4113  0.0754  0.1389
  163SOPE   C3818328   4.512   1.988   9.934  0.4333 -0.4268  0.0628
  163SOPE   H8X18329   4.583   2.073   9.926  1.0189 -0.9733 -0.7490
  163SOPE   H8Y18330   4.410   2.023   9.910  1.3111  1.9897 -0.3934
  163SOPE   C3918331   4.549   1.878   9.827 -0.4179 -0.3947 -0.3612
  163SOPE   H9X18332   4.472   1.800   9.844 -1.1812  0.3913 -0.1286
  163SOPE   H9Y18333   4.650   1.847   9.861 -0.5537 -1.4267 -0.8826
  163SOPE  C31018334   4.539   1.918   9.678  0.0788 -0.4648  0.6728
  163SOPE  H10X18335   4.607   1.847   9.627  0.5319 -0.1729  0.8653
  163SOPE  H10Y18336   4.586   2.018   9.663 -2.5785  0.8026  0.2875
  163SOPE  C31118337   4.402   1.928   9.601 -0.2225  0.0875  1.1937
  163SOPE  H11X18338   4.346   2.009   9.653  2.1385  1.5992  1.5241
  163SOPE  H11Y18339   4.344   1.834   9.616  1.1223 -1.4053 -2.1253
  163SOPE  C31218340   4.419   1.952   9.448 -0.8164 -0.0458 -0.0961
  163SOPE  H12X18341   4.486   1.869   9.418 -1.2072 -0.0105 -1.0851
  163SOPE  H12Y18342   4.467   2.052   9.437 -1.3460  0.1346 -0.8077
  163SOPE  C31318343   4.295   1.936   9.360  0.3301 -0.5584  0.4577
  163SOPE  H13X18344   4.236   2.029   9.372  0.8744 -0.2146  0.4876
  163SOPE  H13Y18345   4.227   1.851   9.383 -0.6489 -0.6875 -2.5189
  163SOPE  C31418346   4.332   1.930   9.214  0.2416 -0.0635  0.3330
  163SOPE  H14X18347   4.244   1.953   9.150  0.8016  1.2074 -0.0136
  163SOPE  H14Y18348   4.390   1.840   9.187 -1.8224 -1.3466 -0.0566
  163SOPE  C31518349   4.429   2.041   9.162 -0.0338 -0.6091  0.3161
  163SOPE  H15X18350   4.495   2.014   9.077 -0.0612  0.3405 -0.0192
  163SOPE  H15Y18351   4.514   2.052   9.232  0.4064 -0.4502 -0.2329
  163SOPE  C31618352   4.384   2.181   9.131  0.2971 -0.3133 -0.2837
  163SOPE  H16X18353   4.465   2.252   9.103 -0.0620  0.1950 -0.0539
  163SOPE  H16Y18354   4.328   2.232   9.212 -2.0824 -1.4631 -1.1038
  163SOPE  C31718355   4.289   2.193   9.013 -0.4542  0.4657  0.5563
  163SOPE  H17X18356   4.190   2.146   9.033 -0.1987 -0.5037 -0.3393
  163SOPE  H17Y18357   4.340   2.141   8.929  0.1663  0.9029  0.6539
  163SOPE  C31818358   4.273   2.341   8.974  0.4672 -0.2512  0.6338
  163SOPE  H18X18359   4.364   2.395   9.006  0.1341  0.9085 -0.3285
  163SOPE  H18Y18360   4.192   2.376   9.042 -1.0775 -1.9663 -0.2199
  163SOPE  H18Z18361   4.253   2.360   8.867 -0.1825 -0.1329  0.7738
  164SOPE     N18362   3.169   0.633  11.460 -0.2152 -0.1241 -0.3291
  164SOPE   HN118363   3.163   0.578  11.372 -0.2116  1.1698 -1.1726
  164SOPE   HN218364   3.146   0.573  11.542 -2.0898  0.1528 -0.5905
  164SOPE   HN318365   3.096   0.707  11.451  0.2659  0.4681  0.5958
  164SOPE   C1218366   3.303   0.693  11.480 -0.5664 -0.4461  0.1580
  164SOPE  H12A18367   3.382   0.618  11.456  2.4076  1.8690  2.0428
  164SOPE  H12B18368   3.302   0.730  11.584  0.0734 -2.4177  0.8928
  164SOPE   C1118369   3.328   0.815  11.381  0.4593 -0.0463 -0.0614
  164SOPE  H11A18370   3.410   0.877  11.423  1.6671 -1.8855  0.4213
  164SOPE  H11B18371   3.235   0.874  11.383  0.5405  0.1378 -1.1854
  164SOPE     P18372   3.491   0.765  11.176 -0.1035  0.0788  0.1215
  164SOPE   O1318373   3.493   0.650  11.084 -0.4078  0.0151 -0.2691
  164SOPE   O1418374   3.602   0.774  11.270  0.7658  1.0090 -0.5086
  164SOPE   O1218375   3.351   0.772  11.249 -1.2414  0.1962  0.0516
  164SOPE   O1118376   3.487   0.903  11.093  0.0477  0.2582  0.0185
  164SOPE    C118377   3.364   0.919  11.020  0.2967  0.1068  0.0673
  164SOPE    HA18378   3.293   0.994  11.061 -0.3508  0.9475 -2.3728
  164SOPE    HB18379   3.305   0.827  11.002 -0.0375 -0.0301  1.7677
  164SOPE    C218380   3.393   0.970  10.869  0.7297 -0.2728 -0.3919
  164SOPE    HS18381   3.294   0.981  10.820  0.5361 -0.5600 -0.0738
  164SOPE   O2118382   3.471   0.869  10.792 -0.7838 -0.8100  0.2943
  164SOPE   C2118383   3.420   0.745  10.771 -0.4701 -0.4247 -0.5017
  164SOPE   O2218384   3.306   0.713  10.776 -0.0808 -0.4345  0.2969
  164SOPE   C2218385   3.532   0.637  10.735  0.2304 -0.2799  0.3086
  164SOPE   H2R18386   3.499   0.540  10.778  2.2139 -0.8952  0.5257
  164SOPE   H2S18387   3.625   0.663  10.790 -0.5234  1.3132  0.9172
  164SOPE    C318388   3.459   1.113  10.878 -0.6650  0.0898  0.3195
  164SOPE    HX18389   3.559   1.115  10.925 -0.4776  3.7446  0.1124
  164SOPE    HY18390   3.404   1.190  10.936  0.0969  0.0391  1.1224
  164SOPE   O3118391   3.477   1.170  10.748  0.5631  0.5434  0.6418
  164SOPE   C3118392   3.583   1.125  10.677 -0.5315 -0.1597 -0.8932
  164SOPE   O3218393   3.666   1.052  10.722  0.0920 -0.1862 -0.2179
  164SOPE   C3218394   3.584   1.182  10.538 -0.3735 -0.9700 -0.2303
  164SOPE   H2X18395   3.630   1.280  10.562  0.3715 -1.6000  1.0295
  164SOPE   H2Y18396   3.479   1.211  10.520  0.6569  2.7210 -1.2153
  164SOPE   C2318397   3.572   0.652  10.587 -0.3329 -0.2572  0.2931
  164SOPE   H3R18398   3.485   0.655  10.517 -1.1109 -1.2786  1.1618
  164SOPE   H3S18399   3.622   0.554  10.573 -0.4978 -0.2756 -0.1910
  164SOPE   C2418400   3.672   0.762  10.547  0.2274 -0.1384  0.2838
  164SOPE   H4R18401   3.633   0.860  10.582 -0.8956 -0.7174  0.6838
  164SOPE   H4S18402   3.767   0.749  10.603  0.3166 -0.9217 -0.0389
  164SOPE   C2518403   3.701   0.770  10.398 -0.5910 -0.1667  0.3655
  164SOPE   H5R18404   3.612   0.816  10.350 -0.2510  1.2810  1.0784
  164SOPE   H5S18405   3.783   0.844  10.387 -1.5977  0.9146 -0.0795
  164SOPE   C2618406   3.723   0.632  10.334  0.2328 -0.1837 -0.2298
  164SOPE   H6R18407   3.790   0.578  10.404  0.4873 -1.8516 -1.7116
  164SOPE   H6S18408   3.631   0.572  10.319 -1.8389  3.0401 -1.5253
  164SOPE   C2718409   3.818   0.642  10.207  1.4517 -0.2865  0.0851
  164SOPE   H7R18410   3.897   0.711  10.244  0.8568  0.1797  0.5059
  164SOPE   H7S18411   3.860   0.540  10.191  4.5325  1.1647 -2.1656
  164SOPE   C2818412   3.754   0.702  10.086 -0.7865  0.0593  0.1496
  164SOPE   H8R18413   3.766   0.813  10.093 -0.1422  0.0011 -0.0676
  164SOPE   H8S18414   3.823   0.686  10.001  1.8638  0.0268  2.1720
  164SOPE   C2918415   3.615   0.652  10.062  0.2651  0.1492 -0.3779
  164SOPE   H9118416   3.554   0.642  10.152  1.1092 -3.1468 -0.0422
  164SOPE  C21018417   3.562   0.616   9.941  0.8906  0.2077  0.6637
  164SOPE  H10118418   3.466   0.563   9.931  0.6230  0.9702 -1.3154
  164SOPE  C21118419   3.635   0.621   9.811  0.0603  0.5536  0.1063
  164SOPE  H11R18420   3.704   0.534   9.805 -0.3688  0.2647 -0.9177
  164SOPE  H11S18421   3.692   0.716   9.799  0.5107  0.2726  0.0047
  164SOPE  C21218422   3.546   0.598   9.691  0.4975 -0.1099 -0.5767
  164SOPE  H12R18423   3.462   0.669   9.708  1.7776  1.2559  0.3424
  164SOPE  H12S18424   3.507   0.495   9.690 -0.4678  0.2319  0.4878
  164SOPE  C21318425   3.621   0.631   9.562 -0.0760 -0.3178  0.5655
  164SOPE  H13R18426   3.708   0.563   9.553  1.4238  1.6055  0.0661
  164SOPE  H13S18427   3.657   0.736   9.553  1.7558 -1.0419 -1.5000
  164SOPE  C21418428   3.522   0.603   9.453 -0.0180 -0.9162  0.1811
  164SOPE  H14R18429   3.457   0.688   9.422  3.0292  1.1192 -1.1956
  164SOPE  H14S18430   3.458   0.514   9.470  0.5831 -1.5948 -0.9880
  164SOPE  C21518431   3.591   0.579   9.318 -0.4359 -0.1615 -0.7875
  164SOPE  H15R18432   3.668   0.501   9.333  0.2818  0.8363  1.0208
  164SOPE  H15S18433   3.644   0.676   9.305 -1.6604  0.6863  0.2754
  164SOPE  C21618434   3.498   0.539   9.199  0.2743  0.0337 -0.0511
  164SOPE  H16R18435   3.418   0.615   9.191 -0.0445  0.1751  3.2056
  164SOPE  H16S18436   3.446   0.444   9.223  0.9902 -0.3796 -0.0801
  164SOPE  C21718437   3.569   0.505   9.066 -0.1053 -0.2212 -0.0131
  164SOPE  H17R18438   3.653   0.434   9.086 -0.4836 -0.5527  0.4059
  164SOPE  H17S18439   3.614   0.599   9.025  0.8921 -1.4831 -1.9805
  164SOPE  C21818440   3.485   0.450   8.957 -0.9763 -1.2178 -0.6570
  164SOPE  H18R18441   3.472   0.519   8.871  1.6266 -0.7876 -0.7888
  164SOPE  H18S18442   3.386   0.432   9.005  0.1898  0.8447  2.9467
  164SOPE  H18T18443   3.526   0.353   8.923  0.0058 -2.1934  2.8326
  164SOPE   C3318444   3.643   1.108  10.422 -0.0063 -0.2233 -0.0151
  164SOPE   H3X18445   3.586   1.016  10.398  2.6099 -1.9037 -0.2425
  164SOPE   H3Y18446   3.737   1.060  10.458 -0.4240 -0.4739  0.7623
  164SOPE   C3418447   3.674   1.190  10.291 -0.1584  0.4231  0.2113
  164SOPE   H4X18448   3.731   1.283  10.311 -1.3468  0.8728  1.7469
  164SOPE   H4Y18449   3.570   1.227  10.283  0.5227  2.6171  0.8613
  164SOPE   C3518450   3.726   1.115  10.177 -0.0092  0.0142  0.2275
  164SOPE   H5X18451   3.674   1.019  10.155  1.4710 -1.2069  1.7701
  164SOPE   H5Y18452   3.835   1.093  10.189  0.0118  0.5733  1.1350
  164SOPE   C3618453   3.711   1.200  10.053 -0.4234 -0.0595 -0.1238
  164SOPE   H6X18454   3.765   1.296  10.068 -2.8544  1.3288  0.3405
  164SOPE   H6Y18455   3.603   1.222  10.040 -0.4213  1.4071  1.8649
  164SOPE   C3718456   3.766   1.125   9.932 -0.7710 -0.1818  0.9664
  164SOPE   H7X18457   3.723   1.023   9.932  0.7486 -0.8545  0.0485
  164SOPE   H7Y18458   3.877   1.123   9.943 -0.4987  1.4027 -0.8156
  164SOPE   C3818459   3.733   1.190   9.796 -0.0330  0.1291 -0.5657
  164SOPE   H8X18460   3.766   1.296   9.789  0.8768 -0.1683 -0.9176
  164SOPE   H8Y18461   3.623   1.176   9.796 -0.2362  1.3612  1.3433
  164SOPE   C3918462   3.781   1.107   9.684 -0.3903 -0.1853  0.0314
  164SOPE   H9X18463   3.771   0.998   9.706 -3.7325  0.0893  0.4608
  164SOPE   H9Y18464   3.887   1.133   9.664 -0.7255  0.8704 -0.4532
  164SOPE  C31018465   3.714   1.151   9.559  0.2338  0.2426 -0.0083
  164SOPE  H10X18466   3.728   1.261   9.559  1.7263  0.0963  1.9020
  164SOPE  H10Y18467   3.605   1.128   9.553  0.1508  0.0337  1.8591
  164SOPE  C31118468   3.791   1.102   9.435 -0.5480  0.9419  0.0404
  164SOPE  H11X18469   3.788   0.991   9.439 -1.0930  0.9432 -0.1705
  164SOPE  H11Y18470   3.900   1.124   9.438 -0.1289 -0.9506  0.0915
  164SOPE  C31218471   3.724   1.165   9.303  0.1771  0.6770 -0.3582
  164SOPE  H12X18472   3.807   1.177   9.230  0.2341  1.1042 -0.2268
  164SOPE  H12Y18473   3.681   1.262   9.335  2.6898  1.2678  1.4833
  164SOPE  C31318474   3.614   1.074   9.250  0.0911 -0.3972 -0.4227
  164SOPE  H13X18475   3.543   1.131   9.186 -0.9493 -0.1623  0.8940
  164SOPE  H13Y18476   3.550   1.055   9.339 -1.6994 -0.2926 -1.6461
  164SOPE  C31418477   3.663   0.947   9.171  0.5157 -0.0218  0.5433
  164SOPE  H14X18478   3.577   0.880   9.148 -1.1108  2.6645 -2.0066
  164SOPE  H14Y18479   3.730   0.882   9.231 -0.6198  0.3857  2.3360
  164SOPE  C31518480   3.717   0.986   9.028 -1.0330  0.1169  0.5750
  164SOPE  H15X18481   3.788   1.072   9.031  0.3113 -0.8164 -1.7265
  164SOPE  H15Y18482   3.628   1.013   8.968 -1.1155  0.7975  0.9942
  164SOPE  C31618483   3.788   0.867   8.953 -0.4742  0.0793 -0.1853
  164SOPE  H16X18484   3.731   0.771   8.960  0.7291 -0.9146 -2.6064
  164SOPE  H16Y18485   3.881   0.852   9.011 -0.9020  3.8476  1.7803
  164SOPE  C31718486   3.830   0.900   8.814  0.6061  0.4310  0.5440
  164SOPE  H17X18487   3.906   0.825   8.783 -0.3243 -0.2672 -0.0793
  164SOPE  H17Y18488   3.879   1.000   8.817  1.2088  0.1671  4.0015
  164SOPE  C31818489   3.710   0.901   8.726 -0.6387  0.0102  0.2082
  164SOPE  H18X18490   3.639   0.818   8.748 -2.2105  1.0426 -0.7749
  164SOPE  H18Y18491   3.731   0.906   8.617 -1.5897 -0.5732 -0.0122
  164SOPE  H18Z18492   3.650   0.992   8.747 -2.2608 -1.3956  2.1383
  165SOPE     N18493   2.602   2.465  11.156 -0.5597 -0.5059 -0.7830
  165SOPE   HN118494   2.578   2.365  11.144  0.2921 -1.0044  1.1969
  165SOPE   HN218495   2.532   2.520  11.103 -1.1981  1.1654  1.6027
  165SOPE   HN318496   2.702   2.483  11.130 -0.9489  0.4927 -1.6664
  165SOPE   C1218497   2.586   2.523  11.292 -0.5031  0.2159  0.3044
  165SOPE  H12A18498   2.680   2.493  11.344 -0.3995 -0.8836 -0.4753
  165SOPE  H12B18499   2.496   2.470  11.331  0.5316 -1.2153  0.8533
  165SOPE   C1118500   2.572   2.674  11.286  0.6465 -0.4048 -0.3941
  165SOPE  H11A18501   2.578   2.705  11.392  1.8438 -2.7654  0.3032
  165SOPE  H11B18502   2.478   2.715  11.243  1.2209  1.9689  0.4576
  165SOPE     P18503   2.687   2.897  11.213  0.1089  0.0682  0.0654
  165SOPE   O1318504   2.756   2.924  11.333 -0.3311  0.0497  0.2051
  165SOPE   O1418505   2.558   2.966  11.194 -0.0052 -0.0096  0.0260
  165SOPE   O1218506   2.664   2.743  11.212  0.3906 -0.1037  0.2472
  165SOPE   O1118507   2.779   2.937  11.091 -0.5927 -0.7408  0.1552
  165SOPE    C118508   2.825   2.834  11.000  0.3070 -0.2724 -0.2109
  165SOPE    HA18509   2.863   2.745  11.054 -1.2752  0.0085  1.4736
  165SOPE    HB18510   2.905   2.871  10.933  1.5163  1.8647  2.1962
  165SOPE    C218511   2.708   2.789  10.914 -0.1138  0.0581  0.1294
  165SOPE    HS18512   2.631   2.740  10.977 -2.5394 -0.9791 -3.3175
  165SOPE   O2118513   2.763   2.697  10.817 -0.0833  0.5285  1.0113
  165SOPE   C2118514   2.681   2.612  10.768 -0.1498 -0.3671  0.8132
  165SOPE   O2218515   2.561   2.596  10.792  0.2826 -0.7183 -0.2178
  165SOPE   C2218516   2.749   2.545  10.649 -0.3384  1.0406  0.0219
  165SOPE   H2R18517   2.711   2.442  10.633  0.9208  0.5660 -0.0413
  165SOPE   H2S18518   2.857   2.529  10.668 -0.4359  0.1445 -0.0990
  165SOPE    C318519   2.631   2.907  10.840  0.0764  0.2404  0.1022
  165SOPE    HX18520   2.577   2.971  10.913 -1.9014  1.0503 -1.9424
  165SOPE    HY18521   2.547   2.870  10.779  0.5609 -1.7000  0.5208
  165SOPE   O3118522   2.721   3.004  10.768  0.0765 -0.3150  0.1292
  165SOPE   C3118523   2.716   3.003  10.629  0.0365 -0.2200  0.1883
  165SOPE   O3218524   2.626   2.948  10.569  0.3773 -0.1325 -0.1141
  165SOPE   C3218525   2.829   3.096  10.580  0.9833  0.7358 -0.2898
  165SOPE   H2X18526   2.923   3.039  10.597  0.7918  0.5946  0.3337
  165SOPE   H2Y18527   2.840   3.183  10.648 -1.7147  1.5989 -0.8344
  165SOPE   C2318528   2.733   2.611  10.505  0.1383  0.0801 -0.3884
  165SOPE   H3R18529   2.781   2.711  10.499 -1.6674  0.9344 -1.7713
  165SOPE   H3S18530   2.624   2.633  10.499 -0.1292 -1.3795 -1.3042
  165SOPE   C2418531   2.789   2.535  10.384 -0.2398  0.6438  0.3467
  165SOPE   H4R18532   2.892   2.500  10.407 -1.0946 -0.7980  2.3132
  165SOPE   H4S18533   2.738   2.437  10.386 -0.6215  0.8486  1.1640
  165SOPE   C2518534   2.759   2.608  10.256 -0.4693 -0.6249 -0.0522
  165SOPE   H5R18535   2.651   2.630  10.245 -0.9648 -1.8609  1.8168
  165SOPE   H5S18536   2.817   2.703  10.249  0.2374 -1.1179 -1.1901
  165SOPE   C2618537   2.810   2.531  10.127  0.0816 -0.2624  0.3373
  165SOPE   H6R18538   2.734   2.452  10.113  0.7132 -0.7103 -0.6227
  165SOPE   H6S18539   2.801   2.599  10.040  0.2999 -0.7686 -0.0872
  165SOPE   C2718540   2.956   2.486  10.126  0.1285 -0.3223  0.2696
  165SOPE   H7R18541   3.006   2.580  10.157 -0.3668 -0.0049  0.1023
  165SOPE   H7S18542   2.974   2.405  10.200  0.2258 -0.8773 -0.3523
  165SOPE   C2818543   3.004   2.433   9.987 -0.2964 -0.1355  1.1856
  165SOPE   H8R18544   3.101   2.388  10.016  0.0940  0.1435  0.3482
  165SOPE   H8S18545   2.936   2.354   9.947 -1.1020  0.3890  1.5035
  165SOPE   C2918546   3.029   2.532   9.875  0.1426 -0.2424  0.4625
  165SOPE   H9118547   3.109   2.605   9.896  0.6661 -0.6272 -0.1435
  165SOPE  C21018548   2.970   2.542   9.756 -0.6767 -0.7728 -0.0748
  165SOPE  H10118549   3.006   2.628   9.698  0.3068 -0.0016  1.5832
  165SOPE  C21118550   2.854   2.467   9.702  0.6583 -0.5791 -0.2446
  165SOPE  H11R18551   2.769   2.535   9.680  1.3709 -0.4031 -2.6413
  165SOPE  H11S18552   2.807   2.401   9.779  0.0261  2.4264  2.1274
  165SOPE  C21218553   2.878   2.395   9.569 -0.3508  0.4397  0.0358
  165SOPE  H12R18554   2.791   2.336   9.535 -1.2794  1.1535  1.0894
  165SOPE  H12S18555   2.958   2.321   9.590 -0.6722 -0.4021 -1.6205
  165SOPE  C21318556   2.910   2.484   9.443  0.6788  0.2305 -0.1874
  165SOPE  H13R18557   3.007   2.533   9.465  0.2861  1.0645 -0.2904
  165SOPE  H13S18558   2.831   2.562   9.443  0.3131 -0.1130  1.0390
  165SOPE  C21418559   2.917   2.418   9.307 -0.2266 -1.3975  0.1432
  165SOPE  H14R18560   2.814   2.420   9.267 -0.8006  3.3216  1.3120
  165SOPE  H14S18561   2.953   2.313   9.315  2.3305 -0.7595 -1.7139
  165SOPE  C21518562   3.014   2.489   9.209 -0.5774 -0.0165  0.2756
  165SOPE  H15R18563   3.121   2.479   9.238 -1.0275  0.6074  2.3193
  165SOPE  H15S18564   2.978   2.594   9.197  0.1462  0.0725 -1.3983
  165SOPE  C21618565   3.008   2.428   9.066 -0.0159  0.6020  0.3990
  165SOPE  H16R18566   2.911   2.453   9.017  0.4903  0.9182 -0.4567
  165SOPE  H16S18567   3.008   2.318   9.074 -2.9890  0.2117 -2.4864
  165SOPE  C21718568   3.125   2.488   8.983  0.0403 -0.2393  0.4847
  165SOPE  H17R18569   3.219   2.463   9.037  1.2327  0.6354 -1.1109
  165SOPE  H17S18570   3.105   2.594   8.957  0.0977 -0.8238 -2.2079
  165SOPE  C21818571   3.143   2.420   8.846  0.3821  0.0849 -0.0704
  165SOPE  H18R18572   3.195   2.323   8.854 -1.2881 -0.8619 -0.3075
  165SOPE  H18S18573   3.203   2.485   8.778  0.8133  0.7073  0.8926
  165SOPE  H18T18574   3.040   2.396   8.810  0.5229 -0.0822 -0.3618
  165SOPE   C3318575   2.803   3.142  10.437  0.1882 -0.0564  0.4460
  165SOPE   H3X18576   2.867   3.230  10.415 -2.0244  2.0607  1.9208
  165SOPE   H3Y18577   2.700   3.183  10.428  0.7443  1.1211 -0.9022
  165SOPE   C3418578   2.823   3.031  10.330  0.4791  0.4434 -0.0380
  165SOPE   H4X18579   2.742   2.957  10.345  0.3163  0.1805 -1.9752
  165SOPE   H4Y18580   2.925   2.987  10.335 -0.8782 -3.0381 -0.2594
  165SOPE   C3518581   2.775   3.080  10.192 -0.0494 -0.4458  0.1343
  165SOPE   H5X18582   2.832   3.173  10.169 -0.4489 -0.1119  0.4772
  165SOPE   H5Y18583   2.666   3.100  10.194 -0.0792 -0.4183 -1.0937
  165SOPE   C3618584   2.807   2.979  10.087  0.2824 -0.7157  0.2874
  165SOPE   H6X18585   2.759   2.882  10.113 -0.4572 -0.1223  1.2087
  165SOPE   H6Y18586   2.918   2.966  10.083  0.3450  0.1207 -1.8897
  165SOPE   C3718587   2.767   3.015   9.942  0.5337 -0.4678 -0.3701
  165SOPE   H7X18588   2.812   3.113   9.915  0.6019 -0.8160 -1.6196
  165SOPE   H7Y18589   2.657   3.026   9.934  0.6667  0.6715 -0.8914
  165SOPE   C3818590   2.794   2.906   9.836  0.5075 -1.1867 -0.0842
  165SOPE   H8X18591   2.752   2.807   9.864 -0.1294 -0.9242 -0.1034
  165SOPE   H8Y18592   2.905   2.896   9.837  0.9053  2.1074  0.7628
  165SOPE   C3918593   2.750   2.945   9.694  0.1512 -0.5485 -0.3531
  165SOPE   H9X18594   2.786   3.046   9.665  1.9748 -0.6851  1.2538
  165SOPE   H9Y18595   2.639   2.942   9.697 -0.0428  3.0005  1.5404
  165SOPE  C31018596   2.783   2.840   9.590 -0.5577 -0.3016 -0.2913
  165SOPE  H10X18597   2.763   2.739   9.633 -1.5914  0.7454  1.8608
  165SOPE  H10Y18598   2.892   2.825   9.577 -0.2593 -0.0847  1.5990
  165SOPE  C31118599   2.719   2.856   9.452  0.2558  0.2397 -0.0590
  165SOPE  H11X18600   2.648   2.939   9.473  1.8314  1.3828  1.0273
  165SOPE  H11Y18601   2.657   2.766   9.434 -0.2228 -0.1154  2.9028
  165SOPE  C31218602   2.817   2.895   9.341 -0.6817 -0.1566  0.4991
  165SOPE  H12X18603   2.891   2.813   9.326  0.5680  1.3665 -2.3428
  165SOPE  H12Y18604   2.882   2.979   9.374  0.5976  0.2208 -2.7058
  165SOPE  C31318605   2.757   2.928   9.207  0.1056 -0.3954  0.0574
  165SOPE  H13X18606   2.720   3.033   9.213  1.8032  0.3179 -1.3468
  165SOPE  H13Y18607   2.663   2.868   9.200 -1.6821  2.3365 -1.6753
  165SOPE  C31418608   2.850   2.901   9.087  0.3170 -0.1026  0.6725
  165SOPE  H14X18609   2.877   2.793   9.089  1.8902  0.1876 -1.4827
  165SOPE  H14Y18610   2.947   2.950   9.109  0.3591  0.7882 -1.2904
  165SOPE  C31518611   2.791   2.968   8.962 -0.5726 -0.0112  0.2582
  165SOPE  H15X18612   2.815   3.075   8.978 -0.6888 -0.3140  2.9131
  165SOPE  H15Y18613   2.681   2.958   8.946  0.0350 -2.7544 -3.3974
  165SOPE  C31618614   2.848   2.911   8.830  0.5154  0.1183  0.1012
  165SOPE  H16X18615   2.952   2.880   8.855  0.6778  1.0700  0.6582
  165SOPE  H16Y18616   2.841   2.997   8.761  1.5362 -1.6958 -2.4357
  165SOPE  C31718617   2.779   2.787   8.770  0.2302 -0.9422  0.6650
  165SOPE  H17X18618   2.679   2.814   8.732 -0.1454 -2.6417  0.3362
  165SOPE  H17Y18619   2.775   2.711   8.851 -2.9902 -0.7082  0.8438
  165SOPE  C31818620   2.848   2.730   8.644  0.4552 -0.6193  0.8844
  165SOPE  H18X18621   2.847   2.808   8.564  2.4207 -0.3271  1.1089
  165SOPE  H18Y18622   2.800   2.637   8.608 -0.5424  0.1236  0.2333
  165SOPE  H18Z18623   2.951   2.693   8.663  0.6841 -0.4565 -0.0133
  166SOPE     N18624   5.103   6.455  11.271  0.0107 -0.0227 -0.1997
  166SOPE   HN118625   5.128   6.554  11.293 -2.0523  0.7623 -1.0885
  166SOPE   HN218626   5.001   6.449  11.288 -0.1189  1.9283 -0.0404
  166SOPE   HN318627   5.151   6.395  11.341 -0.0218  1.1384  0.8532
  166SOPE   C1218628   5.139   6.413  11.138 -0.2863 -0.1904  0.3152
  166SOPE  H12A18629   5.247   6.429  11.119 -0.5172 -0.8098 -1.8055
  166SOPE  H12B18630   5.076   6.469  11.066  0.4967 -0.1604 -0.3601
  166SOPE   C1118631   5.101   6.268  11.123 -0.4410  0.5447  0.6150
  166SOPE  H11A18632   5.181   6.211  11.175  0.7429  1.9826  0.4368
  166SOPE  H11B18633   5.114   6.238  11.017 -2.8753 -0.3413  0.5143
  166SOPE     P18634   4.938   6.081  11.138  0.0238 -0.1587 -0.6335
  166SOPE   O1318635   4.796   6.072  11.155  0.6697 -0.6460 -0.5060
  166SOPE   O1418636   5.016   5.998  11.230 -0.2338  0.4622 -0.2670
  166SOPE   O1218637   4.979   6.234  11.175  0.0337  0.5972  0.7838
  166SOPE   O1118638   4.979   6.062  10.987 -0.0788 -0.0022 -0.2564
  166SOPE    C118639   4.890   6.078  10.881  0.0563  0.0126 -0.5728
  166SOPE    HA18640   4.781   6.079  10.906 -0.3546  1.1063 -2.2215
  166SOPE    HB18641   4.898   5.994  10.809 -1.7339 -0.6910 -0.0091
  166SOPE    C218642   4.922   6.202  10.790 -0.2200 -0.3196  0.1885
  166SOPE    HS18643   4.855   6.181  10.704  1.1960 -0.3638 -0.9331
  166SOPE   O2118644   5.062   6.199  10.763 -0.3027  0.0332 -0.1297
  166SOPE   C2118645   5.098   6.140  10.651 -0.0680 -0.1925 -0.2759
  166SOPE   O2218646   5.017   6.082  10.579  0.2350 -0.5331 -0.2342
  166SOPE   C2218647   5.244   6.154  10.629 -0.3601  0.0759 -0.3211
  166SOPE   H2R18648   5.299   6.073  10.681  0.4684  0.7850 -0.0707
  166SOPE   H2S18649   5.280   6.244  10.683 -0.7020 -1.0847  1.9534
  166SOPE    C318650   4.893   6.335  10.854  0.1749 -0.0072  0.0752
  166SOPE    HX18651   4.981   6.401  10.868 -1.5771  3.0186 -1.8425
  166SOPE    HY18652   4.842   6.307  10.949 -0.2693  0.7575  0.0697
  166SOPE   O3118653   4.798   6.414  10.775 -0.5350 -0.3908  0.3227
  166SOPE   C3118654   4.771   6.525  10.831 -0.3528 -0.1644  0.0103
  166SOPE   O3218655   4.795   6.565  10.939  0.0730 -0.0980  0.2907
  166SOPE   C3218656   4.690   6.612  10.733  0.0767  0.2012  0.0721
  166SOPE   H2X18657   4.637   6.687  10.795 -0.1980 -1.9580  2.6711
  166SOPE   H2Y18658   4.617   6.540  10.690 -0.4211  0.8364 -0.1397
  166SOPE   C2318659   5.295   6.150  10.479  0.1295  0.4325  0.5052
  166SOPE   H3R18660   5.402   6.179  10.488  0.1239  0.0890  1.8687
  166SOPE   H3S18661   5.246   6.232  10.421  0.1101  0.9708  1.2635
  166SOPE   C2418662   5.276   6.016  10.410  0.0135  0.3514 -0.3162
  166SOPE   H4R18663   5.299   5.939  10.487 -2.6613 -1.0308 -0.7852
  166SOPE   H4S18664   5.172   5.991  10.379  0.2461 -1.4182  0.2035
  166SOPE   C2518665   5.374   5.985  10.297 -0.3096  0.3267  0.6266
  166SOPE   H5R18666   5.473   5.972  10.344  1.5880 -0.1454 -3.1218
  166SOPE   H5S18667   5.339   5.891  10.249 -1.7897  1.8740 -1.5265
  166SOPE   C2618668   5.388   6.100  10.195 -0.5968  0.5189  0.2675
  166SOPE   H6R18669   5.287   6.109  10.149 -0.8481  1.0418  0.9030
  166SOPE   H6S18670   5.401   6.198  10.245  1.4731  0.7461 -0.6211
  166SOPE   C2718671   5.492   6.078  10.091  0.0606  0.7239  0.0559
  166SOPE   H7R18672   5.587   6.062  10.147 -0.1728 -0.2812  0.1910
  166SOPE   H7S18673   5.483   5.979  10.041 -1.4600  0.4663  0.7821
  166SOPE   C2818674   5.507   6.202  10.003  0.5442 -0.1367  0.1514
  166SOPE   H8R18675   5.556   6.274  10.071  0.0355 -0.5301  0.9427
  166SOPE   H8S18676   5.576   6.177   9.919  1.2502  1.5530  0.1974
  166SOPE   C2918677   5.377   6.246   9.946 -0.4413 -0.3062 -0.3568
  166SOPE   H9118678   5.326   6.332   9.992 -1.1854  0.0950 -1.8780
  166SOPE  C21018679   5.325   6.192   9.833  0.8783 -1.1677 -0.0984
  166SOPE  H10118680   5.232   6.222   9.783  1.9290 -0.2676 -1.6043
  166SOPE  C21118681   5.394   6.081   9.751  0.7643  0.5231 -0.5449
  166SOPE  H11R18682   5.321   6.006   9.714 -0.7364  2.0320 -0.7531
  166SOPE  H11S18683   5.467   6.030   9.817  0.4598  3.0433  1.9284
  166SOPE  C21218684   5.474   6.133   9.629  0.1321 -0.1970 -0.6471
  166SOPE  H12R18685   5.534   6.049   9.588  0.6581 -0.1978  0.1035
  166SOPE  H12S18686   5.545   6.212   9.664  1.9773 -1.4923 -1.3130
  166SOPE  C21318687   5.396   6.198   9.515 -0.2238 -0.1621 -0.1960
  166SOPE  H13R18688   5.460   6.277   9.471  0.1199 -0.6039 -0.5035
  166SOPE  H13S18689   5.305   6.247   9.555 -0.1914  0.4731 -0.8666
  166SOPE  C21418690   5.349   6.096   9.408  0.1721 -0.4707 -0.0262
  166SOPE  H14R18691   5.267   6.151   9.357  1.1904  0.9426 -0.2112
  166SOPE  H14S18692   5.316   6.005   9.462 -0.4862 -0.0683  0.2682
  166SOPE  C21518693   5.463   6.064   9.317 -0.3498 -0.7260 -0.0769
  166SOPE  H15R18694   5.543   6.002   9.363  0.7105  0.5819 -0.1072
  166SOPE  H15S18695   5.508   6.162   9.293 -2.8813  1.0299  1.8659
  166SOPE  C21618696   5.411   5.996   9.189 -1.1542  0.1737 -0.4012
  166SOPE  H16R18697   5.500   5.983   9.125 -1.2131 -0.4692 -0.3575
  166SOPE  H16S18698   5.335   6.061   9.139 -0.5460  0.2133 -1.3031
  166SOPE  C21718699   5.339   5.863   9.217 -0.1820 -0.9239 -1.0981
  166SOPE  H17R18700   5.252   5.891   9.282  0.3607 -0.2138 -0.6572
  166SOPE  H17S18701   5.401   5.798   9.282  1.8962  1.3880 -0.6151
  166SOPE  C21818702   5.315   5.798   9.087  0.5687  0.0550  0.3183
  166SOPE  H18R18703   5.409   5.797   9.027 -0.1367 -0.8515 -0.8290
  166SOPE  H18S18704   5.231   5.852   9.037  0.3216 -0.2077  0.4442
  166SOPE  H18T18705   5.275   5.695   9.103  0.5156 -0.1874 -1.1834
  166SOPE   C3318706   4.777   6.680  10.623 -0.6393 -0.3174  0.5816
  166SOPE   H3X18707   4.814   6.600  10.555  0.4991  1.0934 -0.5154
  166SOPE   H3Y18708   4.862   6.738  10.666 -1.3054  1.6880 -0.6914
  166SOPE   C3418709   4.711   6.798  10.543  0.1358  0.8575  0.8652
  166SOPE   H4X18710   4.661   6.878  10.601 -2.7222 -1.2317  1.4810
  166SOPE   H4Y18711   4.636   6.747  10.480 -0.2512 -0.2024  2.1455
  166SOPE   C3518712   4.802   6.853  10.433 -0.6911 -0.1730 -0.5145
  166SOPE   H5X18713   4.824   6.782  10.351  2.2134 -0.7579  0.6615
  166SOPE   H5Y18714   4.898   6.871  10.487 -0.7231 -1.1591 -0.0888
  166SOPE   C3618715   4.743   6.977  10.379 -0.0184 -0.5342  0.5683
  166SOPE   H6X18716   4.732   7.055  10.456 -1.0106 -0.9295  0.8327
  166SOPE   H6Y18717   4.641   6.958  10.338  0.0860 -0.2357  0.1637
  166SOPE   C3718718   4.822   7.022  10.255 -0.2762  0.5361  0.3665
  166SOPE   H7X18719   4.790   6.953  10.174 -2.2122 -0.7503  2.1022
  166SOPE   H7Y18720   4.931   7.015  10.272 -0.0344  2.8231  0.0779
  166SOPE   C3818721   4.782   7.165  10.219 -0.7973  0.9628 -1.0311
  166SOPE   H8X18722   4.757   7.230  10.305  0.5282  0.2436 -0.0570
  166SOPE   H8Y18723   4.683   7.163  10.170 -2.2048  0.5615  1.6522
  166SOPE   C3918724   4.891   7.234  10.137  0.3954  0.1342 -0.1122
  166SOPE   H9X18725   4.993   7.229  10.181  0.9671  3.0567 -0.8489
  166SOPE   H9Y18726   4.874   7.344  10.131  0.8487  0.1812 -0.5766
  166SOPE  C31018727   4.915   7.161   9.998  0.3436 -0.2167  0.0499
  166SOPE  H10X18728   4.909   7.052  10.019 -2.9538  0.3234  2.9830
  166SOPE  H10Y18729   5.015   7.198   9.967  0.5230 -1.4538 -0.9245
  166SOPE  C31118730   4.807   7.197   9.893 -1.1485  0.5140 -0.6030
  166SOPE  H11X18731   4.784   7.306   9.896  1.1192  1.0602 -1.4808
  166SOPE  H11Y18732   4.716   7.139   9.919 -0.7507  0.6823  1.3151
  166SOPE  C31218733   4.864   7.170   9.747 -0.6850 -0.5013 -0.9833
  166SOPE  H12X18734   4.914   7.071   9.754  1.1317  0.3383 -1.4512
  166SOPE  H12Y18735   4.946   7.243   9.733 -0.2940 -0.3110  1.7214
  166SOPE  C31318736   4.758   7.178   9.631 -0.1691  0.0824 -0.5228
  166SOPE  H13X18737   4.696   7.267   9.657 -0.6355 -0.9925  2.2901
  166SOPE  H13Y18738   4.687   7.093   9.639 -0.0093  0.1201  2.0093
  166SOPE  C31418739   4.816   7.199   9.491  0.4081  0.0637  0.9676
  166SOPE  H14X18740   4.837   7.104   9.438  0.0455  0.3144  0.3579
  166SOPE  H14Y18741   4.903   7.269   9.490  0.1388  0.3974 -0.1851
  166SOPE  C31518742   4.709   7.268   9.399  0.2867  0.3341  1.2249
  166SOPE  H15X18743   4.686   7.369   9.438 -1.2700 -1.0456  4.1142
  166SOPE  H15Y18744   4.614   7.212   9.409 -0.7183  1.3626 -1.5167
  166SOPE  C31618745   4.759   7.277   9.257 -0.8829 -0.5814  0.0241
  166SOPE  H16X18746   4.777   7.182   9.203 -2.7394 -1.2647  0.5192
  166SOPE  H16Y18747   4.857   7.331   9.258 -1.4351  0.8194 -4.0182
  166SOPE  C31718748   4.662   7.363   9.168 -0.3511 -0.3851 -0.2135
  166SOPE  H17X18749   4.725   7.372   9.077 -0.5764 -1.4612 -0.4970
  166SOPE  H17Y18750   4.648   7.466   9.208 -0.4988 -0.7062  0.5778
  166SOPE  C31818751   4.529   7.292   9.137  0.5403  0.6788 -0.0889
  166SOPE  H18X18752   4.551   7.204   9.072  0.1837  0.3122  0.2786
  166SOPE  H18Y18753   4.461   7.371   9.100  1.4229  1.8604  0.7519
  166SOPE  H18Z18754   4.497   7.243   9.232  4.2574 -0.9992  0.4853
  167SOPE     N18755   3.528   0.269   6.259 -0.1211 -0.4866 -0.3050
  167SOPE   HN118756   3.497   0.350   6.201 -0.6123 -0.1459  0.4207
  167SOPE   HN218757   3.474   0.276   6.348  0.0636  0.2735 -0.2444
  167SOPE   HN318758   3.627   0.296   6.277 -0.3171 -0.0629  0.1570
  167SOPE   C1218759   3.513   0.136   6.189  1.2477  0.6958 -0.5444
  167SOPE  H12A18760   3.579   0.138   6.100  0.6589 -1.7407 -1.1315
  167SOPE  H12B18761   3.409   0.139   6.151  0.5206 -0.0518  1.2503
  167SOPE   C1118762   3.544   0.012   6.262 -0.4096  1.0392 -1.0947
  167SOPE  H11A18763   3.544  -0.072   6.190 -1.2863  0.9189 -0.9739
  167SOPE  H11B18764   3.464  -0.006   6.337 -1.6507  1.7245 -2.1976
  167SOPE     P18765   3.711  -0.031   6.461 -0.1964  0.1962  0.3639
  167SOPE   O1318766   3.858  -0.034   6.465  0.1778  0.0361 -0.5033
  167SOPE   O1418767   3.632  -0.154   6.495  0.3172  0.5016 -0.4693
  167SOPE   O1218768   3.673   0.023   6.321  1.2127 -0.1826  0.2840
  167SOPE   O1118769   3.664   0.099   6.544 -0.5824  0.7217  0.0114
  167SOPE    C118770   3.735   0.125   6.662 -0.0783 -0.0652  0.1462
  167SOPE    HA18771   3.695   0.220   6.704 -0.0230  0.0619 -0.0869
  167SOPE    HB18772   3.839   0.155   6.637 -0.4127  0.1266 -1.0912
  167SOPE    C218773   3.743   0.023   6.777 -0.7341 -0.0128 -0.2113
  167SOPE    HS18774   3.818  -0.056   6.753  0.2282  0.7342  0.2753
  167SOPE   O2118775   3.611  -0.041   6.795 -0.1930 -0.4904 -0.0890
  167SOPE   C2118776   3.604  -0.149   6.868  0.1086 -0.1500 -0.7046
  167SOPE   O2218777   3.700  -0.215   6.905 -0.1574  0.1051  0.9063
  167SOPE   C2218778   3.463  -0.171   6.915  0.4861  0.2558 -0.2845
  167SOPE   H2R18779   3.427  -0.263   6.865 -3.9907  0.3217  2.2703
  167SOPE   H2S18780   3.394  -0.092   6.879  1.0032  1.2513  0.8366
  167SOPE    C318781   3.785   0.110   6.896 -0.0134  0.6306  0.1153
  167SOPE    HX18782   3.691   0.158   6.930  0.1217 -0.4115  2.1053
  167SOPE    HY18783   3.860   0.185   6.864 -0.1611  1.0214  0.6757
  167SOPE   O3118784   3.825   0.030   7.005 -0.2179  0.5410  0.3743
  167SOPE   C3118785   3.939  -0.035   7.010  0.3566  0.8146  0.6668
  167SOPE   O3218786   4.027  -0.016   6.927  1.0315  0.0405  0.2135
  167SOPE   C3218787   3.940  -0.132   7.121  0.2620  0.4364 -0.1249
  167SOPE   H2X18788   4.038  -0.181   7.108  0.2650  0.6467 -0.9342
  167SOPE   H2Y18789   3.855  -0.196   7.088  0.3159  0.7164 -0.8196
  167SOPE   C2318790   3.437  -0.171   7.066 -0.3392 -0.0596 -0.7599
  167SOPE   H3R18791   3.529  -0.213   7.112  0.6169  1.9993 -0.6362
  167SOPE   H3S18792   3.349  -0.234   7.090  0.8662 -1.7507 -0.5869
  167SOPE   C2418793   3.425  -0.026   7.115 -0.2986 -0.0543  0.2504
  167SOPE   H4R18794   3.515   0.027   7.076  1.5235 -1.4263  2.4097
  167SOPE   H4S18795   3.335   0.027   7.076 -0.7041 -2.2275 -2.0369
  167SOPE   C2518796   3.410  -0.025   7.270  0.4429 -0.1345 -0.2835
  167SOPE   H5R18797   3.334  -0.098   7.305 -1.7900  1.7304 -0.9680
  167SOPE   H5S18798   3.506  -0.061   7.312 -0.0921 -0.7409  0.4480
  167SOPE   C2618799   3.363   0.118   7.322  0.5133 -0.2051  0.2144
  167SOPE   H6R18800   3.457   0.176   7.304  0.2628 -0.1580 -1.0297
  167SOPE   H6S18801   3.273   0.153   7.267  0.6671  0.5538  0.4342
  167SOPE   C2718802   3.346   0.133   7.478  0.4089  0.0393  0.3047
  167SOPE   H7R18803   3.262   0.064   7.501  1.3681 -1.2953 -0.0755
  167SOPE   H7S18804   3.433   0.087   7.528 -0.9789 -2.4438  0.5701
  167SOPE   C2818805   3.319   0.280   7.517  0.8987 -0.4208 -0.4509
  167SOPE   H8R18806   3.215   0.314   7.500 -0.0503 -2.9767 -0.1652
  167SOPE   H8S18807   3.327   0.283   7.628 -0.9092 -1.9324 -0.2440
  167SOPE   C2918808   3.412   0.384   7.459  0.6582 -0.5162  0.2805
  167SOPE   H9118809   3.364   0.440   7.378 -0.6372  1.1973  2.1393
  167SOPE  C21018810   3.535   0.408   7.502  0.0952  0.4285  0.8174
  167SOPE  H10118811   3.592   0.492   7.460 -0.4611  0.4818  0.1593
  167SOPE  C21118812   3.603   0.346   7.625  0.2320  0.1435  0.3316
  167SOPE  H11R18813   3.705   0.307   7.606 -0.0413  0.1764 -1.3497
  167SOPE  H11S18814   3.552   0.254   7.661  1.8150 -1.0994 -0.4441
  167SOPE  C21218815   3.588   0.455   7.731  0.8030  0.4591  0.8895
  167SOPE  H12R18816   3.477   0.459   7.741  0.5533 -0.9450 -0.7393
  167SOPE  H12S18817   3.635   0.555   7.731  0.1632  0.8391 -2.1409
  167SOPE  C21318818   3.628   0.410   7.875 -1.0547  0.6656  0.1506
  167SOPE  H13R18819   3.737   0.390   7.882 -1.0729  1.1129  2.8709
  167SOPE  H13S18820   3.576   0.314   7.897  2.2780 -1.2447  0.4008
  167SOPE  C21418821   3.587   0.516   7.970  0.2740 -0.3576 -0.4451
  167SOPE  H14R18822   3.491   0.560   7.935 -0.0067 -1.0913 -0.6277
  167SOPE  H14S18823   3.663   0.596   7.964 -0.5617  0.5262  0.3122
  167SOPE  C21518824   3.566   0.459   8.107  0.6332 -0.3072 -0.3025
  167SOPE  H15R18825   3.654   0.399   8.138  1.4641  1.0939  0.1601
  167SOPE  H15S18826   3.470   0.404   8.106 -1.3883  2.8725 -2.4260
  167SOPE  C21618827   3.553   0.563   8.214  0.3133 -0.0371 -0.1567
  167SOPE  H16R18828   3.466   0.630   8.196 -1.7183 -2.6969 -1.0610
  167SOPE  H16S18829   3.648   0.620   8.209  1.0626 -1.3433 -1.7686
  167SOPE  C21718830   3.543   0.506   8.355 -0.3873 -0.3299 -0.8095
  167SOPE  H17R18831   3.610   0.420   8.375 -1.4401 -0.4491  2.8621
  167SOPE  H17S18832   3.438   0.473   8.370 -0.3158  0.3043  1.3933
  167SOPE  C21818833   3.576   0.613   8.458 -0.3385 -0.0691 -0.1097
  167SOPE  H18R18834   3.686   0.627   8.461 -0.2094 -0.9792 -0.3215
  167SOPE  H18S18835   3.538   0.585   8.559 -0.7039 -1.8768 -0.7165
  167SOPE  H18T18836   3.539   0.717   8.447  2.5342  1.7400  4.5812
  167SOPE   C3318837   3.920  -0.062   7.260  0.0846  0.1734  0.0005
  167SOPE   H3X18838   3.915  -0.147   7.332 -0.1994 -0.2163 -0.4672
  167SOPE   H3Y18839   3.825  -0.004   7.262  1.3020  2.5924  5.2936
  167SOPE   C3418840   4.028   0.031   7.312  0.2254 -0.1915  0.2525
  167SOPE   H4X18841   4.019   0.126   7.256 -2.6403 -0.5175 -0.0075
  167SOPE   H4Y18842   4.127  -0.007   7.279  1.9231  4.3078 -0.4851
  167SOPE   C3518843   4.017   0.053   7.462  0.3764  0.1619  0.2669
  167SOPE   H5X18844   4.090   0.128   7.497  0.1976 -0.3752  1.8846
  167SOPE   H5Y18845   4.044  -0.046   7.504 -3.7704 -0.9964  0.7425
  167SOPE   C3618846   3.887   0.101   7.534 -0.1027  0.4114 -0.7482
  167SOPE   H6X18847   3.804   0.030   7.512 -1.4670  1.6546  0.1686
  167SOPE   H6Y18848   3.863   0.198   7.486  1.5933  0.4828 -1.5387
  167SOPE   C3718849   3.896   0.126   7.689 -0.5165  0.2467 -0.1724
  167SOPE   H7X18850   3.802   0.176   7.719  0.2717  1.7678 -0.1708
  167SOPE   H7Y18851   3.982   0.196   7.698  0.1603 -0.2634 -2.1925
  167SOPE   C3818852   3.928  -0.005   7.760 -0.3515 -0.2945  0.4301
  167SOPE   H8X18853   4.029  -0.042   7.730 -0.2462 -0.6456  1.1826
  167SOPE   H8Y18854   3.853  -0.079   7.727 -0.3897 -0.3443  0.6264
  167SOPE   C3918855   3.908   0.010   7.909 -0.8577 -0.6106  0.2499
  167SOPE   H9X18856   3.982   0.083   7.949  0.5677 -1.9008  0.0269
  167SOPE   H9Y18857   3.938  -0.083   7.960 -0.1532 -0.8939 -0.6554
  167SOPE  C31018858   3.763   0.055   7.955 -0.5210 -0.1637  0.2447
  167SOPE  H10X18859   3.688  -0.005   7.899 -2.1637  0.2519  1.9215
  167SOPE  H10Y18860   3.757   0.162   7.927 -0.7900 -0.2181  0.0954
  167SOPE  C31118861   3.738   0.031   8.100  0.2671  0.2650  0.2444
  167SOPE  H11X18862   3.793   0.106   8.161 -1.9130  0.4293  2.1041
  167SOPE  H11Y18863   3.774  -0.068   8.137  1.0813  0.5359  0.2133
  167SOPE  C31218864   3.587   0.047   8.122 -0.1855  0.4958  0.3022
  167SOPE  H12X18865   3.527  -0.022   8.059 -0.9523  0.6081  0.8932
  167SOPE  H12Y18866   3.554   0.153   8.111 -0.9996  0.3289  0.9701
  167SOPE  C31318867   3.541   0.004   8.266 -1.0763  0.0803  0.4736
  167SOPE  H13X18868   3.571   0.090   8.330  1.1836 -0.7788  0.6596
  167SOPE  H13Y18869   3.579  -0.095   8.299 -1.0187 -0.2456 -0.5310
  167SOPE  C31418870   3.385   0.010   8.275  0.8626 -0.0449  0.1534
  167SOPE  H14X18871   3.347  -0.053   8.192  0.2801  2.5488 -1.6911
  167SOPE  H14Y18872   3.360   0.118   8.265 -2.2470 -0.5786  1.0844
  167SOPE  C31518873   3.330  -0.027   8.416 -0.0970  0.2972 -0.0147
  167SOPE  H15X18874   3.345  -0.136   8.427  0.7411  0.4313  0.2736
  167SOPE  H15Y18875   3.224   0.002   8.426 -0.0765 -0.2329  2.2639
  167SOPE  C31618876   3.411   0.040   8.531  0.3877 -0.3234  0.1386
  167SOPE  H16X18877   3.421   0.146   8.499  0.7750 -0.4578 -0.1946
  167SOPE  H16Y18878   3.514   0.000   8.541 -0.3561 -1.8455  2.2721
  167SOPE  C31718879   3.331   0.039   8.672 -0.3029 -0.0834  0.2397
  167SOPE  H17X18880   3.318  -0.070   8.694 -2.6671  0.1714  0.3448
  167SOPE  H17Y18881   3.231   0.080   8.648  0.4583 -0.0992 -3.4854
  167SOPE  C31818882   3.418   0.117   8.774 -0.3831  0.2044 -0.5315
  167SOPE  H18X18883   3.370   0.111   8.874  0.4106  2.6426  0.0633
  167SOPE  H18Y18884   3.428   0.224   8.746  2.1142  0.0884 -0.3706
  167SOPE  H18Z18885   3.520   0.073   8.771 -0.6132 -0.3065 -1.1719
  168SOPE     N18886   0.279   4.193   6.722  0.0700 -0.1897  0.3532
  168SOPE   HN118887   0.381   4.212   6.733 -0.0212 -0.1260  1.2029
  168SOPE   HN218888   0.253   4.178   6.623 -2.2700 -1.8885  1.1478
  168SOPE   HN318889   0.223   4.267   6.768  1.2464  0.1804  1.2457
  168SOPE   C1218890   0.272   4.063   6.796  1.7984 -0.2892 -0.3097
  168SOPE  H12A18891   0.165   4.042   6.812  1.6077  0.6642 -0.2561
  168SOPE  H12B18892   0.315   4.082   6.896  0.3353 -1.2377  0.5280
  168SOPE   C1118893   0.345   3.962   6.713 -0.1094  0.3828  0.2606
  168SOPE  H11A18894   0.345   3.863   6.763 -2.4377 -0.7195 -1.7314
  168SOPE  H11B18895   0.450   3.998   6.704 -0.6096  1.2894 -3.3588
  168SOPE     P18896   0.176   3.861   6.551  0.1914  0.2201 -0.1894
  168SOPE   O1318897   0.154   3.866   6.406  0.1483  0.4031  0.0870
  168SOPE   O1418898   0.065   3.913   6.631  0.2041 -0.4505 -0.4974
  168SOPE   O1218899   0.306   3.954   6.579 -0.2386 -0.0668 -0.0596
  168SOPE   O1118900   0.220   3.718   6.601 -0.6742  0.2781  0.3113
  168SOPE    C118901   0.142   3.597   6.607  0.5377 -0.1359 -0.4904
  168SOPE    HA18902   0.205   3.505   6.607 -0.1297 -0.6512 -2.5300
  168SOPE    HB18903   0.069   3.582   6.525 -1.1158 -2.5277  1.2774
  168SOPE    C218904   0.076   3.598   6.750 -0.8725 -0.1905  0.0316
  168SOPE    HS18905   0.002   3.680   6.751 -2.0497 -1.2094  1.4907
  168SOPE   O2118906   0.181   3.627   6.835  0.2679  1.0836 -0.4912
  168SOPE   C2118907   0.140   3.699   6.942  0.5164 -0.8698  0.0630
  168SOPE   O2218908   0.048   3.783   6.945  0.3837  0.2345 -0.2287
  168SOPE   C2218909   0.217   3.655   7.065  0.1538  0.3982  0.2669
  168SOPE   H2R18910   0.309   3.600   7.037  0.9085  1.4146  0.6474
  168SOPE   H2S18911   0.146   3.587   7.116 -0.5522 -1.6587 -3.1800
  168SOPE    C318912  -0.002   3.469   6.797 -1.2991  0.0527  0.0990
  168SOPE    HX18913   0.075   3.393   6.822  0.3170  1.3744 -0.6600
  168SOPE    HY18914  -0.066   3.431   6.714 -2.3752  1.4678  0.2447
  168SOPE   O3118915  -0.087   3.485   6.915 -0.7727  0.0061 -0.6913
  168SOPE   C3118916  -0.197   3.551   6.917  0.7008 -0.3427  0.6221
  168SOPE   O3218917  -0.245   3.602   6.817  0.3382  0.1161  0.4562
  168SOPE   C3218918  -0.276   3.550   7.050 -0.2273  0.4149  0.1374
  168SOPE   H2X18919  -0.364   3.486   7.027 -1.8393  1.6937  2.3713
  168SOPE   H2Y18920  -0.297   3.658   7.066 -1.2841  1.2423 -4.9255
  168SOPE   C2318921   0.254   3.771   7.167  0.0751 -0.3084 -0.1460
  168SOPE   H3R18922   0.160   3.827   7.187  1.0211  0.7231  1.7511
  168SOPE   H3S18923   0.319   3.848   7.120  2.1646 -1.1902  1.1503
  168SOPE   C2418924   0.335   3.712   7.276 -0.2642 -0.4683 -0.1675
  168SOPE   H4R18925   0.290   3.617   7.310 -0.0871  0.0063  1.5039
  168SOPE   H4S18926   0.439   3.683   7.251  0.3005 -0.2421  1.7297
  168SOPE   C2518927   0.362   3.810   7.395 -0.0292  0.5643  1.0695
  168SOPE   H5R18928   0.427   3.891   7.356  0.8584  0.1511  1.6650
  168SOPE   H5S18929   0.268   3.850   7.438 -0.4875  1.0792 -0.3495
  168SOPE   C2618930   0.429   3.739   7.511  0.0019 -0.2522  0.5684
  168SOPE   H6R18931   0.359   3.664   7.555 -2.6638  2.0650  0.5612
  168SOPE   H6S18932   0.522   3.689   7.476  0.5455  0.7974  0.4858
  168SOPE   C2718933   0.462   3.840   7.623  0.0234 -0.5606  0.4057
  168SOPE   H7R18934   0.522   3.923   7.580 -0.4007 -0.5668 -0.2063
  168SOPE   H7S18935   0.371   3.893   7.662  2.0209  2.0872  1.8306
  168SOPE   C2818936   0.529   3.776   7.745 -0.1867 -0.0376 -0.1063
  168SOPE   H8R18937   0.501   3.668   7.743  2.5541 -0.8264  0.2879
  168SOPE   H8S18938   0.637   3.757   7.727 -0.1658  0.0125 -0.0352
  168SOPE   C2918939   0.507   3.851   7.873 -0.0036 -0.5512 -0.1186
  168SOPE   H9118940   0.527   3.959   7.869  1.2216 -0.6797  1.4550
  168SOPE  C21018941   0.452   3.806   7.985  0.2357  0.0288  0.0653
  168SOPE  H10118942   0.423   3.876   8.065  1.0697  2.9506 -2.0198
  168SOPE  C21118943   0.415   3.663   8.013  0.6332  0.4989 -0.2505
  168SOPE  H11R18944   0.452   3.592   7.936  1.7203  2.9163 -2.1078
  168SOPE  H11S18945   0.305   3.646   8.013  0.9708 -2.2544  0.9038
  168SOPE  C21218946   0.477   3.609   8.143 -0.2100 -0.1177  0.0511
  168SOPE  H12R18947   0.588   3.608   8.136 -0.1822  2.6017 -1.0407
  168SOPE  H12S18948   0.435   3.507   8.158 -0.1106 -0.4669 -1.8756
  168SOPE  C21318949   0.424   3.692   8.270 -0.3132  0.1776  0.7307
  168SOPE  H13R18950   0.313   3.697   8.273 -0.3197  4.7162 -0.2101
  168SOPE  H13S18951   0.464   3.795   8.260  1.1182 -0.4080  0.1697
  168SOPE  C21418952   0.479   3.648   8.409  0.1152 -0.5116  0.2818
  168SOPE  H14R18953   0.590   3.654   8.408  0.1458 -0.7505 -2.1272
  168SOPE  H14S18954   0.453   3.540   8.417  1.5059 -0.8575  0.3970
  168SOPE  C21518955   0.414   3.728   8.532  0.4312  0.0646 -0.0088
  168SOPE  H15R18956   0.307   3.698   8.528  0.6185 -0.7789  1.0521
  168SOPE  H15S18957   0.428   3.838   8.520  1.9272 -0.2053 -0.9587
  168SOPE  C21618958   0.467   3.673   8.667 -0.0544  0.5776 -0.2610
  168SOPE  H16R18959   0.420   3.576   8.690  1.4329 -0.4503 -1.3519
  168SOPE  H16S18960   0.415   3.733   8.745  1.0501  1.6777 -0.3355
  168SOPE  C21718961   0.618   3.693   8.692 -0.0373  0.1560 -0.3911
  168SOPE  H17R18962   0.640   3.802   8.688 -0.2358  0.2270  0.3314
  168SOPE  H17S18963   0.670   3.640   8.609  1.2704 -0.8751  1.0273
  168SOPE  C21818964   0.678   3.635   8.823  0.1961  0.0471 -0.5219
  168SOPE  H18R18965   0.632   3.678   8.915  0.7532  2.4889 -1.3080
  168SOPE  H18S18966   0.786   3.660   8.827  0.9475 -2.7464 -1.1064
  168SOPE  H18T18967   0.658   3.527   8.810  1.0296 -0.3288  1.0747
  168SOPE   C3318968  -0.203   3.486   7.172  0.1592 -0.2445  0.3268
  168SOPE   H3X18969  -0.149   3.397   7.134 -1.4450 -0.5377 -1.4073
  168SOPE   H3Y18970  -0.284   3.452   7.241 -1.3906 -1.1709 -1.8364
  168SOPE   C3418971  -0.117   3.577   7.247  0.0269  0.9128  0.1419
  168SOPE   H4X18972  -0.183   3.660   7.281 -0.7086  2.1588 -3.7800
  168SOPE   H4Y18973  -0.030   3.623   7.195 -0.3266  0.1170 -1.2126
  168SOPE   C3518974  -0.056   3.519   7.375 -0.1765 -0.3900 -0.0229
  168SOPE   H5X18975   0.026   3.445   7.359 -0.2025 -0.1608 -1.3159
  168SOPE   H5Y18976  -0.143   3.466   7.419 -0.3228  1.6564  2.4333
  168SOPE   C3618977  -0.018   3.620   7.489 -0.1539  0.0991  1.0526
  168SOPE   H6X18978  -0.111   3.664   7.530  0.0217  0.1188  1.4283
  168SOPE   H6Y18979   0.047   3.695   7.439  0.7946 -0.4649  1.4122
  168SOPE   C3718980   0.036   3.546   7.611  0.3742 -0.0065  0.3464
  168SOPE   H7X18981   0.138   3.508   7.591 -0.6170 -2.7713  0.2305
  168SOPE   H7Y18982  -0.026   3.456   7.628  0.6714 -0.1783  0.5099
  168SOPE   C3818983   0.042   3.628   7.742  0.1033 -1.1732  0.1980
  168SOPE   H8X18984  -0.058   3.673   7.761 -0.1435 -2.1799  1.4374
  168SOPE   H8Y18985   0.114   3.711   7.731 -0.6315 -0.6470 -0.7941
  168SOPE   C3918986   0.061   3.540   7.867 -0.0546  0.3529  0.0125
  168SOPE   H9X18987   0.166   3.506   7.879 -0.3643 -0.8364 -0.4515
  168SOPE   H9Y18988  -0.007   3.453   7.853  3.1155 -2.2248 -0.5087
  168SOPE  C31018989   0.019   3.616   7.992 -0.5907  0.5777 -0.4112
  168SOPE  H10X18990  -0.092   3.613   7.990 -0.6301  1.9713 -1.3764
  168SOPE  H10Y18991   0.055   3.721   7.992 -0.9613  0.7738 -2.9338
  168SOPE  C31118992   0.067   3.535   8.122  0.4338 -0.4915  0.8566
  168SOPE  H11X18993   0.177   3.520   8.123  0.2646 -1.9302  0.3832
  168SOPE  H11Y18994   0.021   3.434   8.111 -1.1134  0.0873  1.6063
  168SOPE  C31218995   0.023   3.613   8.249  0.2834  0.0683 -0.2576
  168SOPE  H12X18996  -0.087   3.627   8.239  0.0943 -1.6877 -0.9654
  168SOPE  H12Y18997   0.082   3.707   8.250 -0.4154  0.5479 -1.4848
  168SOPE  C31318998   0.054   3.529   8.375 -0.1091  0.2655 -0.2844
  168SOPE  H13X18999   0.161   3.502   8.363  0.0872  1.4763 -1.4630
  168SOPE  H13Y19000  -0.000   3.432   8.376  0.1372  0.1277  0.3235
  168SOPE  C31419001   0.028   3.609   8.501  0.3458  0.1993 -0.5324
  168SOPE  H14X19002  -0.081   3.634   8.500  0.3262  0.1025 -1.0986
  168SOPE  H14Y19003   0.096   3.697   8.501  2.2126 -1.1742  0.6930
  168SOPE  C31519004   0.073   3.547   8.633  0.5627 -0.0194 -0.6509
  168SOPE  H15X19005   0.165   3.488   8.618 -0.2888 -1.5841  0.0270
  168SOPE  H15Y19006  -0.002   3.469   8.659 -0.0591  0.7298 -0.1567
  168SOPE  C31619007   0.070   3.647   8.749 -0.6035 -0.0295 -0.6079
  168SOPE  H16X19008  -0.026   3.702   8.756 -0.2251  0.7253 -1.2312
  168SOPE  H16Y19009   0.141   3.730   8.728  0.8749 -0.5622  1.9489
  168SOPE  C31719010   0.101   3.583   8.885 -0.3950 -0.4162  0.4873
  168SOPE  H17X19011   0.210   3.565   8.900 -0.4034 -0.7036  0.2098
  168SOPE  H17Y19012   0.044   3.488   8.898 -0.5873 -0.1898  1.4132
  168SOPE  C31819013   0.046   3.684   8.997  0.1720  0.3962  0.0245
  168SOPE  H18X19014   0.059   3.641   9.098 -2.1320 -1.4376 -0.3717
  168SOPE  H18Y19015  -0.060   3.688   8.966 -0.0219 -0.0183  0.6223
  168SOPE  H18Z19016   0.097   3.781   8.981  4.2632 -1.4829  0.2800
  169SOPE     N19017   3.802   6.177   6.646  0.4729  0.0101 -0.9338
  169SOPE   HN119018   3.895   6.132   6.663  1.7613  2.7161 -0.2023
  169SOPE   HN219019   3.745   6.144   6.726  0.5163  2.2004  0.0867
  169SOPE   HN319020   3.765   6.147   6.554  0.6965  1.4753 -1.5260
  169SOPE   C1219021   3.828   6.325   6.647  0.0093  0.2939  0.2615
  169SOPE  H12A19022   3.738   6.379   6.683 -0.2395  0.2236 -0.2424
  169SOPE  H12B19023   3.833   6.355   6.540 -0.8433 -2.5792 -0.6536
  169SOPE   C1119024   3.945   6.375   6.736  0.0746 -0.2143  0.7072
  169SOPE  H11A19025   3.915   6.365   6.843 -4.1365  1.2914 -0.1479
  169SOPE  H11B19026   3.959   6.484   6.722  0.8255 -0.5332 -1.3304
  169SOPE     P19027   4.123   6.184   6.765  0.5590 -0.0498  0.0092
  169SOPE   O1319028   4.224   6.133   6.674 -0.1747  0.0942 -0.8411
  169SOPE   O1419029   4.014   6.094   6.803 -0.0752 -0.2282  0.2693
  169SOPE   O1219030   4.068   6.310   6.696 -0.2567  0.3246 -0.3300
  169SOPE   O1119031   4.188   6.244   6.888 -0.0541  0.1673  0.9739
  169SOPE    C119032   4.284   6.348   6.876  0.5734 -0.6951 -0.5330
  169SOPE    HA19033   4.247   6.447   6.840  0.0395 -0.6408  0.1482
  169SOPE    HB19034   4.366   6.308   6.811  0.7157  2.6742 -2.6941
  169SOPE    C219035   4.353   6.383   7.017 -0.0294  0.7191  0.7586
  169SOPE    HS19036   4.432   6.306   7.024 -0.7519 -0.1308 -0.1095
  169SOPE   O2119037   4.253   6.378   7.121 -0.0389  0.0088  0.6448
  169SOPE   C2119038   4.268   6.291   7.216 -0.2306 -0.2084 -0.3233
  169SOPE   O2219039   4.350   6.202   7.229 -0.1536 -0.3257  0.4611
  169SOPE   C2219040   4.166   6.334   7.326  0.6137 -0.2840 -0.3240
  169SOPE   H2R19041   4.117   6.422   7.278  0.1568  0.5891  1.6368
  169SOPE   H2S19042   4.215   6.342   7.426 -0.3145  0.2269  0.1013
  169SOPE    C319043   4.421   6.525   7.024  0.7095  0.4907  0.0289
  169SOPE    HX19044   4.341   6.596   6.994  0.4048  0.4132  0.6452
  169SOPE    HY19045   4.508   6.523   6.955 -0.0468  2.4806 -1.0792
  169SOPE   O3119046   4.472   6.560   7.158 -0.3224  0.1368  0.3246
  169SOPE   C3119047   4.519   6.683   7.173  0.7243  0.3390  0.1460
  169SOPE   O3219048   4.536   6.757   7.080  0.2401  0.5245  0.5261
  169SOPE   C3219049   4.530   6.719   7.322 -0.5807  0.3007 -0.1081
  169SOPE   H2X19050   4.483   6.815   7.349 -1.9491 -0.3628 -0.0562
  169SOPE   H2Y19051   4.640   6.717   7.339  0.3353  2.1192 -4.5108
  169SOPE   C2319052   4.038   6.244   7.338  0.0109 -0.2473 -0.3698
  169SOPE   H3R19053   4.065   6.136   7.340 -1.6774 -0.7992 -2.7842
  169SOPE   H3S19054   3.978   6.260   7.246  1.2349 -1.2499 -1.3815
  169SOPE   C2419055   3.937   6.280   7.452  0.1877 -0.3266  0.1391
  169SOPE   H4R19056   3.908   6.387   7.442 -0.6339 -0.3677  1.7018
  169SOPE   H4S19057   3.849   6.216   7.428 -0.7567  0.5496  1.1878
  169SOPE   C2519058   3.988   6.264   7.600  0.1677  0.4847 -0.4746
  169SOPE   H5R19059   4.014   6.157   7.611 -1.9876 -0.0262  0.2823
  169SOPE   H5S19060   4.074   6.333   7.611  0.6541 -0.1872  0.0282
  169SOPE   C2619061   3.881   6.292   7.706 -0.3717  0.1563 -0.1895
  169SOPE   H6R19062   3.858   6.398   7.729  2.5603  0.1753  3.7631
  169SOPE   H6S19063   3.785   6.241   7.686 -0.9586  0.0505  2.5024
  169SOPE   C2719064   3.940   6.242   7.840  0.1511 -0.4097  0.4289
  169SOPE   H7R19065   3.965   6.135   7.826  1.0395 -0.0029 -1.3595
  169SOPE   H7S19066   4.034   6.292   7.872 -0.0476 -0.6396  1.4227
  169SOPE   C2819067   3.834   6.242   7.947 -0.1073 -0.2540  0.7539
  169SOPE   H8R19068   3.737   6.215   7.900  0.9459 -1.3831 -0.8993
  169SOPE   H8S19069   3.860   6.159   8.016 -2.7690 -0.3673  1.7298
  169SOPE   C2919070   3.814   6.367   8.027  0.4227  0.2861 -0.0437
  169SOPE   H9119071   3.810   6.454   7.960 -1.0565 -1.6269 -2.6185
  169SOPE  C21019072   3.817   6.389   8.160  0.4894 -0.1312  0.5001
  169SOPE  H10119073   3.800   6.488   8.204  1.6083  0.9367 -1.3396
  169SOPE  C21119074   3.844   6.288   8.267  0.9206 -0.3158 -0.2355
  169SOPE  H11R19075   3.882   6.190   8.230  0.7089  0.3127 -2.2431
  169SOPE  H11S19076   3.751   6.258   8.320  0.6900 -1.5804 -1.3024
  169SOPE  C21219077   3.938   6.348   8.373  0.2444  0.9331  0.0691
  169SOPE  H12R19078   3.898   6.440   8.420 -3.0673 -1.5271  2.6624
  169SOPE  H12S19079   4.036   6.369   8.326  0.3936 -0.4062 -0.2656
  169SOPE  C21319080   3.949   6.239   8.487  0.1837 -0.0181 -0.3348
  169SOPE  H13R19081   4.028   6.275   8.556  2.1016 -2.8443 -0.9155
  169SOPE  H13S19082   3.986   6.141   8.449  1.3854 -0.4504  1.8281
  169SOPE  C21419083   3.820   6.221   8.569  0.3487 -0.5275  0.2084
  169SOPE  H14R19084   3.839   6.150   8.652  1.3252 -1.2401 -0.6011
  169SOPE  H14S19085   3.736   6.176   8.511 -0.9998 -1.7573  2.9073
  169SOPE  C21519086   3.774   6.357   8.630  0.7268 -0.6899  0.0757
  169SOPE  H15R19087   3.745   6.416   8.541 -0.1079 -0.7655  0.2903
  169SOPE  H15S19088   3.861   6.412   8.672  1.2917  0.1154 -2.0290
  169SOPE  C21619089   3.653   6.334   8.720 -0.2488 -0.6949  0.3038
  169SOPE  H16R19090   3.672   6.263   8.803  0.4761 -0.3928  0.4022
  169SOPE  H16S19091   3.572   6.286   8.661 -1.3264  2.2076 -0.7817
  169SOPE  C21719092   3.599   6.469   8.775 -0.4447  0.1549 -0.4739
  169SOPE  H17R19093   3.623   6.545   8.697 -1.1769 -2.0136 -2.9368
  169SOPE  H17S19094   3.647   6.496   8.871 -2.9209  2.4909  0.2520
  169SOPE  C21819095   3.458   6.473   8.816  0.2804  0.2764 -0.2348
  169SOPE  H18R19096   3.389   6.450   8.733  0.5513 -1.8719  0.0609
  169SOPE  H18S19097   3.438   6.579   8.843  1.8267  0.5164  0.0877
  169SOPE  H18T19098   3.429   6.414   8.906  1.0630 -3.4115 -2.2229
  169SOPE   C3319099   4.452   6.610   7.409 -0.2537  0.4938 -0.4518
  169SOPE   H3X19100   4.485   6.506   7.391  1.0583  0.2301  2.8875
  169SOPE   H3Y19101   4.342   6.609   7.390 -0.1958 -0.1483 -0.7825
  169SOPE   C3419102   4.464   6.634   7.562  0.3752 -0.7860 -0.3521
  169SOPE   H4X19103   4.411   6.729   7.589  2.4216  0.2218  0.3101
  169SOPE   H4Y19104   4.571   6.628   7.592 -0.0658 -1.1039  1.2926
  169SOPE   C3519105   4.390   6.527   7.639 -0.0861 -0.4518  0.4328
  169SOPE   H5X19106   4.425   6.436   7.586 -0.5445 -0.8767  0.8453
  169SOPE   H5Y19107   4.280   6.530   7.624 -0.1581  1.5225  1.0021
  169SOPE   C3619108   4.415   6.522   7.790 -0.7678 -0.1971 -0.3131
  169SOPE   H6X19109   4.401   6.616   7.847 -0.2640 -0.3922  0.1393
  169SOPE   H6Y19110   4.521   6.490   7.802 -1.6271 -3.4022 -0.1786
  169SOPE   C3719111   4.327   6.401   7.844  0.1472  0.0497 -0.3058
  169SOPE   H7X19112   4.361   6.310   7.789 -0.2644 -0.6142  0.5178
  169SOPE   H7Y19113   4.223   6.418   7.810 -0.0879  0.6348  0.6668
  169SOPE   C3819114   4.353   6.380   7.996 -1.0449  0.2087 -0.0264
  169SOPE   H8X19115   4.289   6.293   8.026 -0.5339  0.7531  3.0095
  169SOPE   H8Y19116   4.457   6.345   8.009 -1.0211  0.2037 -0.2272
  169SOPE   C3919117   4.320   6.497   8.091 -0.1577 -0.5783 -0.0006
  169SOPE   H9X19118   4.376   6.588   8.061  0.2002 -0.6311  0.4975
  169SOPE   H9Y19119   4.367   6.474   8.188  2.8090  0.1917 -1.1561
  169SOPE  C31019120   4.169   6.538   8.089  0.2442  0.0087  0.1027
  169SOPE  H10X19121   4.122   6.446   8.131  0.4676  0.3996  1.2533
  169SOPE  H10Y19122   4.135   6.554   7.985  1.3993 -0.7184 -0.4148
  169SOPE  C31119123   4.128   6.651   8.192  0.1516 -0.1530 -0.3013
  169SOPE  H11X19124   4.165   6.615   8.291  0.2901  3.7134  1.2255
  169SOPE  H11Y19125   4.018   6.659   8.185  0.2529  0.3775 -1.3956
  169SOPE  C31219126   4.178   6.794   8.174 -0.4475  0.3681  1.1808
  169SOPE  H12X19127   4.145   6.834   8.076  1.0861  3.3590  1.7801
  169SOPE  H12Y19128   4.288   6.793   8.190 -0.2393  1.3217 -0.0660
  169SOPE  C31319129   4.119   6.894   8.275 -0.2633 -0.1900 -0.9969
  169SOPE  H13X19130   4.143   6.863   8.379 -0.2196  1.7044 -0.4198
  169SOPE  H13Y19131   4.008   6.888   8.273 -0.3111 -0.5526  0.8545
  169SOPE  C31419132   4.148   7.032   8.240 -0.8792  0.3414  0.0666
  169SOPE  H14X19133   4.259   7.038   8.235 -0.4446 -4.0638  0.9326
  169SOPE  H14Y19134   4.116   7.104   8.318  1.5322  2.7664 -0.9719
  169SOPE  C31519135   4.071   7.082   8.116 -0.4013  0.8651  0.3399
  169SOPE  H15X19136   3.966   7.052   8.139 -0.0131 -0.4062  0.5458
  169SOPE  H15Y19137   4.105   7.024   8.028 -0.5615  0.6598  0.4109
  169SOPE  C31619138   4.089   7.229   8.087  0.3011 -0.0271 -0.4894
  169SOPE  H16X19139   4.198   7.244   8.075  0.4175  2.2638  2.3872
  169SOPE  H16Y19140   4.073   7.281   8.184  1.0483 -0.9540  0.1605
  169SOPE  C31719141   4.020   7.284   7.969  0.5997 -0.0511 -0.1797
  169SOPE  H17X19142   4.044   7.392   7.974 -0.1921  0.0844  1.4423
  169SOPE  H17Y19143   3.910   7.271   7.978  0.4916 -0.8509 -2.0588
  169SOPE  C31819144   4.053   7.200   7.847  0.4840  0.2155 -0.2652
  169SOPE  H18X19145   4.019   7.096   7.868  0.8610  0.0014 -0.7214
  169SOPE  H18Y19146   4.160   7.197   7.819  0.6521  1.0615  0.2393
  169SOPE  H18Z19147   3.995   7.231   7.758 -0.7788  0.3768  0.5799
  170SOPE     N19148   1.246   3.661   6.577 -0.4311  0.5932  0.0156
  170SOPE   HN119149   1.225   3.749   6.526  0.0790  0.6319 -0.1342
  170SOPE   HN219150   1.277   3.588   6.509  0.6100  2.1025 -1.2033
  170SOPE   HN319151   1.162   3.628   6.630 -0.2282  1.5768  0.9653
  170SOPE   C1219152   1.345   3.686   6.683  0.4440  1.2639 -0.0742
  170SOPE  H12A19153   1.401   3.594   6.713  0.3356  1.0254 -0.5917
  170SOPE  H12B19154   1.292   3.715   6.777  0.3182 -1.8522  0.9368
  170SOPE   C1119155   1.437   3.802   6.641 -0.3008  0.2034  0.3452
  170SOPE  H11A19156   1.509   3.756   6.571  0.2776 -0.1074  1.1252
  170SOPE  H11B19157   1.504   3.833   6.725  0.3903 -1.2709  0.3738
  170SOPE     P19158   1.368   4.058   6.606 -0.3261 -0.1537 -0.1469
  170SOPE   O1319159   1.241   4.112   6.557 -0.0470 -0.0311  0.1645
  170SOPE   O1419160   1.497   4.098   6.546  0.0121  0.2235 -0.0001
  170SOPE   O1219161   1.356   3.902   6.590  0.0085 -1.0051  0.0311
  170SOPE   O1119162   1.374   4.066   6.759 -0.1926 -0.7693  0.9953
  170SOPE    C119163   1.275   4.136   6.835 -0.1369 -0.1999  0.0888
  170SOPE    HA19164   1.182   4.079   6.814  1.6819 -2.1517 -3.5310
  170SOPE    HB19165   1.279   4.241   6.801  0.6560 -0.4656 -0.6870
  170SOPE    C219166   1.297   4.127   6.990 -0.4317  1.1036  0.5742
  170SOPE    HS19167   1.198   4.143   7.038 -1.5435 -0.5745 -0.9997
  170SOPE   O2119168   1.397   4.213   7.037  0.2219  0.4727 -0.5231
  170SOPE   C2119169   1.376   4.338   7.026  0.2954 -0.5967  0.3061
  170SOPE   O2219170   1.270   4.398   7.011 -0.1021  0.3542  0.1181
  170SOPE   C2219171   1.519   4.408   7.026 -0.1298 -0.5383  0.2902
  170SOPE   H2R19172   1.503   4.518   7.036  0.5270 -0.5121  1.1728
  170SOPE   H2S19173   1.567   4.378   6.930  0.8772  1.4921  0.1002
  170SOPE    C319174   1.342   3.987   7.038  0.4576 -0.0027 -0.1257
  170SOPE    HX19175   1.444   3.963   7.002 -0.2262 -1.4868 -1.1864
  170SOPE    HY19176   1.275   3.910   6.994 -0.7921  0.9808 -0.0045
  170SOPE   O3119177   1.343   3.986   7.184  0.0139  0.4440  0.2334
  170SOPE   C3119178   1.321   3.878   7.244  0.3680 -0.0154 -0.5840
  170SOPE   O3219179   1.306   3.765   7.197  0.1086  0.0059  0.2632
  170SOPE   C3219180   1.327   3.912   7.393 -0.6709  0.0616 -0.0699
  170SOPE   H2X19181   1.230   3.957   7.424 -0.5086  0.1137  0.3708
  170SOPE   H2Y19182   1.403   3.991   7.415  2.7995 -2.7224 -1.0865
  170SOPE   C2319183   1.606   4.362   7.146  0.7022  0.1094  0.3410
  170SOPE   H3R19184   1.711   4.378   7.115  0.8556 -1.0804  0.1746
  170SOPE   H3S19185   1.596   4.254   7.171 -1.9592 -0.0661 -1.0570
  170SOPE   C2419186   1.573   4.435   7.280 -0.2856  0.7839 -0.2826
  170SOPE   H4R19187   1.655   4.421   7.354 -0.2834  0.7305 -0.2954
  170SOPE   H4S19188   1.568   4.544   7.264  1.0066  1.2167  1.8438
  170SOPE   C2519189   1.440   4.389   7.349 -0.1847 -0.3583 -0.2314
  170SOPE   H5R19190   1.355   4.378   7.277 -2.3443 -0.1905  2.1425
  170SOPE   H5S19191   1.457   4.290   7.396 -3.6055 -1.6450 -1.3612
  170SOPE   C2619192   1.411   4.498   7.459 -0.5231  0.0581 -0.1599
  170SOPE   H6R19193   1.503   4.483   7.520 -0.6615 -2.3120 -0.4402
  170SOPE   H6S19194   1.410   4.592   7.400 -0.9211 -0.5020 -1.0732
  170SOPE   C2719195   1.274   4.492   7.535 -0.4117 -0.3677 -0.4988
  170SOPE   H7R19196   1.274   4.556   7.627 -1.2118 -0.9547 -0.0822
  170SOPE   H7S19197   1.194   4.533   7.470  1.2966 -1.0742 -3.1760
  170SOPE   C2819198   1.245   4.344   7.570 -0.5617  0.3007  0.7318
  170SOPE   H8R19199   1.226   4.296   7.472  2.3383 -0.0403  0.2438
  170SOPE   H8S19200   1.344   4.305   7.604  0.0808 -0.4889 -1.7980
  170SOPE   C2919201   1.132   4.338   7.662 -0.5789  0.0700  0.1108
  170SOPE   H9119202   1.035   4.317   7.614  0.2768 -2.1670 -0.7856
  170SOPE  C21019203   1.139   4.346   7.795  0.2257  0.1939 -0.3885
  170SOPE  H10119204   1.047   4.321   7.850  1.1156 -0.1079  1.0291
  170SOPE  C21119205   1.273   4.342   7.879  0.2790  0.0941  0.1447
  170SOPE  H11R19206   1.300   4.441   7.921  1.0816  0.1930 -0.5748
  170SOPE  H11S19207   1.358   4.318   7.810 -0.0150 -0.5039 -0.0209
  170SOPE  C21219208   1.279   4.231   7.987 -0.9264  0.1803  0.5293
  170SOPE  H12R19209   1.374   4.226   8.043 -1.6971  0.7270  1.9427
  170SOPE  H12S19210   1.258   4.140   7.927  0.7172 -0.9538  1.6262
  170SOPE  C21319211   1.173   4.247   8.103 -0.1282 -0.5174  0.2230
  170SOPE  H13R19212   1.070   4.238   8.062  0.0705  1.9807 -0.9925
  170SOPE  H13S19213   1.185   4.346   8.150  1.1485 -1.4655  2.0140
  170SOPE  C21419214   1.195   4.130   8.214 -0.4821 -0.0113 -0.1389
  170SOPE  H14R19215   1.288   4.157   8.268 -0.7499  1.9705 -0.6098
  170SOPE  H14S19216   1.195   4.025   8.176 -0.9384 -0.4730  1.0802
  170SOPE  C21519217   1.080   4.126   8.318 -0.0319 -0.3420  0.3548
  170SOPE  H15R19218   0.998   4.065   8.275  0.1587  0.3015 -1.0015
  170SOPE  H15S19219   1.041   4.227   8.344  2.9836  0.5511  1.8673
  170SOPE  C21619220   1.112   4.040   8.442 -0.1238 -0.6616  0.0737
  170SOPE  H16R19221   1.152   3.948   8.394  1.6156 -0.2238  0.6279
  170SOPE  H16S19222   1.020   4.022   8.502  0.1250  0.4521  0.8215
  170SOPE  C21719223   1.222   4.098   8.538 -0.1330  0.0981  0.8525
  170SOPE  H17R19224   1.322   4.103   8.491 -1.6321  1.5998 -2.5740
  170SOPE  H17S19225   1.231   4.037   8.630  0.3107  1.6480  1.8822
  170SOPE  C21819226   1.202   4.242   8.578  0.2619 -0.2906  0.0290
  170SOPE  H18R19227   1.265   4.274   8.663  0.1077  1.0720 -0.3474
  170SOPE  H18S19228   1.098   4.267   8.608 -0.6304 -2.2960 -1.1722
  170SOPE  H18T19229   1.219   4.304   8.488 -1.3988 -1.6778 -1.3245
  170SOPE   C3319230   1.346   3.788   7.486 -0.4836  0.0266  0.1466
  170SOPE   H3X19231   1.335   3.694   7.427  0.8854  1.0849 -1.9719
  170SOPE   H3Y19232   1.265   3.802   7.560 -1.9978 -1.5584 -1.1102
  170SOPE   C3419233   1.484   3.791   7.556  0.5662 -0.3260  0.2806
  170SOPE   H4X19234   1.508   3.894   7.592  1.8525 -0.8378  0.9675
  170SOPE   H4Y19235   1.565   3.766   7.485  0.9177  2.1044 -0.2441
  170SOPE   C3519236   1.492   3.678   7.664  0.0715  0.6231 -0.0397
  170SOPE   H5X19237   1.586   3.620   7.662  0.2114  0.8495 -0.0971
  170SOPE   H5Y19238   1.403   3.615   7.646  0.7910 -0.0946 -1.1950
  170SOPE   C3619239   1.482   3.745   7.801 -0.1885  0.3756 -0.2451
  170SOPE   H6X19240   1.398   3.817   7.797  0.8107  1.5212 -1.4795
  170SOPE   H6Y19241   1.579   3.798   7.809 -0.5869  0.9004  1.7002
  170SOPE   C3719242   1.472   3.656   7.923 -0.4672  0.1515 -0.2665
  170SOPE   H7X19243   1.547   3.574   7.919 -2.2916 -1.5637 -0.4147
  170SOPE   H7Y19244   1.373   3.606   7.922  0.6544 -2.4238  2.8958
  170SOPE   C3819245   1.467   3.720   8.060  0.0987  0.7760 -0.4677
  170SOPE   H8X19246   1.390   3.801   8.067  0.4200  1.0019  0.7117
  170SOPE   H8Y19247   1.567   3.766   8.071 -0.6297  2.2225  0.4850
  170SOPE   C3919248   1.429   3.632   8.181  0.4897 -0.4786  0.4658
  170SOPE   H9X19249   1.332   3.582   8.165 -0.7899  2.2297 -0.8151
  170SOPE   H9Y19250   1.418   3.688   8.276 -1.1659  0.1814 -0.0892
  170SOPE  C31019251   1.546   3.536   8.215  0.9669 -0.0154 -0.0493
  170SOPE  H10X19252   1.629   3.601   8.249 -0.5035  1.1848  1.4380
  170SOPE  H10Y19253   1.565   3.478   8.122  0.6834 -0.6857  0.3007
  170SOPE  C31119254   1.514   3.448   8.340 -0.1242 -0.1789 -0.1384
  170SOPE  H11X19255   1.594   3.371   8.336  0.4310  0.3969 -0.4017
  170SOPE  H11Y19256   1.417   3.396   8.322  0.2926 -0.6066 -1.2674
  170SOPE  C31219257   1.515   3.523   8.476 -0.9245  0.5351  0.0071
  170SOPE  H12X19258   1.416   3.564   8.505  0.2355  1.6189  2.7650
  170SOPE  H12Y19259   1.595   3.600   8.479 -0.6702  0.2499  1.8722
  170SOPE  C31319260   1.559   3.436   8.601  0.2700  0.5492  0.1425
  170SOPE  H13X19261   1.613   3.500   8.674  1.0766  0.1563 -0.0965
  170SOPE  H13Y19262   1.640   3.377   8.552 -0.1935 -0.5354  0.6422
  170SOPE  C31419263   1.445   3.345   8.670 -0.1774 -0.2522 -0.7242
  170SOPE  H14X19264   1.409   3.264   8.602  1.6084 -1.8572  0.1326
  170SOPE  H14Y19265   1.364   3.413   8.701  0.0091 -0.3425 -0.0201
  170SOPE  C31519266   1.485   3.273   8.804 -0.0307 -0.3048 -0.2751
  170SOPE  H15X19267   1.483   3.346   8.888 -0.2455 -0.0471 -0.5020
  170SOPE  H15Y19268   1.587   3.230   8.794 -0.5685 -1.5701 -0.4672
  170SOPE  C31619269   1.384   3.168   8.839  0.0431 -0.8165 -0.2186
  170SOPE  H16X19270   1.370   3.108   8.747  1.8293  1.3210 -2.0084
  170SOPE  H16Y19271   1.285   3.215   8.857  0.0308 -1.3955  1.4079
  170SOPE  C31719272   1.433   3.086   8.952  0.4992 -0.2488 -0.3997
  170SOPE  H17X19273   1.447   3.156   9.037  0.7125  0.2824 -0.8678
  170SOPE  H17Y19274   1.536   3.046   8.941  0.1991 -0.7877 -1.3997
  170SOPE  C31819275   1.354   2.963   8.987 -0.9807  0.5058 -0.3719
  170SOPE  H18X19276   1.351   2.888   8.905  0.0113 -1.7854  1.5798
  170SOPE  H18Y19277   1.248   2.984   9.017 -0.5901  0.4796  1.1131
  170SOPE  H18Z19278   1.405   2.912   9.071 -2.2252 -1.4774 -0.7423
  171SOPE     N19279   6.379   5.746   6.402  0.2521 -0.6687  0.0253
  171SOPE   HN119280   6.457   5.785   6.346  0.0727 -0.2196  0.0877
  171SOPE   HN219281   6.401   5.645   6.416 -0.1494 -0.6760  0.6256
  171SOPE   HN319282   6.290   5.769   6.354  0.5704 -0.8078 -0.6436
  171SOPE   C1219283   6.384   5.790   6.541 -0.1338  0.8612 -0.8737
  171SOPE  H12A19284   6.482   5.774   6.590  0.2906 -0.7807 -2.1721
  171SOPE  H12B19285   6.307   5.734   6.599  1.0685  1.3062  1.2587
  171SOPE   C1119286   6.351   5.937   6.549 -0.1377  0.1502  0.1336
  171SOPE  H11A19287   6.356   5.969   6.655 -1.0912  4.1649 -0.8602
  171SOPE  H11B19288   6.247   5.966   6.521  0.2117 -0.1220 -1.5556
  171SOPE     P19289   6.445   6.166   6.481  0.0899  0.2445  0.2178
  171SOPE   O1319290   6.348   6.207   6.377  0.4344  0.5423 -0.3068
  171SOPE   O1419291   6.585   6.210   6.475  0.4718  0.2963  0.1279
  171SOPE   O1219292   6.448   6.010   6.479 -0.4255  0.6899  0.5204
  171SOPE   O1119293   6.390   6.208   6.619 -0.7204  0.3104  0.0063
  171SOPE    C119294   6.474   6.192   6.738  0.5352  1.4844 -0.1180
  171SOPE    HA19295   6.545   6.277   6.749  1.5768  0.7197 -0.7444
  171SOPE    HB19296   6.525   6.093   6.737  0.1624  1.2760  0.7616
  171SOPE    C219297   6.390   6.186   6.861  0.3824  0.1195 -0.1125
  171SOPE    HS19298   6.317   6.103   6.851 -1.4633  1.6560  0.2340
  171SOPE   O2119299   6.320   6.312   6.879  0.0798 -0.2895  0.7120
  171SOPE   C2119300   6.210   6.314   6.940 -0.0777 -0.9813  0.4203
  171SOPE   O2219301   6.150   6.214   6.975  0.5277 -0.3255  0.1998
  171SOPE   C2219302   6.150   6.455   6.957 -0.0674 -0.5747  0.1167
  171SOPE   H2R19303   6.095   6.474   6.862 -0.3101  1.2617  0.5875
  171SOPE   H2S19304   6.234   6.527   6.967 -1.5712  1.1475  0.9800
  171SOPE    C319305   6.479   6.158   6.985  0.4956  0.0329 -0.4883
  171SOPE    HX19306   6.538   6.253   6.987 -3.2539  2.6248  2.6796
  171SOPE    HY19307   6.543   6.069   6.969 -1.4953 -1.6261  0.3395
  171SOPE   O3119308   6.408   6.146   7.108  0.3807 -1.0346  0.1734
  171SOPE   C3119309   6.345   6.033   7.144  0.5793  0.4931 -0.3449
  171SOPE   O3219310   6.352   5.927   7.077 -0.0425 -0.6100  0.3487
  171SOPE   C3219311   6.253   6.061   7.266 -0.0701 -0.2060  1.2233
  171SOPE   H2X19312   6.151   6.034   7.231 -0.0064  1.7599 -0.6312
  171SOPE   H2Y19313   6.263   6.168   7.293 -2.4776 -0.0083  1.6350
  171SOPE   C2319314   6.050   6.473   7.078 -0.7107  0.2388 -0.2698
  171SOPE   H3R19315   5.975   6.392   7.064  1.7691 -2.1530 -0.5985
  171SOPE   H3S19316   5.984   6.562   7.091  0.9202  1.4290  0.1692
  171SOPE   C2419317   6.121   6.451   7.213  0.3917 -0.2032  0.0389
  171SOPE   H4R19318   6.186   6.360   7.211 -1.7298 -1.8169  0.8412
  171SOPE   H4S19319   6.190   6.537   7.222  0.2738 -0.2270  1.3469
  171SOPE   C2519320   6.026   6.452   7.338  0.4249  0.2565 -0.3566
  171SOPE   H5R19321   5.963   6.543   7.343  0.1144 -0.0137  2.1286
  171SOPE   H5S19322   5.958   6.367   7.318  0.0280  0.7500 -1.1686
  171SOPE   C2619323   6.097   6.445   7.473 -0.7142 -0.3831 -0.5274
  171SOPE   H6R19324   6.159   6.353   7.485 -1.6751 -1.1673 -1.3477
  171SOPE   H6S19325   6.162   6.533   7.492 -0.5547 -0.9416  1.7415
  171SOPE   C2719326   5.995   6.424   7.589 -0.9608 -0.0298 -0.1445
  171SOPE   H7R19327   5.927   6.511   7.594 -1.1569 -0.2155  0.4217
  171SOPE   H7S19328   5.932   6.336   7.564 -0.0435 -0.8903  0.4844
  171SOPE   C2819329   6.061   6.388   7.726 -0.7088  0.5982 -0.6851
  171SOPE   H8R19330   5.989   6.322   7.779  0.5001 -0.0529  0.1835
  171SOPE   H8S19331   6.152   6.326   7.711 -0.0724  1.3146  0.1509
  171SOPE   C2919332   6.109   6.510   7.801  0.3952  0.5543  0.3590
  171SOPE   H9119333   6.140   6.598   7.744 -3.2383  1.8972  0.1577
  171SOPE  C21019334   6.109   6.501   7.933 -0.4779 -0.4594 -0.2575
  171SOPE  H10119335   6.144   6.590   7.987 -3.6667 -0.4034  1.9895
  171SOPE  C21119336   6.058   6.391   8.026 -0.5432 -0.0185  0.3972
  171SOPE  H11R19337   6.059   6.295   7.968  2.6792  0.7761 -1.0848
  171SOPE  H11S19338   5.951   6.408   8.049 -1.1188 -1.9350 -0.6173
  171SOPE  C21219339   6.144   6.364   8.153  0.2532 -0.0941  0.0579
  171SOPE  H12R19340   6.161   6.459   8.210  0.2809  1.4961 -2.4434
  171SOPE  H12S19341   6.249   6.347   8.122 -0.0095 -1.9963  0.1305
  171SOPE  C21319342   6.093   6.265   8.253  0.5331  0.2333  0.3629
  171SOPE  H13R19343   6.082   6.171   8.195 -2.0110 -0.0411  1.1975
  171SOPE  H13S19344   5.987   6.285   8.279 -0.0147 -0.9782 -0.8298
  171SOPE  C21419345   6.194   6.240   8.369 -0.2479  0.5928  0.2767
  171SOPE  H14R19346   6.185   6.319   8.446  1.8158  0.2570  0.9295
  171SOPE  H14S19347   6.299   6.246   8.332 -0.8460  2.2674 -1.2910
  171SOPE  C21519348   6.167   6.112   8.435 -0.8495  0.3971 -0.8912
  171SOPE  H15R19349   6.177   6.023   8.369  1.6271  1.1532 -1.6161
  171SOPE  H15S19350   6.068   6.103   8.485  0.3837  0.7188  1.7620
  171SOPE  C21619351   6.275   6.067   8.535 -0.4521  0.3746 -0.6148
  171SOPE  H16R19352   6.378   6.066   8.491  1.1204 -1.0889  2.7571
  171SOPE  H16S19353   6.252   5.969   8.583 -0.5851  1.5100  1.7367
  171SOPE  C21719354   6.284   6.157   8.655  0.3643  0.7218 -0.4803
  171SOPE  H17R19355   6.179   6.166   8.691  0.4134  0.6768 -0.3277
  171SOPE  H17S19356   6.317   6.259   8.625 -1.2911  1.1721 -0.8785
  171SOPE  C21819357   6.368   6.097   8.770  0.6057  0.0840  0.4810
  171SOPE  H18R19358   6.475   6.119   8.751  0.6571  0.8163  1.5817
  171SOPE  H18S19359   6.357   5.987   8.781  3.1901 -0.1206  1.8799
  171SOPE  H18T19360   6.338   6.140   8.867 -0.3641 -0.3158  0.3659
  171SOPE   C3319361   6.302   5.991   7.399  0.8325 -0.5654 -0.0417
  171SOPE   H3X19362   6.270   6.055   7.484  0.6342  2.5344 -2.2943
  171SOPE   H3Y19363   6.412   6.001   7.400  0.7287  1.2377  2.5694
  171SOPE   C3419364   6.260   5.854   7.416  0.2798  0.6323 -0.4112
  171SOPE   H4X19365   6.278   5.794   7.325 -0.5505  0.3979 -0.4289
  171SOPE   H4Y19366   6.150   5.860   7.433  0.3886 -1.2192  1.3043
  171SOPE   C3519367   6.310   5.769   7.539  0.1404 -0.9484 -0.1445
  171SOPE   H5X19368   6.281   5.820   7.634  1.9112 -0.3916  0.1533
  171SOPE   H5Y19369   6.422   5.769   7.541  0.1450 -0.4785 -0.1538
  171SOPE   C3619370   6.241   5.635   7.562 -0.6686  0.7186 -0.6509
  171SOPE   H6X19371   6.239   5.587   7.462 -1.0080 -0.1239 -0.2447
  171SOPE   H6Y19372   6.132   5.656   7.577 -0.8169 -0.3804 -0.1249
  171SOPE   C3719373   6.295   5.560   7.683 -0.2756 -0.0875 -0.0456
  171SOPE   H7X19374   6.223   5.477   7.693  0.2333 -0.4027  1.1971
  171SOPE   H7Y19375   6.281   5.613   7.779 -0.7989 -2.3805  1.2089
  171SOPE   C3819376   6.437   5.511   7.674 -0.1635 -0.5713 -0.4013
  171SOPE   H8X19377   6.503   5.601   7.670 -0.6604 -0.1844 -0.1099
  171SOPE   H8Y19378   6.461   5.447   7.587 -0.0774 -1.8741  0.5638
  171SOPE   C3919379   6.486   5.428   7.794  0.0469  0.0381  0.1601
  171SOPE   H9X19380   6.594   5.406   7.777 -0.3952 -3.7834  1.5266
  171SOPE   H9Y19381   6.431   5.334   7.776  0.3328  0.2043 -1.7543
  171SOPE  C31019382   6.461   5.473   7.937  0.2996 -0.4161  0.2795
  171SOPE  H10X19383   6.352   5.479   7.957  0.3563  1.0758  0.2377
  171SOPE  H10Y19384   6.491   5.580   7.942  4.2716 -1.3934  0.7989
  171SOPE  C31119385   6.541   5.390   8.049 -0.1482 -0.1977 -0.8204
  171SOPE  H11X19386   6.648   5.381   8.023  0.3031  1.5532  0.2629
  171SOPE  H11Y19387   6.506   5.285   8.054  0.6797 -0.5080 -1.4608
  171SOPE  C31219388   6.530   5.455   8.189  0.5253 -0.4624  0.1073
  171SOPE  H12X19389   6.426   5.491   8.205  0.6969  0.9149 -1.5658
  171SOPE  H12Y19390   6.605   5.537   8.186  1.2350 -1.1169 -0.3895
  171SOPE  C31319391   6.567   5.370   8.312 -0.4327 -0.8017 -0.4032
  171SOPE  H13X19392   6.667   5.324   8.295 -0.6492 -1.4164 -0.0560
  171SOPE  H13Y19393   6.493   5.289   8.330 -1.4685  0.6221  2.0818
  171SOPE  C31419394   6.560   5.468   8.436 -0.4168 -0.0623  0.5846
  171SOPE  H14X19395   6.504   5.560   8.409 -0.3575 -0.4638 -1.0378
  171SOPE  H14Y19396   6.664   5.503   8.454 -0.4253  0.2251  0.0970
  171SOPE  C31519397   6.498   5.406   8.554 -0.1294 -0.2274  0.5464
  171SOPE  H15X19398   6.567   5.323   8.579  0.4833  0.6667  1.9921
  171SOPE  H15Y19399   6.402   5.361   8.521  0.2698  1.6006 -3.7018
  171SOPE  C31619400   6.463   5.503   8.665 -0.4345  0.6951 -0.0789
  171SOPE  H16X19401   6.549   5.557   8.710 -0.6672  2.3288 -1.4846
  171SOPE  H16Y19402   6.421   5.438   8.746  0.2935 -2.8897 -2.3290
  171SOPE  C31719403   6.356   5.608   8.632  0.3989 -0.1996  0.4625
  171SOPE  H17X19404   6.268   5.552   8.593  0.5642 -0.7473  0.8682
  171SOPE  H17Y19405   6.399   5.678   8.557  0.4216 -0.9891 -0.2752
  171SOPE  C31819406   6.328   5.697   8.753  0.8785  0.2074 -0.1139
  171SOPE  H18X19407   6.267   5.637   8.823  0.0253  1.2071  0.0189
  171SOPE  H18Y19408   6.263   5.780   8.718  1.0746 -0.1279 -1.3465
  171SOPE  H18Z19409   6.419   5.721   8.811  0.8078 -2.8190  1.4669
  172SOPE     N19410   2.087   2.831   6.473 -0.1727 -0.0423  0.1874
  172SOPE   HN119411   2.140   2.773   6.405 -0.6896 -0.6656  0.3176
  172SOPE   HN219412   2.129   2.926   6.487 -0.0488  0.1511 -1.3655
  172SOPE   HN319413   2.106   2.771   6.555 -0.6963 -0.0560  0.2958
  172SOPE   C1219414   1.937   2.846   6.447 -0.0836 -0.5373 -0.5032
  172SOPE  H12A19415   1.896   2.743   6.440 -0.9315 -0.2618  0.3461
  172SOPE  H12B19416   1.928   2.894   6.347  1.9360  0.1786 -0.4009
  172SOPE   C1119417   1.879   2.933   6.551  0.1378 -0.5125  0.2533
  172SOPE  H11A19418   1.894   2.892   6.653  0.3336 -2.9580 -0.6953
  172SOPE  H11B19419   1.770   2.942   6.532  0.0946 -0.6130  0.4494
  172SOPE     P19420   1.880   3.203   6.573 -0.0759  0.3722 -0.4534
  172SOPE   O1319421   1.759   3.200   6.489 -0.5596  0.2923 -0.0585
  172SOPE   O1419422   1.977   3.313   6.543  0.2068  0.9420  0.2427
  172SOPE   O1219423   1.948   3.066   6.538  0.1570  0.0854 -0.7482
  172SOPE   O1119424   1.844   3.201   6.727  0.0530 -0.6011  0.4130
  172SOPE    C119425   1.743   3.294   6.770  0.3981 -0.0902 -0.7467
  172SOPE    HA19426   1.670   3.325   6.692  0.7373  0.2028 -0.9551
  172SOPE    HB19427   1.783   3.391   6.805 -2.1215 -0.6411  4.7065
  172SOPE    C219428   1.656   3.219   6.870 -0.1769  0.2797  0.1562
  172SOPE    HS19429   1.557   3.269   6.875 -0.5292 -0.3860 -0.0785
  172SOPE   O2119430   1.724   3.221   6.996  0.3470 -0.3587  0.6488
  172SOPE   C2119431   1.719   3.330   7.064  1.4681 -0.0432  0.4324
  172SOPE   O2219432   1.657   3.433   7.032 -0.3580 -0.1577 -0.5154
  172SOPE   C2219433   1.787   3.315   7.192  0.1314  0.1584 -0.6510
  172SOPE   H2R19434   1.894   3.291   7.172  0.8904  0.6594  2.3384
  172SOPE   H2S19435   1.743   3.231   7.249  2.1683 -0.3352  0.2956
  172SOPE    C319436   1.632   3.073   6.826 -0.0252 -0.3297  0.5276
  172SOPE    HX19437   1.732   3.028   6.842  0.9087  0.7319 -1.8871
  172SOPE    HY19438   1.610   3.081   6.718  1.6355  1.4104  0.2705
  172SOPE   O3119439   1.524   3.013   6.908  0.2726  0.5190  0.0823
  172SOPE   C3119440   1.398   3.048   6.864 -0.4732  0.5043  0.0756
  172SOPE   O3219441   1.372   3.121   6.774 -0.0323  0.0069 -0.4506
  172SOPE   C3219442   1.291   2.999   6.963 -0.1327 -0.3490  0.4595
  172SOPE   H2X19443   1.318   2.896   6.994 -1.5484 -1.1741 -0.8855
  172SOPE   H2Y19444   1.202   2.995   6.896  0.6849 -1.5664 -0.6051
  172SOPE   C2319445   1.784   3.441   7.279  0.1431  0.1056 -0.4563
  172SOPE   H3R19446   1.683   3.471   7.315 -0.3214 -0.0499 -1.5816
  172SOPE   H3S19447   1.835   3.533   7.241  0.8819  0.2596  0.8578
  172SOPE   C2419448   1.851   3.418   7.418 -0.2358 -0.0823 -0.0015
  172SOPE   H4R19449   1.959   3.393   7.410 -0.3224 -0.1649 -0.9853
  172SOPE   H4S19450   1.843   3.504   7.488  2.2923 -1.2670  1.8978
  172SOPE   C2519451   1.800   3.285   7.498  0.1104  0.4168 -0.2019
  172SOPE   H5R19452   1.690   3.291   7.511 -0.2661 -3.0724 -0.8139
  172SOPE   H5S19453   1.813   3.196   7.433  1.1824 -0.0772  0.6675
  172SOPE   C2619454   1.874   3.276   7.639  1.2270 -0.1069  0.1283
  172SOPE   H6R19455   1.981   3.304   7.625  1.2106  0.1022  0.4145
  172SOPE   H6S19456   1.836   3.356   7.706 -1.2666 -1.0200 -0.1136
  172SOPE   C2719457   1.845   3.136   7.705  0.1686 -0.1057  0.4532
  172SOPE   H7R19458   1.737   3.127   7.730  0.0874 -1.3068 -0.2554
  172SOPE   H7S19459   1.872   3.065   7.623  0.2114 -1.1453  1.3436
  172SOPE   C2819460   1.935   3.112   7.826  0.2869 -0.4473 -0.4105
  172SOPE   H8R19461   1.932   3.003   7.847 -1.3974 -0.0065  2.0613
  172SOPE   H8S19462   2.039   3.146   7.804 -0.6442  2.5539 -0.6449
  172SOPE   C2919463   1.883   3.189   7.944 -1.4378 -0.0377 -0.5073
  172SOPE   H9119464   1.828   3.280   7.919  1.2333  1.3286 -1.8641
  172SOPE  C21019465   1.928   3.156   8.069  0.0363 -0.0383  0.0850
  172SOPE  H10119466   1.887   3.213   8.154  1.3311 -0.7416  1.2320
  172SOPE  C21119467   2.029   3.053   8.116  0.3557 -0.8600 -0.7831
  172SOPE  H11R19468   2.109   3.098   8.179 -1.0905 -1.1180  1.3203
  172SOPE  H11S19469   2.092   3.026   8.028  2.6157  0.4433  0.3321
  172SOPE  C21219470   1.964   2.937   8.188  0.1154  0.5617 -0.0761
  172SOPE  H12R19471   2.029   2.849   8.164 -0.1039  0.7809 -1.6032
  172SOPE  H12S19472   1.863   2.920   8.144  0.5984  0.8333 -1.3276
  172SOPE  C21319473   1.937   2.955   8.335  0.1651 -0.0937  0.2094
  172SOPE  H13R19474   1.853   3.027   8.341 -1.1100 -1.4689 -0.2687
  172SOPE  H13S19475   2.027   2.991   8.388  0.1029  0.7307 -0.2385
  172SOPE  C21419476   1.883   2.821   8.394 -0.1567  0.5827  0.9321
  172SOPE  H14R19477   1.804   2.782   8.326 -0.9689  2.8000  0.5186
  172SOPE  H14S19478   1.832   2.848   8.489 -1.1107 -0.9177  0.8746
  172SOPE  C21519479   1.991   2.720   8.423  0.5680 -0.0749  0.5390
  172SOPE  H15R19480   2.090   2.748   8.383 -0.1060 -0.3121 -1.3609
  172SOPE  H15S19481   1.972   2.622   8.374 -0.9538  1.2260 -1.6520
  172SOPE  C21619482   1.981   2.670   8.570  0.0549 -0.5344  0.3870
  172SOPE  H16R19483   2.075   2.612   8.582  0.1100 -0.7285 -0.8270
  172SOPE  H16S19484   1.886   2.614   8.585 -0.9713  0.9919 -0.1825
  172SOPE  C21719485   1.979   2.777   8.682 -0.7194  0.7109  0.3624
  172SOPE  H17R19486   1.885   2.835   8.694 -0.0461  1.4675  2.4149
  172SOPE  H17S19487   2.058   2.849   8.652 -0.7578  0.1686 -1.1474
  172SOPE  C21819488   2.011   2.705   8.812  0.0321 -0.0350  0.5754
  172SOPE  H18R19489   1.933   2.627   8.827 -0.0786 -0.6212 -2.4630
  172SOPE  H18S19490   2.011   2.786   8.888  1.2483  3.2325 -2.6113
  172SOPE  H18T19491   2.111   2.657   8.815  0.6103  1.0095 -0.8458
  172SOPE   C3319492   1.262   3.107   7.068 -1.6935 -0.3155  0.8388
  172SOPE   H3X19493   1.172   3.084   7.129 -0.1874  1.8288  4.1976
  172SOPE   H3Y19494   1.244   3.212   7.034 -1.2563  0.4270  2.7385
  172SOPE   C3419495   1.382   3.129   7.165  0.5737  0.3965  0.9744
  172SOPE   H4X19496   1.452   3.194   7.109  0.7888 -0.5734  0.1025
  172SOPE   H4Y19497   1.428   3.031   7.189  1.4648  0.4963 -0.2305
  172SOPE   C3519498   1.335   3.199   7.290 -0.0035 -0.4835 -0.1642
  172SOPE   H5X19499   1.293   3.119   7.356  1.3708 -1.2310 -0.1701
  172SOPE   H5Y19500   1.264   3.282   7.267 -1.2470 -2.0779 -2.4924
  172SOPE   C3619501   1.451   3.266   7.356 -0.5749  0.1265 -0.1122
  172SOPE   H6X19502   1.493   3.338   7.282 -0.3011 -2.4401 -2.6128
  172SOPE   H6Y19503   1.534   3.197   7.382 -1.1215 -0.4337  0.1526
  172SOPE   C3719504   1.418   3.344   7.490 -0.4426 -0.4610 -0.0143
  172SOPE   H7X19505   1.328   3.403   7.463 -0.5612 -0.6098  0.0529
  172SOPE   H7Y19506   1.502   3.413   7.515 -0.5151 -0.2936 -0.2237
  172SOPE   C3819507   1.374   3.258   7.610 -0.1006 -0.5779 -0.3883
  172SOPE   H8X19508   1.449   3.178   7.629 -3.1196 -4.1299 -1.9795
  172SOPE   H8Y19509   1.279   3.202   7.591  0.1972 -0.4629 -2.4547
  172SOPE   C3919510   1.367   3.344   7.741  0.0684 -0.1383 -0.4491
  172SOPE   H9X19511   1.289   3.422   7.729  1.0131  1.4944  2.6891
  172SOPE   H9Y19512   1.463   3.400   7.752 -0.4723  0.6724  0.2901
  172SOPE  C31019513   1.343   3.259   7.871 -0.1328  0.0486 -0.1212
  172SOPE  H10X19514   1.285   3.170   7.837 -0.0965  0.1956 -0.5754
  172SOPE  H10Y19515   1.288   3.314   7.951  1.5067  2.0260 -0.2721
  172SOPE  C31119516   1.483   3.208   7.910  0.4678 -0.4291 -0.1844
  172SOPE  H11X19517   1.554   3.293   7.922  1.8310 -1.5529  0.0235
  172SOPE  H11Y19518   1.525   3.148   7.826  0.3720  0.5383 -0.9474
  172SOPE  C31219519   1.499   3.133   8.046 -0.3513  0.2016  0.0098
  172SOPE  H12X19520   1.482   3.199   8.133  0.4686 -0.4319  0.6656
  172SOPE  H12Y19521   1.599   3.084   8.051  0.7860  1.7149 -3.7131
  172SOPE  C31319522   1.400   3.020   8.063 -0.1345 -0.0891 -0.7135
  172SOPE  H13X19523   1.414   2.955   7.974 -0.5721  0.4905 -1.2200
  172SOPE  H13Y19524   1.293   3.049   8.061 -0.4794 -1.3470 -0.9038
  172SOPE  C31419525   1.427   2.937   8.195  0.2521 -0.1542  0.3874
  172SOPE  H14X19526   1.535   2.945   8.222 -0.5831  1.0059  3.7842
  172SOPE  H14Y19527   1.407   2.828   8.181 -0.9061  0.1425 -0.4036
  172SOPE  C31519528   1.359   2.991   8.318 -0.4231  0.5075  0.1420
  172SOPE  H15X19529   1.265   3.041   8.285  0.0705  0.7260 -0.9815
  172SOPE  H15Y19530   1.428   3.070   8.356  2.2108  0.2459 -3.5757
  172SOPE  C31619531   1.324   2.876   8.414 -0.1071 -0.0682 -0.0063
  172SOPE  H16X19532   1.408   2.858   8.484 -0.0789  0.1117  0.0070
  172SOPE  H16Y19533   1.305   2.779   8.364 -1.4667 -0.6279  1.5224
  172SOPE  C31719534   1.202   2.901   8.508 -0.6595 -0.8364 -0.7710
  172SOPE  H17X19535   1.112   2.898   8.444  0.4652  2.0674 -2.6873
  172SOPE  H17Y19536   1.203   3.002   8.553  0.6559 -0.9754 -0.4361
  172SOPE  C31819537   1.199   2.804   8.622 -0.6768 -0.0465 -0.0839
  172SOPE  H18X19538   1.213   2.697   8.596  0.5879 -0.5117  2.2158
  172SOPE  H18Y19539   1.106   2.814   8.682  0.2904 -2.3992  2.0035
  172SOPE  H18Z19540   1.277   2.827   8.697  0.0318 -1.7857 -0.2322
  173SAPI   C1219541   2.957   0.664  10.884  0.3722 -1.2577  0.3924
  173SAPI    H219542   2.986   0.716  10.790  1.4116  0.6681  1.7083
  173SAPI    O219543   2.814   0.647  10.882 -0.1084  0.8193  0.0364
  173SAPI   HO219544   2.771   0.724  10.844 -0.8794  0.2330 -0.3235
  173SAPI   C1319545   3.031   0.545  10.894 -0.4033  0.2142 -0.4501
  173SAPI    H319546   3.138   0.575  10.900 -0.4890  0.3015  1.2469
  173SAPI    O319547   3.019   0.474  10.773 -0.2628  0.4370  0.0015
  173SAPI   HO319548   2.928   0.452  10.756 -0.9881  3.7926 -1.2325
  173SAPI   C1419549   2.995   0.460  11.021  0.3488  0.4322 -0.1326
  173SAPI    H419550   2.885   0.444  11.015 -0.0957  1.1012  3.5547
  173SAPI    O419551   3.046   0.329  11.026 -0.3043  0.7037 -0.0010
  173SAPI   HO419552   2.971   0.271  11.012  0.0537  0.2655 -0.1383
  173SAPI   C1519553   3.026   0.544  11.148  0.5447 -0.1441  0.0740
  173SAPI    H519554   3.136   0.564  11.145  0.9033 -1.8630  0.5511
  173SAPI    O519555   3.005   0.472  11.268 -0.2748  0.3237 -0.1095
  173SAPI   HO519556   2.910   0.473  11.284 -0.6434  3.6952 -1.5597
  173SAPI   C1619557   2.957   0.685  11.138 -0.5404  0.3932  0.0064
  173SAPI    H619558   2.848   0.665  11.137 -0.4485 -0.1952 -2.1597
  173SAPI    O619559   2.990   0.767  11.242 -0.5874  0.0441  0.7276
  173SAPI   HO619560   3.035   0.847  11.214 -0.0158  0.3517  2.4643
  173SAPI   C1119561   2.988   0.752  11.004 -0.0671  0.9224 -0.1360
  173SAPI    H119562   3.100   0.752  11.003  0.0718 -3.0210 -1.0747
  173SAPI     P19563   2.982   1.025  11.023 -0.3095  0.2554 -0.0644
  173SAPI   O1319564   3.058   1.012  11.150  0.0924  0.0745 -0.3029
  173SAPI   O1419565   2.874   1.123  11.033 -0.4136 -0.1903  0.4000
  173SAPI   O1219566   2.921   0.881  10.987 -0.0121 -0.4025 -1.0104
  173SAPI   O1119567   3.081   1.058  10.900 -0.1348 -0.0268 -0.6550
  173SAPI    C119568   3.068   1.162  10.811 -0.4997 -0.1683 -0.5772
  173SAPI    HA19569   3.058   1.259  10.864  1.8366  0.4354 -1.1500
  173SAPI    HB19570   3.163   1.180  10.757  1.4090 -0.9751  2.3306
  173SAPI    C219571   2.963   1.130  10.702  0.5438 -0.2580 -0.1029
  173SAPI    HS19572   2.972   1.200  10.616 -1.6284  1.0085  0.6113
  173SAPI   O2119573   2.826   1.139  10.750  0.0489  0.1417  0.5821
  173SAPI   C2119574   2.781   1.261  10.784  0.9002 -0.3539 -0.3186
  173SAPI   O2219575   2.841   1.364  10.768  0.0852 -0.5163  0.2645
  173SAPI   C2219576   2.637   1.247  10.838  0.1905 -0.3124 -0.1613
  173SAPI   H2R19577   2.618   1.155  10.896 -0.5756  2.1028  3.8162
  173SAPI   H2S19578   2.613   1.333  10.905 -0.5549 -0.7418  0.1324
  173SAPI    C319579   2.996   0.989  10.643  0.2893 -0.3700 -0.1677
  173SAPI    HX19580   2.917   0.962  10.571 -1.2432  1.1275  0.8585
  173SAPI    HY19581   2.997   0.926  10.735  1.2435 -0.7679 -0.4428
  173SAPI   O3119582   3.136   0.991  10.583  1.1061  0.6598  0.4261
  173SAPI   C3119583   3.143   0.892  10.492 -0.9088  0.0058  0.3208
  173SAPI   O3219584   3.061   0.807  10.469 -0.0636  0.3359 -0.6624
  173SAPI   C3219585   3.281   0.909  10.431  0.3304 -0.3700  0.0611
  173SAPI   H2X19586   3.351   0.860  10.502 -0.8582  0.1423  1.6305
  173SAPI   H2Y19587   3.303   1.017  10.416  0.0470 -0.4833 -1.3608
  173SAPI   C2319588   2.534   1.234  10.728 -0.4410 -0.8111  0.2642
  173SAPI   H3R19589   2.431   1.230  10.768 -0.3516  1.1946  0.8376
  173SAPI   H3S19590   2.559   1.137  10.679 -1.4903 -0.6397 -0.6524
  173SAPI   C2419591   2.535   1.352  10.630  0.5343  0.1726 -0.1978
  173SAPI   H4R19592   2.637   1.389  10.608  0.8966  0.5262  1.8215
  173SAPI   H4S19593   2.479   1.430  10.686  0.1643 -1.5454  1.9744
  173SAPI   C2519594   2.460   1.307  10.517  0.0763  0.2320  0.3552
  173SAPI   H5R19595   2.356   1.277  10.536  0.7253 -1.9256  0.7642
  173SAPI   C2619596   2.494   1.291  10.389 -0.8706 -0.4939 -0.1266
  173SAPI   H6R19597   2.416   1.245  10.326 -3.1066  0.3054  1.9333
  173SAPI   C2719598   2.631   1.318  10.333  0.7307 -0.1935 -0.2627
  173SAPI   H7R19599   2.680   1.412  10.366  0.9293  0.1272 -1.3951
  173SAPI   H7S19600   2.613   1.345  10.226  1.0400  0.3085 -0.1928
  173SAPI   C2819601   2.721   1.197  10.348 -0.4979  0.4720 -0.4110
  173SAPI   H8R19602   2.723   1.151  10.448  0.9910  1.5725  0.0830
  173SAPI   C2919603   2.802   1.143  10.256  0.4362  0.1466 -0.1646
  173SAPI   H9R19604   2.861   1.052  10.276  0.3431 -0.6430 -3.0256
  173SAPI  C21019605   2.812   1.200  10.118  0.6361 -0.3684 -0.0020
  173SAPI  H10R19606   2.857   1.298  10.144 -0.1255 -0.1411  0.4792
  173SAPI  H10S19607   2.714   1.225  10.072  0.6783 -0.4490 -0.1345
  173SAPI  C21119608   2.901   1.130  10.015 -0.1328 -0.7843 -0.0740
  173SAPI  H11R19609   2.998   1.099  10.055  1.3222  0.5438 -2.3069
  173SAPI  C21219610   2.874   1.108   9.884  0.1419  0.0082  0.7810
  173SAPI  H12R19611   2.946   1.073   9.808 -2.5515  0.8464 -2.3660
  173SAPI  C21319612   2.750   1.150   9.807  1.1697  0.0809  0.0581
  173SAPI  H13R19613   2.760   1.258   9.787 -0.1212 -0.0107 -1.2078
  173SAPI  H13S19614   2.653   1.146   9.861  0.3837  0.0817 -1.2934
  173SAPI  C21419615   2.734   1.081   9.676 -0.2289 -0.4460  0.1111
  173SAPI  H14R19616   2.671   0.991   9.688  1.5840 -1.6079  1.3624
  173SAPI  C21519617   2.794   1.109   9.554 -0.4142  0.3001 -0.5945
  173SAPI  H15R19618   2.766   1.040   9.472 -2.5566 -1.8795  1.7808
  173SAPI  C21619619   2.890   1.223   9.528 -0.9254  0.1484  0.4450
  173SAPI  H16R19620   2.990   1.174   9.527  0.4299  2.5368 -2.8602
  173SAPI  H16S19621   2.872   1.304   9.602 -1.1371 -0.7410  1.3924
  173SAPI  C21719622   2.877   1.286   9.387  0.0193 -0.3805  0.2820
  173SAPI  H17R19623   2.957   1.362   9.374 -0.5140  0.4750  1.8871
  173SAPI  H17S19624   2.783   1.344   9.376 -1.9489 -3.2478  0.7535
  173SAPI  C21819625   2.886   1.187   9.272  0.2555 -0.1089  0.2057
  173SAPI  H18R19626   2.801   1.118   9.289 -0.8741  1.5081  1.4062
  173SAPI  H18S19627   2.972   1.117   9.266 -0.8115 -1.3952 -0.6948
  173SAPI  C21919628   2.882   1.263   9.140  0.3259  0.1880 -0.4148
  173SAPI  H19R19629   2.965   1.336   9.147  0.6512  0.0227 -1.9986
  173SAPI  H19S19630   2.781   1.308   9.134 -0.8814 -2.1048  1.1229
  173SAPI  C22019631   2.887   1.172   9.015 -0.0207 -0.7428  0.2099
  173SAPI  H20R19632   2.790   1.120   9.001 -0.4470  0.2777 -0.7833
  173SAPI  H20S19633   2.966   1.094   9.024  0.7676 -0.1556 -1.2041
  173SAPI  H20T19634   2.912   1.232   8.924 -0.7478 -1.8324 -0.7285
  173SAPI   C3319635   3.308   0.840  10.293  0.5400 -0.0353  0.1074
  173SAPI   H3X19636   3.280   0.733  10.281 -0.3877  0.1680  0.3723
  173SAPI   H3Y19637   3.415   0.851  10.268  0.6477 -0.6867  0.2715
  173SAPI   C3419638   3.241   0.910  10.173 -0.6789 -0.4697 -0.0816
  173SAPI   H4X19639   3.203   1.012  10.195 -1.0541 -0.4903 -0.6153
  173SAPI   H4Y19640   3.155   0.855  10.130 -0.4296 -0.1918 -0.9481
  173SAPI   C3519641   3.343   0.927  10.059  0.9656  0.3192  0.2209
  173SAPI   H5X19642   3.384   0.830  10.024  0.5217 -0.0031  0.5775
  173SAPI   H5Y19643   3.426   0.992  10.096  2.1212 -0.7731 -0.3723
  173SAPI   C3619644   3.267   0.988   9.938  0.3523 -0.0760  0.0409
  173SAPI   H6X19645   3.283   1.098   9.950 -3.2364  0.4179  1.7647
  173SAPI   H6Y19646   3.160   0.963   9.950 -0.1838  1.7958 -0.3877
  173SAPI   C3719647   3.301   0.926   9.807 -0.3579  0.5270 -0.6597
  173SAPI   H7X19648   3.297   0.815   9.811  0.6157  0.4231 -1.9245
  173SAPI   H7Y19649   3.409   0.948   9.794  0.2894 -1.4692  0.8235
  173SAPI   C3819650   3.215   0.971   9.692 -0.0817  0.6627  0.2462
  173SAPI   H8X19651   3.205   1.082   9.682  0.1572  0.6034 -0.6895
  173SAPI   H8Y19652   3.120   0.916   9.708  0.6598 -0.8290 -0.3637
  173SAPI   C3919653   3.262   0.908   9.560 -0.2876 -0.3422 -0.2685
  173SAPI   H9X19654   3.251   0.798   9.573 -2.0981  0.1250  3.9409
  173SAPI   H9Y19655   3.371   0.929   9.551 -0.6860  1.1866 -1.9761
  173SAPI  C31019656   3.202   0.967   9.436 -0.4522 -0.5442 -0.5051
  173SAPI  H10X19657   3.202   1.078   9.439 -1.9514 -0.5458  1.4152
  173SAPI  H10Y19658   3.093   0.948   9.439 -0.8575  1.5913  2.1195
  173SAPI  C31119659   3.264   0.903   9.307  0.7621  0.5285 -0.8938
  173SAPI  H11X19660   3.250   0.793   9.303  0.5465  0.4535  1.0244
  173SAPI  H11Y19661   3.374   0.923   9.307  0.7899  0.6647  1.4842
  173SAPI  C31219662   3.203   0.961   9.177  0.7211 -0.4165  0.9093
  173SAPI  H12X19663   3.229   1.068   9.180  2.1201 -0.7505  1.4171
  173SAPI  H12Y19664   3.092   0.953   9.176  0.8131 -3.0015 -0.3678
  173SAPI  C31319665   3.261   0.904   9.044  0.2300  0.2277  0.6668
  173SAPI  H13X19666   3.259   0.793   9.058 -0.7419  0.1511 -0.0273
  173SAPI  H13Y19667   3.362   0.942   9.018 -0.2652  1.1081  0.0202
  173SAPI  C31419668   3.178   0.938   8.921 -0.0050 -0.2388  0.2719
  173SAPI  H14X19669   3.174   1.048   8.907  2.7463 -0.2671 -1.4009
  173SAPI  H14Y19670   3.071   0.909   8.926 -0.4315  1.2051 -0.0540
  173SAPI  C31519671   3.228   0.874   8.795 -0.2425  0.2813 -0.0420
  173SAPI  H15X19672   3.139   0.853   8.730 -0.7625  0.1678  0.6961
  173SAPI  H15Y19673   3.280   0.776   8.805  2.4338  1.6759  0.3591
  173SAPI  C31619674   3.320   0.969   8.707  0.2419  0.3973 -0.1330
  173SAPI  H16X19675   3.410   0.980   8.771  0.5228  0.5911 -0.5583
  173SAPI  H16Y19676   3.270   1.067   8.695  0.1904  0.2580 -1.2171
  173SAPI  C31719677   3.372   0.912   8.575  0.1359 -0.2594  0.2060
  173SAPI  H17X19678   3.395   0.805   8.595 -0.8188 -0.2334  1.5843
  173SAPI  H17Y19679   3.461   0.968   8.537  0.1140 -1.6965 -2.1410
  173SAPI  C31819680   3.268   0.909   8.460 -0.9346  0.2598  0.2176
  173SAPI  H18X19681   3.202   0.997   8.478  0.6812  1.4888  0.3607
  173SAPI  H18Y19682   3.216   0.811   8.457  1.1483 -0.8920 -0.6429
  173SAPI  H18Z19683   3.319   0.915   8.361 -2.4607  0.0484 -0.6040
  174SAPI   C1219684   0.986   1.680  11.472 -0.4640 -0.4050 -0.1200
  174SAPI    H219685   0.929   1.585  11.471 -0.2690 -0.5190 -0.5394
  174SAPI    O219686   0.943   1.750  11.588 -0.6035 -0.3709  0.2969
  174SAPI   HO219687   0.872   1.802  11.551  0.0959 -0.4493 -1.2047
  174SAPI   C1319688   1.134   1.634  11.482 -0.1988  0.6144  0.6651
  174SAPI    H319689   1.157   1.574  11.392 -2.7010  0.9635 -0.2734
  174SAPI    O319690   1.159   1.538  11.586 -0.3419  0.1416 -0.0058
  174SAPI   HO319691   1.212   1.569  11.660 -1.2288 -0.8101  1.0704
  174SAPI   C1419692   1.223   1.759  11.484 -0.0103 -0.4915 -0.5264
  174SAPI    H419693   1.197   1.808  11.580  0.1259 -1.9627  0.2923
  174SAPI    O419694   1.361   1.716  11.496 -0.1510 -0.0333 -0.0977
  174SAPI   HO419695   1.402   1.675  11.420 -0.6304  0.0506 -0.4051
  174SAPI   C1519696   1.198   1.848  11.366  0.2959  0.3745 -0.4339
  174SAPI    H519697   1.232   1.796  11.274  1.6942  2.4299 -1.1540
  174SAPI    O519698   1.277   1.967  11.377 -0.3922  0.1645 -0.0967
  174SAPI   HO519699   1.369   1.946  11.364 -0.9579 -1.6207 -1.6222
  174SAPI   C1619700   1.050   1.883  11.346 -0.6839  0.6691  0.1365
  174SAPI    H619701   1.009   1.941  11.432 -0.9197  0.5199  0.1243
  174SAPI    O619702   1.033   1.959  11.228  0.1540 -0.4398  0.3799
  174SAPI   HO619703   0.941   1.966  11.204 -0.2973 -1.4480  1.6698
  174SAPI   C1119704   0.963   1.758  11.340 -0.5040  0.2742 -0.5031
  174SAPI    H119705   1.004   1.695  11.258  3.0023  2.0461 -0.2723
  174SAPI     P19706   0.726   1.684  11.232 -0.0582 -0.0680  0.0962
  174SAPI   O1319707   0.583   1.716  11.253  0.2107  0.2934  0.2197
  174SAPI   O1419708   0.766   1.540  11.253 -0.1831 -0.8271 -0.3637
  174SAPI   O1219709   0.826   1.790  11.311 -0.6102 -0.1239 -0.0551
  174SAPI   O1119710   0.767   1.716  11.091  0.2064  0.7220  0.3972
  174SAPI    C119711   0.727   1.844  11.036 -0.1795  0.2369  1.2151
  174SAPI    HA19712   0.630   1.883  11.074  0.6536  1.6434  1.9845
  174SAPI    HB19713   0.817   1.908  11.044  0.8825 -0.8718 -1.0634
  174SAPI    C219714   0.702   1.829  10.882  0.4511 -0.3592 -0.3266
  174SAPI    HS19715   0.606   1.773  10.871  0.5015 -1.2957  2.8497
  174SAPI   O2119716   0.821   1.763  10.830 -0.4544 -0.5702  0.3429
  174SAPI   C2119717   0.810   1.703  10.712 -0.1082  0.4159 -0.3453
  174SAPI   O2219718   0.700   1.676  10.661  0.7147 -0.2389 -0.7771
  174SAPI   C2219719   0.947   1.672  10.649  0.3440 -0.2828  0.4729
  174SAPI   H2R19720   0.991   1.770  10.620 -0.2479 -0.1693 -0.0596
  174SAPI   H2S19721   1.004   1.619  10.728  0.6464 -0.5085  0.1091
  174SAPI    C319722   0.679   1.969  10.815 -0.3048 -0.7744 -0.1096
  174SAPI    HX19723   0.769   2.034  10.826 -2.1660  2.3465 -1.8179
  174SAPI    HY19724   0.602   2.015  10.880 -2.1323 -3.3807 -0.2719
  174SAPI   O3119725   0.624   1.981  10.682 -0.7885  0.1926 -0.0707
  174SAPI   C3119726   0.714   2.008  10.582  0.6408  0.6167 -0.2522
  174SAPI   O3219727   0.835   2.005  10.597 -0.3069  0.4702  0.3144
  174SAPI   C3219728   0.641   2.019  10.449  1.0930 -0.0166 -0.1983
  174SAPI   H2X19729   0.535   2.048  10.465  0.4304 -0.2621 -3.5769
  174SAPI   H2Y19730   0.640   1.919  10.401 -0.1074 -0.1575  0.0930
  174SAPI   C2319731   0.935   1.596  10.517 -0.2544 -0.3023  0.5825
  174SAPI   H3R19732   0.863   1.640  10.445  0.4625  3.3624  1.8955
  174SAPI   H3S19733   0.909   1.489  10.528  0.3966 -0.4402  0.8711
  174SAPI   C2419734   1.081   1.593  10.449  0.0355 -0.1263 -0.1304
  174SAPI   H4R19735   1.089   1.512  10.373  0.8076 -0.3287  0.1606
  174SAPI   H4S19736   1.155   1.576  10.530 -0.6348  1.1660  0.7989
  174SAPI   C2519737   1.108   1.726  10.377  0.5029  0.6371 -0.3989
  174SAPI   H5R19738   1.105   1.805  10.453  1.4237 -1.1518  1.5875
  174SAPI   C2619739   1.131   1.753  10.244 -0.6394  0.3427  0.3558
  174SAPI   H6R19740   1.166   1.853  10.212  0.2287  0.0781  0.4645
  174SAPI   C2719741   1.122   1.643  10.134 -0.4512  0.0178 -0.2747
  174SAPI   H7R19742   1.127   1.543  10.183  0.9329  0.0391 -0.3406
  174SAPI   H7S19743   1.213   1.661  10.073  0.5319 -1.7485  0.5802
  174SAPI   C2819744   1.007   1.650  10.046  0.1497  0.2285  0.0186
  174SAPI   H8R19745   0.915   1.681  10.096 -0.5727 -1.6460 -0.0669
  174SAPI   C2919746   1.012   1.620   9.915  0.8916 -0.7576  0.3618
  174SAPI   H9R19747   0.919   1.614   9.856  0.2630  1.0743  1.0898
  174SAPI  C21019748   1.137   1.575   9.844  0.1334  0.3767 -0.1119
  174SAPI  H10R19749   1.203   1.522   9.916 -2.4591 -1.3719  1.1158
  174SAPI  H10S19750   1.190   1.672   9.827 -2.3037  1.8752  0.2974
  174SAPI  C21119751   1.112   1.474   9.740  0.1218  0.0691  0.2105
  174SAPI  H11R19752   1.055   1.384   9.769  2.5267 -1.7646 -0.4338
  174SAPI  C21219753   1.152   1.485   9.610 -0.3570  0.3894 -0.3572
  174SAPI  H12R19754   1.143   1.401   9.540 -1.1258  0.9777 -0.9851
  174SAPI  C21319755   1.228   1.603   9.541  0.7879  0.3545  0.8056
  174SAPI  H13R19756   1.317   1.559   9.493 -0.4822 -0.0675 -1.2976
  174SAPI  H13S19757   1.259   1.690   9.604  1.1148 -0.4906  1.8287
  174SAPI  C21419758   1.131   1.655   9.430  0.0896  0.0654  0.1384
  174SAPI  H14R19759   1.057   1.730   9.463 -1.0648 -0.9847  0.0170
  174SAPI  C21519760   1.129   1.610   9.303 -0.1814  0.0983  0.7001
  174SAPI  H15R19761   1.053   1.645   9.232 -0.0551 -0.0005  0.5169
  174SAPI  C21619762   1.219   1.494   9.242  0.7138 -0.9147 -0.4477
  174SAPI  H16R19763   1.151   1.406   9.238 -1.6276  0.6506  1.5536
  174SAPI  H16S19764   1.301   1.471   9.312 -0.2506  2.7460  2.1877
  174SAPI  C21719765   1.280   1.513   9.107  0.0929 -0.2490  0.2077
  174SAPI  H17R19766   1.217   1.555   9.026  1.4538  0.6633 -0.4128
  174SAPI  H17S19767   1.312   1.411   9.077 -1.4512 -0.7942  0.3015
  174SAPI  C21819768   1.410   1.600   9.105  0.6582  0.2803 -0.8827
  174SAPI  H18R19769   1.486   1.531   9.147  1.5665  1.2540 -0.9092
  174SAPI  H18S19770   1.387   1.686   9.171 -0.3393  1.4711 -2.7074
  174SAPI  C21919771   1.439   1.661   8.973  0.0868 -0.4193  0.3964
  174SAPI  H19R19772   1.478   1.765   8.977  0.6915 -0.6508  0.5399
  174SAPI  H19S19773   1.347   1.686   8.916  1.6627  2.0069 -1.2805
  174SAPI  C22019774   1.529   1.581   8.876  0.2210  0.3424  0.1472
  174SAPI  H20R19775   1.507   1.472   8.874 -0.1843  0.4266 -0.4128
  174SAPI  H20S19776   1.631   1.588   8.918 -0.2335  0.6580  1.2327
  174SAPI  H20T19777   1.530   1.618   8.771 -0.3903  1.9227  0.6689
  174SAPI   C3319778   0.717   2.110  10.347 -0.1818  0.4525  0.0808
  174SAPI   H3X19779   0.805   2.055  10.307 -2.4250 -2.0283 -1.7778
  174SAPI   H3Y19780   0.748   2.206  10.395 -1.4922  0.1474  1.6042
  174SAPI   C3419781   0.624   2.154  10.241  0.5729  0.8797 -0.0073
  174SAPI   H4X19782   0.534   2.200  10.289 -1.1449 -0.4181 -1.8214
  174SAPI   H4Y19783   0.573   2.078  10.179 -0.3635  2.5481 -1.3575
  174SAPI   C3519784   0.681   2.258  10.145  0.2670  0.3078 -0.6583
  174SAPI   H5X19785   0.786   2.231  10.123  1.0340  1.3742  1.4124
  174SAPI   H5Y19786   0.704   2.349  10.204 -1.9384 -0.6125  1.8206
  174SAPI   C3619787   0.603   2.268  10.010  0.1539 -0.6764 -0.5105
  174SAPI   H6X19788   0.493   2.267  10.030  0.0070 -1.9669 -1.2853
  174SAPI   H6Y19789   0.631   2.183   9.945  1.9326 -0.1075 -0.5255
  174SAPI   C3719790   0.654   2.386   9.938  0.6082 -0.5917  1.0310
  174SAPI   H7X19791   0.763   2.398   9.955  0.2956  0.9535  2.2439
  174SAPI   H7Y19792   0.611   2.478   9.983 -0.7950 -0.4011 -0.5957
  174SAPI   C3819793   0.600   2.392   9.788 -0.0053  0.0174 -0.5019
  174SAPI   H8X19794   0.600   2.497   9.753  1.4542  1.1438  2.5224
  174SAPI   H8Y19795   0.493   2.361   9.787  1.0145 -4.4743  2.2209
  174SAPI   C3919796   0.677   2.305   9.691 -0.4480  1.1122  0.7831
  174SAPI   H9X19797   0.682   2.195   9.708 -0.2962  1.1060  0.6995
  174SAPI   H9Y19798   0.781   2.345   9.695 -1.1498  2.9147  2.0923
  174SAPI  C31019799   0.642   2.330   9.544  0.1291 -0.1960  0.5336
  174SAPI  H10X19800   0.640   2.439   9.528  1.4947 -0.1208  0.7539
  174SAPI  H10Y19801   0.539   2.288   9.533 -0.2257  0.7288  0.2569
  174SAPI  C31119802   0.753   2.258   9.450  0.0336 -0.2132 -0.4011
  174SAPI  H11X19803   0.847   2.315   9.469 -0.3336  0.3735 -0.3261
  174SAPI  H11Y19804   0.710   2.277   9.350 -1.0369 -0.3720  0.0206
  174SAPI  C31219805   0.757   2.106   9.460 -0.2571 -0.3420 -0.6967
  174SAPI  H12X19806   0.787   2.086   9.565 -0.5115 -2.3930 -0.9721
  174SAPI  H12Y19807   0.835   2.072   9.388  0.0316 -1.5839  0.1737
  174SAPI  C31319808   0.622   2.040   9.436  0.4752  0.1726  0.1248
  174SAPI  H13X19809   0.545   2.079   9.506  0.3366 -2.4603  1.5546
  174SAPI  H13Y19810   0.633   1.932   9.462  3.0837  0.7374  1.7102
  174SAPI  C31419811   0.571   2.056   9.288 -0.8017 -0.0676 -0.7010
  174SAPI  H14X19812   0.665   2.045   9.229  0.4665  0.1733  1.1690
  174SAPI  H14Y19813   0.530   2.158   9.271 -0.8774  0.4308  2.0649
  174SAPI  C31519814   0.477   1.945   9.258  0.6260 -0.0617  0.0264
  174SAPI  H15X19815   0.395   1.962   9.330  2.3167  0.0887  2.0053
  174SAPI  H15Y19816   0.531   1.852   9.288  1.2889  0.5916  0.9206
  174SAPI  C31619817   0.438   1.949   9.112  0.0814 -0.1179  0.5252
  174SAPI  H16X19818   0.515   1.935   9.032 -0.0464 -3.2104  0.8182
  174SAPI  H16Y19819   0.381   2.039   9.081  0.0373 -0.1750  0.4418
  174SAPI  C31719820   0.350   1.832   9.076 -0.3433 -0.0323  0.1688
  174SAPI  H17X19821   0.412   1.741   9.091 -0.1170  0.2944  1.3482
  174SAPI  H17Y19822   0.323   1.829   8.969 -2.7231 -0.1648  0.7267
  174SAPI  C31819823   0.216   1.826   9.150  0.3966 -0.3799  0.1167
  174SAPI  H18X19824   0.147   1.908   9.120  1.4730 -0.3107 -2.4150
  174SAPI  H18Y19825   0.222   1.823   9.261 -0.1669  2.3041  0.2829
  174SAPI  H18Z19826   0.168   1.729   9.127  0.7540 -1.3141  2.8911
  175SAPI   C1219827   6.003   0.929   6.149  0.1669 -0.1751  0.6408
  175SAPI    H219828   6.111   0.920   6.175  0.1352  0.4821  1.0052
  175SAPI    O219829   5.977   1.067   6.137 -0.0385 -0.3929 -0.2931
  175SAPI   HO219830   6.046   1.102   6.193  0.9558 -0.8037 -1.2290
  175SAPI   C1319831   5.983   0.852   6.020 -0.3602  0.6597 -0.2261
  175SAPI    H319832   6.006   0.749   6.053 -0.6114  1.4389  2.6743
  175SAPI    O319833   6.077   0.881   5.915 -0.3867 -0.7726  0.1070
  175SAPI   HO319834   6.079   0.800   5.864 -0.9477 -0.8568  0.2139
  175SAPI   C1419835   5.838   0.864   5.976  0.1617 -0.6138  0.2363
  175SAPI    H419836   5.810   0.970   5.958 -0.1667 -0.4704  1.4925
  175SAPI    O419837   5.814   0.794   5.855 -0.5215 -0.0676  0.2795
  175SAPI   HO419838   5.721   0.788   5.833 -0.0494 -2.8094 -1.3794
  175SAPI   C1519839   5.747   0.813   6.089  0.6603 -0.2660  0.2258
  175SAPI    H519840   5.769   0.704   6.089 -0.4349 -0.5375 -1.8809
  175SAPI    O519841   5.609   0.823   6.051 -0.0770  0.3040 -0.3036
  175SAPI   HO519842   5.575   0.756   6.111 -0.2882  1.3757  0.8220
  175SAPI   C1619843   5.774   0.875   6.227  0.4970 -0.2500  0.2716
  175SAPI    H619844   5.742   0.982   6.221  1.5378  0.0601  0.1817
  175SAPI    O619845   5.696   0.807   6.324  0.4530 -0.5825 -0.2481
  175SAPI   HO619846   5.746   0.833   6.401  0.2774  2.3106 -0.9982
  175SAPI   C1119847   5.924   0.864   6.255 -0.4103  0.8101 -0.4586
  175SAPI    H119848   5.952   0.756   6.262 -1.2868  0.2621 -3.6982
  175SAPI     P19849   6.071   0.889   6.490 -0.4571  0.0648  0.4122
  175SAPI   O1319850   6.114   1.013   6.553  0.0862 -0.4194  0.1845
  175SAPI   O1419851   6.181   0.811   6.429 -0.1306 -0.5284  0.3418
  175SAPI   O1219852   5.948   0.933   6.374  0.0550 -0.4972 -0.0168
  175SAPI   O1119853   5.991   0.797   6.596 -0.0371  0.8377 -0.2631
  175SAPI    C119854   5.922   0.869   6.697 -0.1803  0.4704 -0.3281
  175SAPI    HA19855   5.989   0.902   6.779 -0.5504  0.7151 -0.1213
  175SAPI    HB19856   5.869   0.956   6.652 -0.2820 -0.6423 -2.4663
  175SAPI    C219857   5.811   0.792   6.776 -0.8405 -0.0171  0.4294
  175SAPI    HS19858   5.734   0.772   6.699  1.0026 -1.9672 -1.0334
  175SAPI   O2119859   5.756   0.871   6.882 -0.3564  0.5029  0.0925
  175SAPI   C2119860   5.636   0.834   6.920  0.1912 -0.7854 -0.0037
  175SAPI   O2219861   5.563   0.748   6.874  0.0635  0.1239 -0.2304
  175SAPI   C2219862   5.579   0.938   7.024 -0.6671 -0.1550 -0.2278
  175SAPI   H2R19863   5.655   1.017   7.042 -0.8332  0.0024 -0.2212
  175SAPI   H2S19864   5.501   0.981   6.958 -1.9164 -2.2160 -0.1748
  175SAPI    C319865   5.868   0.654   6.829 -0.7470 -0.7142 -0.6468
  175SAPI    HX19866   5.924   0.597   6.752  0.4229 -0.0807 -0.2961
  175SAPI    HY19867   5.774   0.600   6.852  0.6190 -1.8261  3.0042
  175SAPI   O3119868   5.948   0.675   6.946 -0.4900  0.0207 -0.6612
  175SAPI   C3119869   6.085   0.675   6.929 -0.1470 -0.0106 -0.2755
  175SAPI   O3219870   6.144   0.657   6.827  0.0432  0.1998  0.0056
  175SAPI   C3219871   6.159   0.695   7.065  0.0990  0.4600 -0.2426
  175SAPI   H2X19872   6.083   0.715   7.143 -0.5569 -0.7068 -0.5582
  175SAPI   H2Y19873   6.222   0.787   7.069 -0.9085  1.1136  1.3583
  175SAPI   C2319874   5.519   0.884   7.158 -0.7806 -0.1768  0.5582
  175SAPI   H3R19875   5.473   0.786   7.135 -1.2528  0.4492 -1.3710
  175SAPI   H3S19876   5.434   0.947   7.193  0.3968  1.2847  0.8819
  175SAPI   C2419877   5.629   0.870   7.267  0.3930 -0.3730  0.3653
  175SAPI   H4R19878   5.598   0.880   7.373  2.1141  1.6817  0.7434
  175SAPI   H4S19879   5.690   0.963   7.265  1.0610 -0.8086 -1.3357
  175SAPI   C2519880   5.726   0.759   7.243  0.0412 -0.8661 -0.2528
  175SAPI   H5R19881   5.751   0.756   7.136  1.2191  0.2580 -0.0352
  175SAPI   C2619882   5.782   0.680   7.340 -0.2821 -0.1743  0.3443
  175SAPI   H6R19883   5.848   0.596   7.312  0.6236 -0.3936  2.8848
  175SAPI   C2719884   5.755   0.685   7.489 -0.4213 -0.6402  0.5474
  175SAPI   H7R19885   5.744   0.581   7.527 -2.8475 -0.5514  0.2439
  175SAPI   H7S19886   5.658   0.732   7.515  1.0367  1.4860  2.5271
  175SAPI   C2819887   5.851   0.773   7.564  0.1068  0.3109 -0.8659
  175SAPI   H8R19888   5.946   0.801   7.515  0.8599 -1.7248 -0.6700
  175SAPI   C2919889   5.824   0.826   7.689 -1.1913  0.1916  0.2505
  175SAPI   H9R19890   5.906   0.886   7.733 -0.2646  0.7139 -2.0352
  175SAPI  C21019891   5.700   0.799   7.776 -0.3896  0.5361  0.2167
  175SAPI  H10R19892   5.614   0.768   7.713  0.7005 -1.2500 -0.5020
  175SAPI  H10S19893   5.672   0.894   7.825 -1.0429  1.1301 -1.2534
  175SAPI  C21119894   5.717   0.692   7.883 -0.1861  0.1490 -0.4036
  175SAPI  H11R19895   5.679   0.593   7.855 -0.0228  0.5075 -2.0183
  175SAPI  C21219896   5.743   0.707   8.014 -1.1521  0.0531 -0.6007
  175SAPI  H12R19897   5.744   0.611   8.068 -2.4621  1.3033  1.8124
  175SAPI  C21319898   5.765   0.836   8.086 -0.7333  0.8831 -0.7915
  175SAPI  H13R19899   5.688   0.910   8.058 -2.4917 -0.7068 -0.4268
  175SAPI  H13S19900   5.861   0.881   8.054  1.3476 -0.6529  2.7027
  175SAPI  C21419901   5.767   0.821   8.242  0.0398  0.3421  0.2472
  175SAPI  H14R19902   5.852   0.759   8.274 -0.6387 -2.5095 -2.8880
  175SAPI  C21519903   5.692   0.878   8.332  0.9766 -0.4920 -0.2005
  175SAPI  H15R19904   5.710   0.852   8.438 -1.0843  0.8123  0.5181
  175SAPI  C21619905   5.578   0.967   8.314 -0.1951 -0.4113 -0.2781
  175SAPI  H16R19906   5.548   0.958   8.208  1.2928 -1.7659 -0.6158
  175SAPI  H16S19907   5.613   1.067   8.347  1.3296 -0.3049 -2.0664
  175SAPI  C21719908   5.458   0.923   8.404  0.4355 -0.0145 -0.0600
  175SAPI  H17R19909   5.487   0.917   8.511 -1.5884 -1.5972  0.4723
  175SAPI  H17S19910   5.409   0.828   8.372  0.1734  0.1309 -0.0861
  175SAPI  C21819911   5.346   1.033   8.399 -0.0805  0.4645  0.0757
  175SAPI  H18R19912   5.385   1.129   8.440 -0.3015  0.4374  0.3483
  175SAPI  H18S19913   5.264   1.012   8.470  0.8109  0.8685  1.2528
  175SAPI  C21919914   5.279   1.055   8.264  0.1420 -0.1314 -0.0917
  175SAPI  H19R19915   5.220   0.964   8.243 -0.9308  0.0067  2.0052
  175SAPI  H19S19916   5.346   1.072   8.177  0.1062  0.6850  0.0284
  175SAPI  C22019917   5.187   1.174   8.272  0.7142 -0.2071 -0.5166
  175SAPI  H20R19918   5.113   1.183   8.190  0.5083  0.5071 -0.2585
  175SAPI  H20S19919   5.237   1.273   8.277  0.6302 -0.1359 -1.0871
  175SAPI  H20T19920   5.126   1.161   8.364  1.1467  0.4983 -0.1113
  175SAPI   C3319921   6.240   0.570   7.110 -0.5350  0.1890 -0.1649
  175SAPI   H3X19922   6.325   0.570   7.039 -1.2823  1.8387 -1.1180
  175SAPI   H3Y19923   6.174   0.482   7.095  0.3211 -0.3114 -1.0231
  175SAPI   C3419924   6.311   0.570   7.241 -0.2652 -0.1235 -0.5644
  175SAPI   H4X19925   6.402   0.633   7.252 -0.5151  0.0401  0.7376
  175SAPI   H4Y19926   6.339   0.465   7.263  2.2346  0.4758 -0.5299
  175SAPI   C3519927   6.224   0.607   7.368  0.2164 -0.1805  0.2190
  175SAPI   H5X19928   6.122   0.567   7.353 -0.2681 -0.7893  4.1267
  175SAPI   H5Y19929   6.218   0.718   7.365  2.4697 -0.0118 -1.3594
  175SAPI   C3619930   6.286   0.576   7.504  0.2565 -0.5967 -0.0288
  175SAPI   H6X19931   6.391   0.611   7.509  0.0842 -0.0092 -0.4423
  175SAPI   H6Y19932   6.294   0.466   7.521 -0.0115 -0.4693  0.9914
  175SAPI   C3719933   6.206   0.641   7.613 -0.5596 -0.0912 -0.1148
  175SAPI   H7X19934   6.099   0.612   7.626 -0.8304  1.2455  0.9621
  175SAPI   H7Y19935   6.210   0.752   7.601 -2.3843  0.2057  1.5568
  175SAPI   C3819936   6.266   0.623   7.758  0.5157  0.1564  0.0219
  175SAPI   H8X19937   6.375   0.629   7.737  0.8188 -2.6174  0.4311
  175SAPI   H8Y19938   6.253   0.519   7.795 -0.2647  0.1764 -0.1771
  175SAPI   C3919939   6.214   0.735   7.847  0.1464 -0.5762  0.1366
  175SAPI   H9X19940   6.104   0.724   7.845  0.1436 -1.1707  1.8326
  175SAPI   H9Y19941   6.252   0.831   7.805  1.3226 -0.7531  0.7434
  175SAPI  C31019942   6.267   0.730   7.995  0.7418 -0.5751 -0.3966
  175SAPI  H10X19943   6.377   0.746   7.991  0.6657  0.6305  1.4663
  175SAPI  H10Y19944   6.240   0.632   8.039 -1.3805  0.1383 -0.0069
  175SAPI  C31119945   6.202   0.837   8.085  0.6270  0.3180  0.7161
  175SAPI  H11X19946   6.095   0.809   8.087  0.6666  0.1280  0.1617
  175SAPI  H11Y19947   6.193   0.933   8.030 -0.5619 -0.5645 -0.7129
  175SAPI  C31219948   6.260   0.855   8.229  0.0726 -0.4778  0.9392
  175SAPI  H12X19949   6.357   0.909   8.229 -0.4156  0.4955 -0.8009
  175SAPI  H12Y19950   6.283   0.751   8.262  0.1696 -1.7742 -2.7305
  175SAPI  C31319951   6.158   0.923   8.321  0.5213 -0.1427 -0.1887
  175SAPI  H13X19952   6.079   0.849   8.346  0.4407  0.0896  0.2498
  175SAPI  H13Y19953   6.123   1.003   8.253  0.3232 -0.7859 -0.8536
  175SAPI  C31419954   6.229   0.983   8.439  0.4746  0.3682 -0.9365
  175SAPI  H14X19955   6.310   1.045   8.396  0.4981  1.7213  0.9154
  175SAPI  H14Y19956   6.285   0.910   8.501  1.7616  1.5839 -0.6240
  175SAPI  C31519957   6.144   1.075   8.528 -0.3978  0.2637  0.4723
  175SAPI  H15X19958   6.055   1.013   8.550  0.3946 -1.0990 -0.0497
  175SAPI  H15Y19959   6.103   1.162   8.472 -2.2312 -2.0917 -2.1330
  175SAPI  C31619960   6.211   1.121   8.656  0.4514  0.0545  0.1005
  175SAPI  H16X19961   6.281   1.205   8.636  0.2467 -0.2046 -2.0158
  175SAPI  H16Y19962   6.273   1.041   8.702  0.5714 -0.2466 -0.5583
  175SAPI  C31719963   6.110   1.157   8.764  0.8257 -0.4833 -0.2369
  175SAPI  H17X19964   6.070   1.068   8.817 -1.0098  0.7535  0.5429
  175SAPI  H17Y19965   6.029   1.213   8.713 -0.2575 -0.5670  1.3302
  175SAPI  C31819966   6.170   1.244   8.864 -0.3695  0.5839  0.1189
  175SAPI  H18X19967   6.112   1.264   8.957 -1.0435 -0.4262 -0.0643
  175SAPI  H18Y19968   6.191   1.346   8.826 -1.1382  0.8391  0.3618
  175SAPI  H18Z19969   6.261   1.194   8.905 -0.3184  1.9557  1.7984
  176SAPI   C1219970   3.681   4.642   6.559  0.3147  1.0425 -0.3127
  176SAPI    H219971   3.727   4.697   6.643  2.8540 -1.3062 -0.0286
  176SAPI    O219972   3.536   4.659   6.565  0.3725  0.6662  0.3943
  176SAPI   HO219973   3.515   4.582   6.619  2.9195  0.2641  0.9198
  176SAPI   C1319974   3.726   4.695   6.424 -0.2013  0.0927 -1.5344
  176SAPI    H319975   3.833   4.668   6.435 -0.3645 -0.5614 -1.5134
  176SAPI    O319976   3.724   4.834   6.415 -0.3449  0.0958 -0.4291
  176SAPI   HO319977   3.789   4.863   6.351  0.1128 -0.7811 -0.3822
  176SAPI   C1419978   3.675   4.620   6.300 -0.2847 -0.2843 -0.3092
  176SAPI    H419979   3.566   4.638   6.297 -0.1446  1.0136  1.1540
  176SAPI    O419980   3.741   4.672   6.185  0.2783 -0.3266 -0.0519
  176SAPI   HO419981   3.686   4.701   6.112  2.0020  0.0724 -1.2533
  176SAPI   C1519982   3.694   4.473   6.314  0.3011 -0.1215 -0.3463
  176SAPI    H519983   3.799   4.439   6.306 -0.2320 -2.1296  0.3554
  176SAPI    O519984   3.633   4.400   6.213 -0.3464 -0.4400  0.8819
  176SAPI   HO519985   3.692   4.408   6.137 -1.0514  0.4036  0.3976
  176SAPI   C1619986   3.647   4.419   6.451 -0.7282  0.1125  0.4089
  176SAPI    H619987   3.538   4.440   6.452 -0.4921  1.5616  2.4820
  176SAPI    O619988   3.667   4.277   6.456  0.4553 -0.6448 -0.4217
  176SAPI   HO619989   3.744   4.255   6.508 -1.1434 -1.0756  1.9492
  176SAPI   C1119990   3.706   4.496   6.571  0.3177  0.3678  0.6841
  176SAPI    H119991   3.814   4.469   6.562  0.1284 -1.8795  3.6937
  176SAPI     P19992   3.736   4.453   6.836  0.0312  0.1340  0.1123
  176SAPI   O1319993   3.881   4.446   6.811 -0.3813  0.2707  0.3357
  176SAPI   O1419994   3.679   4.359   6.934  0.8244 -0.5662 -0.6209
  176SAPI   O1219995   3.651   4.442   6.690  0.1189 -0.0684  0.1632
  176SAPI   O1119996   3.700   4.597   6.884  0.4461 -0.1274 -0.1715
  176SAPI    C119997   3.564   4.638   6.902 -0.2876 -0.3281  0.1149
  176SAPI    HA19998   3.513   4.625   6.804  0.4068  2.0301 -0.6138
  176SAPI    HB19999   3.518   4.580   6.986 -0.2121 -0.5506  0.0030
  176SAPI    C220000   3.546   4.792   6.940 -0.3331 -0.5961  0.4851
  176SAPI    HS20001   3.614   4.852   6.875 -0.4604 -0.4319  0.5040
  176SAPI   O2120002   3.564   4.812   7.082  0.6947 -0.2903 -0.2680
  176SAPI   C2120003   3.689   4.840   7.112  0.5579 -0.2031 -0.5587
  176SAPI   O2220004   3.772   4.861   7.029  0.3728 -0.4828  0.7342
  176SAPI   C2220005   3.712   4.834   7.261  0.9207  0.0761 -0.0222
  176SAPI   H2R20006   3.616   4.857   7.313  0.7553 -0.9889  0.1631
  176SAPI   H2S20007   3.774   4.744   7.279  2.9527  1.7960  2.3437
  176SAPI    C320008   3.409   4.836   6.899  0.3562  0.7605  0.5744
  176SAPI    HX20009   3.342   4.768   6.956  0.2363  2.5708  2.7116
  176SAPI    HY20010   3.388   4.830   6.790 -0.6920  1.1124  0.7526
  176SAPI   O3120011   3.380   4.965   6.949  0.0395 -0.3137 -0.6122
  176SAPI   C3120012   3.402   5.067   6.863 -0.0157 -0.5639 -0.2018
  176SAPI   O3220013   3.422   5.056   6.744  0.4208  0.2412 -0.4218
  176SAPI   C3220014   3.382   5.197   6.947 -0.2192  0.2292 -0.4096
  176SAPI   H2X20015   3.305   5.166   7.022 -0.2293 -1.7612 -1.1611
  176SAPI   H2Y20016   3.343   5.273   6.876 -0.0371  1.2421  0.5438
  176SAPI   C2320017   3.809   4.937   7.296 -0.0527 -0.0840  0.3359
  176SAPI   H3R20018   3.773   5.040   7.273 -0.8185 -0.4164  0.0185
  176SAPI   H3S20019   3.904   4.930   7.239  0.3280  1.0955  0.7828
  176SAPI   C2420020   3.845   4.927   7.448  0.4916  0.1088  0.9547
  176SAPI   H4R20021   3.928   5.001   7.456  0.6091  0.1778 -0.6561
  176SAPI   H4S20022   3.887   4.825   7.462 -0.3240 -0.2997  0.4853
  176SAPI   C2520023   3.732   4.954   7.541  0.1647 -0.5203 -0.1613
  176SAPI   H5R20024   3.638   4.941   7.487  0.4959  2.2052 -1.5574
  176SAPI   C2620025   3.739   4.991   7.674 -0.8144 -0.2602  0.0910
  176SAPI   H6R20026   3.646   4.994   7.734 -1.0847 -0.8101 -0.2887
  176SAPI   C2720027   3.863   5.002   7.769  0.2392 -0.5980 -0.1717
  176SAPI   H7R20028   3.908   5.104   7.778 -0.6752 -0.2606  0.8610
  176SAPI   H7S20029   3.950   4.944   7.732  1.0069  0.6047 -0.3394
  176SAPI   C2820030   3.843   4.954   7.915  0.1526  0.1695  0.5669
  176SAPI   H8R20031   3.915   4.873   7.934  2.0026  1.6294  0.0853
  176SAPI   C2920032   3.770   5.005   8.014  0.2690  0.2307  0.6473
  176SAPI   H9R20033   3.778   4.953   8.111  0.5978 -0.6746  0.1535
  176SAPI  C21020034   3.682   5.126   7.999  0.0113 -0.8352 -1.1332
  176SAPI  H10R20035   3.575   5.099   8.000  0.3439 -2.2631  0.5365
  176SAPI  H10S20036   3.705   5.196   7.915 -0.2933 -0.0988 -0.6114
  176SAPI  C21120037   3.701   5.224   8.113 -0.2980  0.3224 -0.1544
  176SAPI  H11R20038   3.780   5.299   8.097  1.0793 -1.4305 -2.1404
  176SAPI  C21220039   3.656   5.208   8.239  0.7254  0.9439 -0.7663
  176SAPI  H12R20040   3.673   5.291   8.309 -0.2118  1.7445 -1.4802
  176SAPI  C21320041   3.567   5.100   8.304  0.0996  0.1272 -0.9102
  176SAPI  H13R20042   3.621   5.049   8.387  1.4694  0.7442 -1.3804
  176SAPI  H13S20043   3.543   5.025   8.225  0.6465 -1.0130 -0.0248
  176SAPI  C21420044   3.439   5.170   8.353 -0.0566 -0.3346 -0.6970
  176SAPI  H14R20045   3.372   5.200   8.271  1.1470  1.9637 -0.9267
  176SAPI  C21520046   3.402   5.199   8.479 -0.0222  0.1615 -0.2361
  176SAPI  H15R20047   3.322   5.275   8.484  0.8050  1.0229  0.2186
  176SAPI  C21620048   3.488   5.167   8.605  0.9693 -0.0933 -0.1688
  176SAPI  H16R20049   3.567   5.089   8.594  2.3431  1.4644 -2.2541
  176SAPI  H16S20050   3.426   5.138   8.693  1.3511 -0.3828  0.0087
  176SAPI  C21720051   3.564   5.294   8.651  0.0458 -0.0231  0.3807
  176SAPI  H17R20052   3.481   5.361   8.681 -1.3175 -1.4137 -0.1711
  176SAPI  H17S20053   3.623   5.336   8.566 -3.6514 -0.7388 -2.7994
  176SAPI  C21820054   3.656   5.259   8.765 -0.3183 -0.0109 -0.2033
  176SAPI  H18R20055   3.758   5.247   8.723  0.3866 -0.3426  1.5252
  176SAPI  H18S20056   3.626   5.159   8.802 -0.9348  0.3492  0.2864
  176SAPI  C21920057   3.667   5.365   8.872  0.3988 -0.0929 -0.0529
  176SAPI  H19R20058   3.568   5.387   8.915  0.3990 -1.1809  0.5420
  176SAPI  H19S20059   3.697   5.457   8.818 -0.4307 -0.3986 -1.0731
  176SAPI  C22020060   3.766   5.351   8.989  0.1059  0.4500  0.7235
  176SAPI  H20R20061   3.869   5.331   8.952 -0.2105 -0.3289  0.2316
  176SAPI  H20S20062   3.745   5.265   9.057  2.2369  0.1914  1.1279
  176SAPI  H20T20063   3.772   5.440   9.054  0.8397 -1.3564  3.2875
  176SAPI   C3320064   3.514   5.228   7.026 -0.1342  0.0610 -0.6829
  176SAPI   H3X20065   3.584   5.282   6.958 -0.6876 -0.4229 -1.6524
  176SAPI   H3Y20066   3.571   5.135   7.045  0.0658 -0.2685 -2.6953
  176SAPI   C3420067   3.491   5.308   7.161  0.6435  0.0136  0.5396
  176SAPI   H4X20068   3.400   5.367   7.140  0.4478 -0.9257 -1.4817
  176SAPI   H4Y20069   3.573   5.380   7.181  0.9237  0.7788 -2.7773
  176SAPI   C3520070   3.492   5.214   7.278  0.3092 -0.1340  0.2476
  176SAPI   H5X20071   3.592   5.186   7.318  1.0015  1.0739 -0.6112
  176SAPI   H5Y20072   3.440   5.120   7.250 -1.8029  0.6427  1.2847
  176SAPI   C3620073   3.403   5.269   7.397  0.3761  0.3789  0.1365
  176SAPI   H6X20074   3.299   5.281   7.358  0.8466 -0.7039 -1.5766
  176SAPI   H6Y20075   3.446   5.361   7.442 -1.6011  0.9370  1.0313
  176SAPI   C3720076   3.416   5.169   7.521 -0.1070 -0.5084 -0.4322
  176SAPI   H7X20077   3.514   5.191   7.568  0.0207 -1.0204 -0.4509
  176SAPI   H7Y20078   3.416   5.059   7.504  1.4515 -0.3015 -2.0272
  176SAPI   C3820079   3.306   5.200   7.631  0.4880 -0.0529 -0.1935
  176SAPI   H8X20080   3.201   5.175   7.605  0.6035 -2.0453  1.0114
  176SAPI   H8Y20081   3.299   5.309   7.648  0.9365  0.7266 -4.1936
  176SAPI   C3920082   3.339   5.124   7.765 -0.0056 -0.4365  0.4465
  176SAPI   H9X20083   3.445   5.119   7.800  0.0525 -1.1909  0.1725
  176SAPI   H9Y20084   3.323   5.016   7.744 -0.6954 -0.0241 -1.3340
  176SAPI  C31020085   3.240   5.163   7.879  1.0638  0.4015  0.0353
  176SAPI  H10X20086   3.229   5.071   7.941 -0.4592  0.4588 -0.1207
  176SAPI  H10Y20087   3.137   5.161   7.840  0.5869 -3.2330  1.0625
  176SAPI  C31120088   3.264   5.294   7.951 -0.2210 -0.0879 -0.6561
  176SAPI  H11X20089   3.238   5.373   7.878  0.3515 -0.0947 -0.8695
  176SAPI  H11Y20090   3.373   5.298   7.973 -0.1783 -1.0071 -0.6762
  176SAPI  C31220091   3.177   5.299   8.082  0.3272 -0.7902  0.4236
  176SAPI  H12X20092   3.194   5.204   8.137 -0.1588 -0.8699  0.4359
  176SAPI  H12Y20093   3.070   5.306   8.054  0.4576 -0.5008 -0.0380
  176SAPI  C31320094   3.229   5.416   8.153  0.3502 -0.3215 -0.2063
  176SAPI  H13X20095   3.218   5.517   8.109 -1.7587  0.0836  1.0916
  176SAPI  H13Y20096   3.335   5.404   8.186  0.0727 -0.3231  0.7189
  176SAPI  C31420097   3.145   5.433   8.281  0.5385  0.8516 -0.6038
  176SAPI  H14X20098   3.197   5.375   8.361  0.3532 -0.2786 -1.2937
  176SAPI  H14Y20099   3.038   5.404   8.281  0.1483  2.2043 -0.1542
  176SAPI  C31520100   3.157   5.575   8.339 -0.0019 -0.4761 -0.2850
  176SAPI  H15X20101   3.111   5.651   8.272 -2.4408 -1.2873  0.3413
  176SAPI  H15Y20102   3.263   5.604   8.350  0.2840 -1.5529 -0.0608
  176SAPI  C31620103   3.101   5.596   8.485 -0.2253 -0.3251 -0.4357
  176SAPI  H16X20104   3.127   5.507   8.546 -2.4168 -0.8818 -0.2408
  176SAPI  H16Y20105   2.991   5.589   8.482 -0.3876  1.0803  1.1409
  176SAPI  C31720106   3.138   5.729   8.550  0.0338 -0.0526 -0.2985
  176SAPI  H17X20107   3.090   5.803   8.481  0.0764 -0.2651 -0.5575
  176SAPI  H17Y20108   3.247   5.745   8.559 -0.1139  0.3791  0.8505
  176SAPI  C31820109   3.074   5.750   8.691 -0.5160  0.6160 -0.6086
  176SAPI  H18X20110   2.964   5.741   8.686 -0.4065 -0.9027 -0.6757
  176SAPI  H18Y20111   3.114   5.842   8.740 -0.5848  0.6972 -0.7046
  176SAPI  H18Z20112   3.116   5.664   8.747  0.7160  0.8708 -1.1208
  177SLPC     N20113   2.676   4.088  11.684  0.4803 -0.1161 -0.6858
  177SLPC   C1320114   2.815   4.125  11.678  0.1085 -0.5471 -0.1779
  177SLPC  H13A20115   2.879   4.037  11.681 -0.6942 -1.2026 -1.5886
  177SLPC  H13B20116   2.839   4.164  11.580 -0.0654 -2.0610 -0.8478
  177SLPC  H13C20117   2.853   4.184  11.760  1.2588 -2.8643  1.0592
  177SLPC   C1420118   2.594   4.211  11.708  0.0706 -0.2808  0.0646
  177SLPC  H14A20119   2.611   4.281  11.628  0.2192  0.1888  0.5067
  177SLPC  H14B20120   2.487   4.200  11.717  0.0478  0.5765  0.9583
  177SLPC  H14C20121   2.629   4.267  11.793  2.9404 -0.1842 -1.0609
  177SLPC   C1520122   2.655   3.983  11.790 -0.5223  0.0199  0.4961
  177SLPC  H15A20123   2.697   3.887  11.762 -3.1297 -0.1735 -3.5668
  177SLPC  H15B20124   2.675   4.017  11.891 -1.9403 -0.9143  1.1327
  177SLPC  H15C20125   2.550   3.959  11.796 -0.2757 -1.6486 -0.9327
  177SLPC   C1220126   2.621   4.035  11.553 -0.5327  0.4018  0.3022
  177SLPC  H12A20127   2.539   3.970  11.581 -0.3649  0.0555  0.0090
  177SLPC  H12B20128   2.695   3.979  11.497 -2.3610  0.4132 -2.3132
  177SLPC   C1120129   2.562   4.134  11.443 -0.4140  0.3960  0.6447
  177SLPC  H11A20130   2.480   4.190  11.492  0.4084  0.5676  1.8507
  177SLPC  H11B20131   2.508   4.076  11.365  1.3992  0.2060 -0.5506
  177SLPC     P20132   2.789   4.181  11.294  0.1918  0.1789 -0.2393
  177SLPC   O1320133   2.899   4.281  11.324 -0.2713  0.3628 -0.2325
  177SLPC   O1420134   2.821   4.046  11.337 -0.2893  0.1053 -0.5189
  177SLPC   O1220135   2.661   4.226  11.378 -0.2051 -0.8498  0.1070
  177SLPC   O1120136   2.742   4.188  11.144 -0.2820  0.1260  0.6120
  177SLPC    C120137   2.848   4.150  11.050  0.1001 -0.1166 -0.1654
  177SLPC    HA20138   2.952   4.164  11.086  0.0140 -0.8430  0.3840
  177SLPC    HB20139   2.832   4.046  11.014  1.2206 -0.0352 -0.9636
  177SLPC    C220140   2.841   4.243  10.915  0.5556 -0.4649 -0.2056
  177SLPC    HS20141   2.832   4.347  10.952 -0.4115 -0.6318  0.0357
  177SLPC   O2120142   2.737   4.196  10.822 -0.6390 -0.1075  1.1645
  177SLPC   C2120143   2.669   4.291  10.761 -0.3477  0.7729  0.0581
  177SLPC   O2220144   2.695   4.413  10.767  0.6644  0.4925  0.1043
  177SLPC   C2220145   2.568   4.231  10.669  0.1326  0.3757 -0.2714
  177SLPC   H2R20146   2.601   4.133  10.627  0.7788  0.1260  0.7690
  177SLPC   H2S20147   2.480   4.204  10.730  0.9205 -1.3578  0.1706
  177SLPC    C320148   2.982   4.233  10.845  0.2290  0.0902 -0.0808
  177SLPC    HX20149   2.993   4.126  10.816  0.4780  0.0957 -0.0101
  177SLPC    HY20150   3.059   4.269  10.917  0.4434 -1.9405  0.7849
  177SLPC   O3120151   2.978   4.307  10.722  0.3546  1.1283 -0.2554
  177SLPC   C3120152   2.988   4.437  10.718  0.2249 -0.0933 -0.5621
  177SLPC   O3220153   2.981   4.509  10.819  0.8429  0.6556  0.6529
  177SLPC   C3220154   2.992   4.485  10.574 -0.5466 -0.2314 -0.5456
  177SLPC   H2X20155   2.915   4.427  10.518 -1.7997  2.3210 -1.5888
  177SLPC   H2Y20156   3.095   4.451  10.545 -1.2903 -2.6440 -0.6164
  177SLPC   C2320157   2.526   4.326  10.551  0.2487 -1.1542  0.0456
  177SLPC   H3R20158   2.609   4.350  10.483 -0.5763 -0.2502 -0.6770
  177SLPC   H3S20159   2.495   4.425  10.591 -2.6027 -1.4495 -1.1441
  177SLPC   C2420160   2.394   4.278  10.483  0.2596 -0.2635  0.5578
  177SLPC   H4R20161   2.315   4.274  10.562  1.9250 -0.3200  2.2874
  177SLPC   H4S20162   2.415   4.190  10.419  0.8826  0.6659 -0.5629
  177SLPC   C2520163   2.334   4.396  10.392 -0.0905  0.3107 -0.9056
  177SLPC   H5R20164   2.319   4.490  10.449 -1.4600  0.9470 -2.2676
  177SLPC   H5S20165   2.230   4.371  10.364 -0.6595  0.7017  0.7654
  177SLPC   C2620166   2.421   4.416  10.267  0.1727 -0.0653  0.3693
  177SLPC   H6R20167   2.426   4.317  10.219  1.5925 -0.4787  1.3168
  177SLPC   H6S20168   2.522   4.442  10.306 -0.5587 -0.7065  2.8624
  177SLPC   C2720169   2.366   4.516  10.161  0.9248  0.2803 -0.4159
  177SLPC   H7R20170   2.376   4.618  10.206 -0.1867 -0.0421  0.5885
  177SLPC   H7S20171   2.260   4.488  10.149  0.7020  1.1880 -0.6546
  177SLPC   C2820172   2.446   4.525  10.033  0.0636  0.6321 -0.1667
  177SLPC   H8R20173   2.553   4.545  10.056  0.2868  1.4148 -1.7518
  177SLPC   H8S20174   2.420   4.618   9.979 -0.3347  0.9518  0.5517
  177SLPC   C2920175   2.428   4.393   9.959 -0.7790 -0.1821 -0.1043
  177SLPC   H9R20176   2.493   4.312   9.995 -1.4575 -0.8354 -0.3205
  177SLPC  C21020177   2.359   4.377   9.839 -0.4052  0.4534  0.4061
  177SLPC  H10R20178   2.359   4.277   9.792  0.2620  0.0770  1.1926
  177SLPC  C21120179   2.283   4.484   9.769 -0.3161  0.2696 -0.1257
  177SLPC  H11R20180   2.177   4.480   9.802 -0.3478 -0.7544 -0.3248
  177SLPC  H11S20181   2.325   4.585   9.790  0.3615  0.1852 -1.0099
  177SLPC  C21220182   2.293   4.471   9.619 -0.2925  0.1429 -0.2459
  177SLPC  H12R20183   2.398   4.467   9.584  1.1215 -1.4995  3.5745
  177SLPC  C21320184   2.195   4.493   9.530 -0.0584  0.0981  0.5105
  177SLPC  H13R20185   2.234   4.492   9.427  0.4989  3.6376  0.5763
  177SLPC  C21420186   2.053   4.516   9.567 -0.1644 -0.0893  0.7377
  177SLPC  H14R20187   2.042   4.611   9.624  0.0012  1.0879 -1.0975
  177SLPC  H14S20188   2.015   4.435   9.632  2.6876 -1.7349  0.5401
  177SLPC  C21520189   1.975   4.543   9.443 -0.0643 -0.0516  0.3050
  177SLPC  H15R20190   1.866   4.552   9.459 -0.7036 -1.4658 -2.6190
  177SLPC  H15S20191   1.990   4.456   9.376  0.0152  1.5311 -1.8088
  177SLPC  C21620192   2.014   4.676   9.367  0.3025  0.0104 -0.0921
  177SLPC  H16R20193   2.120   4.692   9.337 -0.4662  1.1793 -2.3764
  177SLPC  H16S20194   2.000   4.750   9.448 -2.7291 -0.4971 -0.0365
  177SLPC  C21720195   1.913   4.694   9.257  0.0078 -0.7042  0.1515
  177SLPC  H17R20196   1.808   4.682   9.291 -0.0187  1.9732  1.2551
  177SLPC  H17S20197   1.932   4.617   9.180  1.5008 -0.3406  0.1324
  177SLPC  C21820198   1.930   4.837   9.185 -0.4519 -0.0147 -0.4522
  177SLPC  H18R20199   2.032   4.841   9.142 -1.1882  0.9414 -2.1853
  177SLPC  H18S20200   1.921   4.919   9.259  1.3246 -0.1332 -0.0614
  177SLPC  H18T20201   1.849   4.845   9.110 -0.5704  2.9699 -0.1190
  177SLPC   C3320202   2.982   4.634  10.548 -1.1969  0.4005 -0.3634
  177SLPC   H3X20203   3.060   4.693  10.602  1.0603 -0.4907 -2.4330
  177SLPC   H3Y20204   2.884   4.676  10.579  0.0796  3.8192 -0.4439
  177SLPC   C3420205   2.990   4.661  10.395  0.3826  0.3695  0.6748
  177SLPC   H4X20206   2.926   4.587  10.341  3.6510 -1.7425 -0.6088
  177SLPC   H4Y20207   3.095   4.633  10.374  0.3470  0.5465  0.2673
  177SLPC   C3520208   2.945   4.807  10.376  0.0205 -0.2680 -0.0362
  177SLPC   H5X20209   2.997   4.874  10.304 -1.4406  0.5452 -0.3780
  177SLPC   H5Y20210   2.958   4.851  10.477 -2.1151  2.0612 -0.6883
  177SLPC   C3620211   2.797   4.819  10.360  0.0825 -0.5186  0.7804
  177SLPC   H6X20212   2.777   4.925  10.389 -0.1758 -0.2322 -0.3815
  177SLPC   H6Y20213   2.740   4.751  10.427 -2.7742 -0.9250 -1.8029
  177SLPC   C3720214   2.751   4.805  10.210  0.1946  0.2747  0.4274
  177SLPC   H7X20215   2.641   4.820  10.210  0.1541  0.1571  1.8261
  177SLPC   H7Y20216   2.774   4.700  10.183  1.1809  0.0971  1.8510
  177SLPC   C3820217   2.803   4.909  10.104  0.6097  0.1544 -0.4984
  177SLPC   H8X20218   2.913   4.906  10.098  0.5543 -0.7878 -1.2649
  177SLPC   H8Y20219   2.783   5.013  10.138 -2.5816 -0.8743  1.2171
  177SLPC   C3920220   2.737   4.894   9.973  0.1869  0.4881 -0.5902
  177SLPC   H9X20221   2.639   4.946   9.976 -0.7887 -1.2773 -0.6192
  177SLPC   H9Y20222   2.714   4.790   9.940 -1.2471 -0.3119  2.5631
  177SLPC  C31020223   2.828   4.957   9.867 -0.2226 -0.7823 -0.5260
  177SLPC  H10X20224   2.931   4.917   9.855  1.0276  2.2935 -1.2790
  177SLPC  H10Y20225   2.831   5.068   9.873  0.9043 -0.8765  1.0554
  177SLPC  C31120226   2.769   4.929   9.725  0.4207 -0.6961 -0.2423
  177SLPC  H11X20227   2.698   5.013   9.716 -1.5831 -2.4045 -1.1753
  177SLPC  H11Y20228   2.703   4.840   9.716 -1.1190  0.5234 -1.6832
  177SLPC  C31220229   2.878   4.936   9.617  0.3861 -0.6151 -0.1947
  177SLPC  H12X20230   2.965   4.876   9.649  0.3916 -0.7545 -0.4642
  177SLPC  H12Y20231   2.907   5.042   9.599 -0.8995  0.2832  2.5686
  177SLPC  C31320232   2.825   4.866   9.492  0.3375  0.0957  0.8303
  177SLPC  H13X20233   2.714   4.878   9.496  0.3231 -0.3124  2.0362
  177SLPC  H13Y20234   2.838   4.756   9.500  2.2352  0.1722 -0.5314
  177SLPC  C31420235   2.873   4.931   9.363  0.5926  0.6784 -0.5143
  177SLPC  H14X20236   2.982   4.923   9.344  0.5178 -0.3303 -0.5667
  177SLPC  H14Y20237   2.838   5.036   9.372 -1.5144  0.0728 -0.9837
  177SLPC  C31520238   2.810   4.872   9.232 -1.0061 -0.1618 -0.3959
  177SLPC  H15X20239   2.701   4.891   9.243 -1.1287 -1.9815  2.5599
  177SLPC  H15Y20240   2.826   4.763   9.225  1.0037  0.1178 -0.5115
  177SLPC  C31620241   2.858   4.935   9.102 -0.1812 -0.3657 -0.1792
  177SLPC  H16X20242   2.957   4.890   9.077  1.1783 -0.1349  3.9410
  177SLPC  H16Y20243   2.874   5.043   9.123 -0.1707 -0.2319 -0.8515
  177SLPC  C31720244   2.765   4.928   8.980 -0.5061  0.1413 -0.0391
  177SLPC  H17X20245   2.657   4.938   9.006 -0.6847  0.2619 -0.8167
  177SLPC  H17Y20246   2.786   4.826   8.941  1.2815  0.8388 -1.0083
  177SLPC  C31820247   2.798   5.015   8.862 -0.6249 -0.4455 -0.4814
  177SLPC  H18X20248   2.724   5.010   8.779 -0.4565  0.3771 -0.6895
  177SLPC  H18Y20249   2.881   4.967   8.807 -2.6249 -2.0634 -2.2754
  177SLPC  H18Z20250   2.824   5.121   8.883  0.6328 -0.8672  0.1525
  178SLPC     N20251   3.462   2.588  11.586 -0.2095  0.0919 -0.1175
  178SLPC   C1320252   3.356   2.488  11.550  0.7858 -0.5272 -0.0528
  178SLPC  H13A20253   3.372   2.396  11.605 -0.2448  0.4593  2.0103
  178SLPC  H13B20254   3.262   2.520  11.591  1.4801  0.8403  0.5659
  178SLPC  H13C20255   3.363   2.459  11.446  1.8842  0.7269 -0.3648
  178SLPC   C1420256   3.462   2.621  11.732  0.6328 -0.2316 -0.2335
  178SLPC  H14A20257   3.520   2.711  11.749 -0.1465  0.1416  0.5201
  178SLPC  H14B20258   3.361   2.638  11.766  0.7405 -1.4791  0.8017
  178SLPC  H14C20259   3.495   2.546  11.802  1.7599 -1.2247 -1.7708
  178SLPC   C1520260   3.429   2.713  11.510 -0.5631 -0.0845  0.2848
  178SLPC  H15A20261   3.488   2.791  11.557  0.2741  0.8645 -2.1721
  178SLPC  H15B20262   3.467   2.703  11.409 -1.8844 -1.5307 -0.0968
  178SLPC  H15C20263   3.323   2.733  11.516 -0.6404  0.5634 -2.1205
  178SLPC   C1220264   3.598   2.540  11.544  0.2575  0.5009 -0.0146
  178SLPC  H12A20265   3.629   2.458  11.607 -1.3534  1.5546  2.3130
  178SLPC  H12B20266   3.672   2.614  11.566 -1.0007  1.3746  1.5105
  178SLPC   C1120267   3.620   2.518  11.390  0.1908  0.6486 -1.3299
  178SLPC  H11A20268   3.520   2.503  11.342 -2.8249  3.1549  3.3737
  178SLPC  H11B20269   3.688   2.431  11.380 -0.0192  0.1881  0.8924
  178SLPC     P20270   3.795   2.645  11.244 -0.2441  0.0351 -0.3539
  178SLPC   O1320271   3.773   2.753  11.142  0.0806  0.3521  0.5129
  178SLPC   O1420272   3.928   2.637  11.319 -0.3450 -0.3418 -0.2868
  178SLPC   O1220273   3.685   2.636  11.349  0.3143 -0.4592 -0.1046
  178SLPC   O1120274   3.781   2.505  11.173  0.5076 -0.4329  0.6610
  178SLPC    C120275   3.687   2.481  11.061  0.0218  0.9020  0.3560
  178SLPC    HA20276   3.629   2.393  11.095  2.1262 -0.7759 -0.1842
  178SLPC    HB20277   3.622   2.570  11.047 -0.3802  0.4998 -0.3610
  178SLPC    C220278   3.757   2.441  10.929 -0.0187  0.0735 -0.0864
  178SLPC    HS20279   3.805   2.343  10.948  1.0011  0.4406 -0.7295
  178SLPC   O2120280   3.845   2.546  10.887  0.4274 -0.2714  0.0697
  178SLPC   C2120281   3.970   2.525  10.927  0.1136 -0.5337 -0.2329
  178SLPC   O2220282   4.002   2.427  10.996  0.5090 -0.1341  0.2313
  178SLPC   C2220283   4.056   2.645  10.885 -0.0704  0.6580  0.4381
  178SLPC   H2R20284   4.030   2.725  10.958 -1.1104 -0.3728  1.2286
  178SLPC   H2S20285   4.163   2.618  10.883  0.3810  2.3522 -0.6233
  178SLPC    C320286   3.664   2.409  10.810 -0.2233  0.0004  0.4752
  178SLPC    HX20287   3.587   2.339  10.850  0.6618  0.2401  2.7622
  178SLPC    HY20288   3.724   2.346  10.741  1.1820  0.3383  1.3578
  178SLPC   O3120289   3.607   2.523  10.747 -0.0710 -0.6752 -0.4748
  178SLPC   C3120290   3.654   2.549  10.622  0.0949 -0.0898  0.3806
  178SLPC   O3220291   3.728   2.474  10.565 -0.0455  0.7955 -1.3611
  178SLPC   C3220292   3.600   2.680  10.561  0.4955  0.6392 -0.4095
  178SLPC   H2X20293   3.615   2.757  10.639  1.0690  0.2903 -0.1733
  178SLPC   H2Y20294   3.491   2.680  10.539  0.6826  3.1262 -1.7125
  178SLPC   C2320295   4.014   2.688  10.743  0.3660 -0.6413  0.1175
  178SLPC   H3R20296   4.016   2.798  10.760 -1.8953 -0.7025  1.1729
  178SLPC   H3S20297   3.911   2.670  10.706  1.3730 -0.3172 -3.1122
  178SLPC   C2420298   4.116   2.647  10.634 -0.1770 -0.5980  0.2836
  178SLPC   H4R20299   4.094   2.551  10.583 -0.8745  0.0516 -0.6731
  178SLPC   H4S20300   4.217   2.648  10.679  0.2993 -0.4698 -0.7567
  178SLPC   C2520301   4.131   2.746  10.524 -0.0185 -0.5758 -0.1300
  178SLPC   H5R20302   4.198   2.831  10.548 -0.6358 -0.3877  0.9720
  178SLPC   H5S20303   4.034   2.792  10.495  0.0443 -1.4024 -1.8133
  178SLPC   C2620304   4.173   2.678  10.392  0.5545  0.7060 -0.3729
  178SLPC   H6R20305   4.112   2.587  10.372 -1.1804  1.6177  0.5195
  178SLPC   H6S20306   4.280   2.647  10.390  0.8119  1.5985 -1.3944
  178SLPC   C2720307   4.153   2.770  10.267  0.1897  0.5588  0.4356
  178SLPC   H7R20308   4.199   2.870  10.284 -0.9261  1.6011 -2.2200
  178SLPC   H7S20309   4.043   2.767  10.253  0.1092  0.9720  0.9177
  178SLPC   C2820310   4.221   2.718  10.142 -0.3269 -0.5879  0.1791
  178SLPC   H8R20311   4.185   2.614  10.129  0.5841 -1.6566  4.5523
  178SLPC   H8S20312   4.330   2.714  10.160 -0.1041 -1.2883 -1.2207
  178SLPC   C2920313   4.186   2.802  10.023  0.2780 -0.3570 -0.7937
  178SLPC   H9R20314   4.182   2.909  10.050 -0.6200 -0.4921 -0.3343
  178SLPC  C21020315   4.159   2.764   9.905 -0.1130 -0.0323 -0.4271
  178SLPC  H10R20316   4.132   2.851   9.845 -1.2509  1.7789  2.4867
  178SLPC  C21120317   4.157   2.630   9.847  0.8494  0.4656  0.3340
  178SLPC  H11R20318   4.086   2.563   9.900  0.1841  1.8180  1.2165
  178SLPC  H11S20319   4.263   2.597   9.846  1.1220  1.1059 -2.6140
  178SLPC  C21220320   4.107   2.641   9.705 -0.1213 -0.4731 -0.0544
  178SLPC  H12R20321   4.008   2.601   9.677 -0.5316  0.3921  0.1260
  178SLPC  C21320322   4.174   2.699   9.598  0.7553  0.2622 -0.0753
  178SLPC  H13R20323   4.124   2.700   9.500 -0.3131  2.0671  0.4391
  178SLPC  C21420324   4.312   2.759   9.594  0.7678  0.2173 -1.2573
  178SLPC  H14R20325   4.350   2.761   9.699 -0.6081  0.1254 -0.7275
  178SLPC  H14S20326   4.295   2.865   9.566 -1.0771  0.4432  0.4209
  178SLPC  C21520327   4.412   2.679   9.512 -0.8004  0.4043  0.1361
  178SLPC  H15R20328   4.422   2.572   9.542 -0.9819 -0.9851 -4.1239
  178SLPC  H15S20329   4.515   2.720   9.521 -0.6136 -0.1003  0.3529
  178SLPC  C21620330   4.372   2.660   9.362 -0.7232 -0.2156  0.2567
  178SLPC  H16R20331   4.340   2.754   9.312  0.2023 -0.3432 -0.6194
  178SLPC  H16S20332   4.296   2.579   9.359  1.9833 -2.9097 -0.9732
  178SLPC  C21720333   4.495   2.614   9.271 -0.3449 -0.1129 -0.0767
  178SLPC  H17R20334   4.459   2.559   9.182  1.2879 -0.0734 -0.7940
  178SLPC  H17S20335   4.564   2.542   9.320 -0.9313 -0.6452 -0.0280
  178SLPC  C21820336   4.575   2.733   9.218  0.7581  0.8061 -0.0351
  178SLPC  H18R20337   4.605   2.805   9.298 -2.9199  0.7299  1.6021
  178SLPC  H18S20338   4.509   2.790   9.149 -0.0486  0.9284  0.8145
  178SLPC  H18T20339   4.660   2.698   9.156 -0.7971 -1.9700 -0.7548
  178SLPC   C3320340   3.677   2.735  10.442 -1.1061  0.3772  0.0619
  178SLPC   H3X20341   3.781   2.697  10.453 -1.1160  0.1847 -0.4789
  178SLPC   H3Y20342   3.682   2.845  10.460  2.6556  0.0432  2.0413
  178SLPC   C3420343   3.632   2.690  10.304  0.3144 -0.4681 -0.4085
  178SLPC   H4X20344   3.525   2.718  10.293  0.0707  0.8836  3.5637
  178SLPC   H4Y20345   3.648   2.581  10.291  0.8352 -0.4257 -0.1911
  178SLPC   C3520346   3.712   2.781  10.206 -0.5270  0.1413 -0.1323
  178SLPC   H5X20347   3.814   2.793  10.250 -0.7852 -0.0640  0.5436
  178SLPC   H5Y20348   3.689   2.890  10.201  2.2428  0.7693 -0.8844
  178SLPC   C3620349   3.711   2.708  10.062 -0.1961  0.1006 -0.6376
  178SLPC   H6X20350   3.604   2.687  10.038 -1.0044  3.0856  0.0093
  178SLPC   H6Y20351   3.757   2.607  10.070 -1.0983 -0.2986 -0.3083
  178SLPC   C3720352   3.779   2.796   9.955 -0.2431 -0.2253  0.1533
  178SLPC   H7X20353   3.888   2.779   9.947 -0.5177 -1.9498 -0.6185
  178SLPC   H7Y20354   3.765   2.904   9.974  0.8107  0.1707 -1.2207
  178SLPC   C3820355   3.716   2.764   9.822  0.5121  0.2964 -0.0097
  178SLPC   H8X20356   3.607   2.785   9.821  0.3505 -0.4453 -1.6487
  178SLPC   H8Y20357   3.730   2.655   9.806  1.1643 -0.1484  3.0451
  178SLPC   C3920358   3.767   2.840   9.704  0.3967  0.3680  1.0682
  178SLPC   H9X20359   3.876   2.827   9.715  0.1980 -1.9750  0.8949
  178SLPC   H9Y20360   3.742   2.948   9.710 -0.1319  0.2298  1.4854
  178SLPC  C31020361   3.722   2.783   9.567  0.5267 -0.3553 -0.5553
  178SLPC  H10X20362   3.612   2.785   9.550  0.5111  1.7875 -0.5151
  178SLPC  H10Y20363   3.743   2.675   9.560  1.7084 -0.0227 -3.4215
  178SLPC  C31120364   3.803   2.851   9.458  0.4010 -0.4321  0.1544
  178SLPC  H11X20365   3.911   2.838   9.479  0.4489  0.9185  0.8444
  178SLPC  H11Y20366   3.783   2.959   9.472 -0.6618 -0.7661  1.5039
  178SLPC  C31220367   3.775   2.798   9.313  0.7220 -0.7067 -0.0854
  178SLPC  H12X20368   3.665   2.794   9.294  0.3551 -0.2164  1.6839
  178SLPC  H12Y20369   3.814   2.698   9.286 -1.9796 -1.7161 -0.6337
  178SLPC  C31320370   3.834   2.894   9.217 -0.0546  0.1526 -0.0324
  178SLPC  H13X20371   3.839   2.994   9.267  0.6577 -1.6750  3.9403
  178SLPC  H13Y20372   3.776   2.896   9.122 -0.4950  1.4396  0.2411
  178SLPC  C31420373   3.980   2.868   9.169  0.1749  0.2502 -0.3685
  178SLPC  H14X20374   4.025   2.818   9.257 -0.3478  1.2002  0.4554
  178SLPC  H14Y20375   4.014   2.972   9.150  0.5008  0.1649 -0.2524
  178SLPC  C31520376   3.980   2.787   9.042 -0.2455 -0.0824  0.6765
  178SLPC  H15X20377   3.926   2.699   9.083 -0.4480  0.2849  1.2207
  178SLPC  H15Y20378   3.927   2.836   8.958  1.6431  0.9278  0.0087
  178SLPC  C31620379   4.123   2.730   8.982  0.1242  0.1140  0.2603
  178SLPC  H16X20380   4.101   2.648   8.911  1.5593  0.9081 -1.1912
  178SLPC  H16Y20381   4.175   2.682   9.067  0.1148 -0.4810 -0.0685
  178SLPC  C31720382   4.216   2.833   8.923  0.2127 -0.2496 -0.0034
  178SLPC  H17X20383   4.231   2.913   8.999  1.9561  1.0840 -1.6600
  178SLPC  H17Y20384   4.176   2.886   8.833  1.3342  3.1432  1.3046
  178SLPC  C31820385   4.339   2.767   8.884 -0.6504 -0.5105  0.1272
  178SLPC  H18X20386   4.421   2.837   8.854 -0.4454 -1.0022 -0.4651
  178SLPC  H18Y20387   4.325   2.704   8.794  0.3567  0.1816 -0.5377
  178SLPC  H18Z20388   4.391   2.693   8.948  1.8992 -0.5051 -1.7639
  179SLPC     N20389   5.799   5.656  10.930 -0.2565  0.1114 -0.3479
  179SLPC   C1320390   5.703   5.582  10.853  0.4376 -0.4791  0.5835
  179SLPC  H13A20391   5.664   5.641  10.771  1.1438  0.1565  0.6964
  179SLPC  H13B20392   5.733   5.487  10.813  0.8457  0.2390 -0.8817
  179SLPC  H13C20393   5.613   5.556  10.907 -0.4115 -0.4965 -0.7654
  179SLPC   C1420394   5.824   5.561  11.056  0.2524  0.3900  0.5553
  179SLPC  H14A20395   5.868   5.606  11.144  1.3469  1.6395 -0.5725
  179SLPC  H14B20396   5.728   5.523  11.085  1.3825 -2.3113  1.0566
  179SLPC  H14C20397   5.892   5.479  11.033 -0.4953 -0.2654  0.6423
  179SLPC   C1520398   5.747   5.785  10.984  0.0326 -0.9679  0.1888
  179SLPC  H15A20399   5.650   5.763  11.025  0.1222  0.9591  1.5620
  179SLPC  H15B20400   5.815   5.831  11.054 -0.4635  0.8751 -0.4839
  179SLPC  H15C20401   5.739   5.859  10.906 -3.4247 -0.4391  0.8893
  179SLPC   C1220402   5.935   5.673  10.854 -0.0372  0.1309  0.3420
  179SLPC  H12A20403   5.975   5.578  10.824  1.6824  0.3499  1.7373
  179SLPC  H12B20404   6.006   5.701  10.931 -2.0457 -2.1920  3.2962
  179SLPC   C1120405   5.944   5.757  10.722  0.9345  0.1761  0.0977
  179SLPC  H11A20406   5.865   5.713  10.657  0.6024  0.4736  0.2929
  179SLPC  H11B20407   6.043   5.748  10.673  1.2533  1.7373  0.3940
  179SLPC     P20408   6.013   5.994  10.794  0.0692  0.2273  0.0391
  179SLPC   O1320409   5.942   6.128  10.818  0.2063  0.8368  0.1429
  179SLPC   O1420410   6.086   5.937  10.910 -0.3557  0.0003 -0.3983
  179SLPC   O1220411   5.903   5.888  10.750  0.0570  0.1028 -0.0812
  179SLPC   O1120412   6.112   6.004  10.673 -0.3718  0.0208 -0.5359
  179SLPC    C120413   6.063   6.040  10.539 -0.0661 -0.0461 -0.0812
  179SLPC    HA20414   6.116   5.975  10.467 -1.4465 -2.4972  1.0017
  179SLPC    HB20415   5.959   6.005  10.523 -0.3178  0.7173 -0.1766
  179SLPC    C220416   6.103   6.183  10.500 -0.2977 -0.1737  0.0984
  179SLPC    HS20417   6.034   6.246  10.561 -1.7155 -1.4050 -0.1739
  179SLPC   O2120418   6.098   6.221  10.361 -0.7337  0.1028  0.5318
  179SLPC   C2120419   5.981   6.218  10.304  0.3991  0.7025  0.0013
  179SLPC   O2220420   5.877   6.178  10.358 -0.3033  0.6889  0.0504
  179SLPC   C2220421   5.987   6.261  10.160 -0.2045  0.1104 -0.0695
  179SLPC   H2R20422   5.967   6.370  10.167  0.4771  0.1642  1.4701
  179SLPC   H2S20423   6.088   6.248  10.116  0.1869 -0.9100  1.0765
  179SLPC    C320424   6.243   6.209  10.555 -0.0980 -0.5133  0.8124
  179SLPC    HX20425   6.251   6.207  10.665  2.4669  2.0267  0.7901
  179SLPC    HY20426   6.262   6.313  10.519  2.0042 -0.5459  1.7055
  179SLPC   O3120427   6.334   6.110  10.505 -0.1575 -0.1566 -0.1215
  179SLPC   C3120428   6.413   6.133  10.404  0.3162  0.4067 -0.3343
  179SLPC   O3220429   6.427   6.238  10.348 -0.3904 -1.3241 -1.0767
  179SLPC   C3220430   6.502   6.013  10.373  0.2857 -0.6116  0.6154
  179SLPC   H2X20431   6.512   5.963  10.472  0.3306  0.4851  1.1803
  179SLPC   H2Y20432   6.603   6.049  10.346  0.7784 -2.2787  0.1278
  179SLPC   C2320433   5.877   6.211  10.064 -0.2296 -0.1219 -0.2445
  179SLPC   H3R20434   5.780   6.216  10.117 -0.9291 -0.1377 -1.4725
  179SLPC   H3S20435   5.891   6.105  10.033 -0.0970  0.1054 -0.9789
  179SLPC   C2420436   5.876   6.289   9.940 -0.2428  0.7307  0.1634
  179SLPC   H4R20437   5.965   6.353   9.919  0.1439  0.1054 -0.1552
  179SLPC   H4S20438   5.787   6.354   9.950 -1.6934 -1.1783  0.1310
  179SLPC   C2520439   5.851   6.203   9.812  0.3399  0.3202 -0.4086
  179SLPC   H5R20440   5.750   6.157   9.823  0.0488  0.2920 -2.8037
  179SLPC   H5S20441   5.921   6.117   9.805 -1.7330 -1.6078  1.0857
  179SLPC   C2620442   5.863   6.283   9.683  0.1417 -0.5675  0.1487
  179SLPC   H6R20443   5.967   6.319   9.693  0.7865 -1.3593 -2.6530
  179SLPC   H6S20444   5.805   6.377   9.678 -0.9843 -1.2824 -1.2040
  179SLPC   C2720445   5.834   6.201   9.555 -0.8423 -0.7114 -0.2939
  179SLPC   H7R20446   5.741   6.144   9.575  0.0350 -1.9756  0.2708
  179SLPC   H7S20447   5.920   6.131   9.549 -0.5904 -0.3657 -0.8249
  179SLPC   C2820448   5.825   6.293   9.425 -0.0561 -0.0901  0.0506
  179SLPC   H8R20449   5.908   6.367   9.424  0.6306 -0.8480  0.1817
  179SLPC   H8S20450   5.728   6.345   9.437  0.4288  0.7367  0.5307
  179SLPC   C2920451   5.816   6.206   9.305  0.2257 -0.6913 -0.4028
  179SLPC   H9R20452   5.770   6.109   9.324 -2.6962  0.6209 -0.2109
  179SLPC  C21020453   5.852   6.229   9.176  0.2900 -0.6666  0.0267
  179SLPC  H10R20454   5.841   6.160   9.092 -1.4337 -1.8520  1.1581
  179SLPC  C21120455   5.905   6.361   9.127 -0.4402  0.1009 -0.2374
  179SLPC  H11R20456   5.909   6.438   9.207 -1.9488 -0.6469  0.6133
  179SLPC  H11S20457   5.834   6.404   9.054  0.0969  0.2075 -0.7015
  179SLPC  C21220458   6.037   6.335   9.071  0.2151  0.2228 -0.0694
  179SLPC  H12R20459   6.111   6.311   9.149  0.1445  1.0341  0.2534
  179SLPC  C21320460   6.079   6.327   8.946 -0.1095  0.1391  0.3164
  179SLPC  H13R20461   6.177   6.282   8.927 -1.7229 -3.9189  0.6530
  179SLPC  C21420462   5.987   6.338   8.824  0.7969 -0.1984 -0.9583
  179SLPC  H14R20463   5.882   6.347   8.861  1.7669 -0.8515  2.3551
  179SLPC  H14S20464   5.995   6.251   8.755 -0.7867 -0.9936 -0.2089
  179SLPC  C21520465   6.028   6.464   8.753 -0.6043 -0.2756  0.0941
  179SLPC  H15R20466   6.139   6.468   8.743 -0.7574  1.1025 -1.4279
  179SLPC  H15S20467   6.005   6.553   8.815  1.0406  0.4909 -0.3300
  179SLPC  C21620468   5.964   6.481   8.618  0.1610 -0.7033 -0.1727
  179SLPC  H16R20469   5.860   6.449   8.638  0.0240 -0.1621 -0.0125
  179SLPC  H16S20470   6.005   6.405   8.547  0.9665 -3.7531  3.2427
  179SLPC  C21720471   5.980   6.628   8.565 -0.0657  0.1021 -0.5334
  179SLPC  H17R20472   5.987   6.697   8.652 -1.3774  1.6616 -1.6178
  179SLPC  H17S20473   5.906   6.635   8.483  0.8746 -3.2847 -1.8392
  179SLPC  C21820474   6.114   6.641   8.481  0.2784 -0.2074 -0.6383
  179SLPC  H18R20475   6.200   6.634   8.550 -1.8767 -0.1211  2.2594
  179SLPC  H18S20476   6.125   6.744   8.440  2.0284 -0.4852 -0.9407
  179SLPC  H18T20477   6.112   6.562   8.402  0.3661  2.3718 -3.4322
  179SLPC   C3320478   6.443   5.923  10.261 -0.1611 -0.3740 -0.7225
  179SLPC   H3X20479   6.350   5.871  10.293  1.4365 -2.7991  0.3010
  179SLPC   H3Y20480   6.509   5.836  10.243  1.6119  1.2479 -2.6407
  179SLPC   C3420481   6.425   6.003  10.129  0.1225 -0.8633 -0.1874
  179SLPC   H4X20482   6.519   6.046  10.089 -0.2328 -0.2149 -0.3442
  179SLPC   H4Y20483   6.353   6.086  10.147  0.4010 -0.2572 -1.7618
  179SLPC   C3520484   6.345   5.923  10.029 -0.2897  0.2052  0.4563
  179SLPC   H5X20485   6.240   5.915  10.065  0.1894 -1.4090  1.6261
  179SLPC   H5Y20486   6.399   5.825  10.026 -0.6327  0.0364 -0.3798
  179SLPC   C3620487   6.354   5.984   9.889 -0.2154  1.0187  0.3308
  179SLPC   H6X20488   6.456   5.982   9.845 -0.0907 -2.2091  0.5533
  179SLPC   H6Y20489   6.328   6.092   9.892 -0.2027  1.0159  0.5183
  179SLPC   C3720490   6.279   5.901   9.776  0.4140 -0.3725  0.0465
  179SLPC   H7X20491   6.281   5.953   9.678 -4.3547  2.0705  0.9243
  179SLPC   H7Y20492   6.170   5.901   9.799 -0.0224  2.9676 -1.4426
  179SLPC   C3820493   6.343   5.764   9.749  0.6574  0.7842 -0.5731
  179SLPC   H8X20494   6.369   5.707   9.840  0.2895 -0.9641 -1.5329
  179SLPC   H8Y20495   6.443   5.784   9.704  2.1438 -3.7358  0.2304
  179SLPC   C3920496   6.241   5.688   9.659  0.6830 -0.2701  0.9455
  179SLPC   H9X20497   6.213   5.765   9.584 -1.2154 -1.2525  0.5795
  179SLPC   H9Y20498   6.148   5.648   9.705  0.6692 -0.6771  0.5709
  179SLPC  C31020499   6.304   5.591   9.563  0.1704  0.2682  0.2672
  179SLPC  H10X20500   6.330   5.498   9.616 -0.4817  0.5139  1.0381
  179SLPC  H10Y20501   6.394   5.640   9.520 -1.2955  2.3555 -0.6364
  179SLPC  C31120502   6.211   5.545   9.443  0.6416 -0.7204  0.7349
  179SLPC  H11X20503   6.270   5.463   9.395  2.7869  0.7868  0.6473
  179SLPC  H11Y20504   6.190   5.613   9.358 -1.6900 -3.7446 -1.3232
  179SLPC  C31220505   6.079   5.496   9.502  0.3216 -0.8327  0.2905
  179SLPC  H12X20506   6.012   5.583   9.518  0.0796 -0.5068 -2.1306
  179SLPC  H12Y20507   6.108   5.464   9.605 -0.9542  0.8603  1.2177
  179SLPC  C31320508   5.994   5.394   9.416  0.6872  0.1468  0.3166
  179SLPC  H13X20509   6.070   5.343   9.352  0.0721  0.0863 -0.3748
  179SLPC  H13Y20510   5.932   5.451   9.344  1.6606  0.8035 -0.0350
  179SLPC  C31420511   5.909   5.294   9.499  0.3032 -0.3927  0.8405
  179SLPC  H14X20512   5.830   5.339   9.563  0.1483 -2.7252  2.4475
  179SLPC  H14Y20513   5.972   5.243   9.576 -1.0584 -2.4756  0.6517
  179SLPC  C31520514   5.840   5.199   9.397 -0.3667 -0.2717 -0.6255
  179SLPC  H15X20515   5.912   5.146   9.331  0.6870 -1.1119  1.1107
  179SLPC  H15Y20516   5.784   5.274   9.337 -0.4109 -0.5079 -0.8808
  179SLPC  C31620517   5.760   5.091   9.468 -0.6364  0.2821 -0.0834
  179SLPC  H16X20518   5.665   5.127   9.514 -1.4491 -2.1560  0.2942
  179SLPC  H16Y20519   5.822   5.056   9.554 -0.5634 -0.3097 -0.3711
  179SLPC  C31720520   5.734   4.975   9.369  0.4638 -0.3851 -0.0378
  179SLPC  H17X20521   5.692   4.880   9.409  0.5481 -0.8051 -0.9350
  179SLPC  H17Y20522   5.826   4.956   9.310 -0.5820  0.2897 -1.9816
  179SLPC  C31820523   5.627   5.017   9.272  0.2967  0.3150  0.5117
  179SLPC  H18X20524   5.534   5.021   9.332 -0.9425  0.5031 -1.3263
  179SLPC  H18Y20525   5.614   4.940   9.193  1.6722 -0.0611  0.6323
  179SLPC  H18Z20526   5.639   5.108   9.210  0.7147  0.4630  0.8103
  180SLPC     N20527   1.486   2.927  11.137  0.0816 -0.4338  0.0355
  180SLPC   C1320528   1.551   2.820  11.052 -0.2602  0.1617 -0.3439
  180SLPC  H13A20529   1.656   2.834  11.032 -0.2792  0.4447 -0.2404
  180SLPC  H13B20530   1.543   2.723  11.099  0.1747  0.5084  0.4542
  180SLPC  H13C20531   1.494   2.793  10.964  0.9142 -2.7742 -0.3057
  180SLPC   C1420532   1.559   2.931  11.271 -0.8699  0.2441  0.5241
  180SLPC  H14A20533   1.569   2.831  11.311  0.0767  1.0609  2.4337
  180SLPC  H14B20534   1.660   2.959  11.245 -0.6418 -2.1022 -1.4983
  180SLPC  H14C20535   1.512   2.986  11.351  0.0117 -1.2815  2.1639
  180SLPC   C1520536   1.349   2.891  11.172  0.2701 -0.1004 -0.1304
  180SLPC  H15A20537   1.337   2.790  11.209 -1.2910  0.3344  0.6568
  180SLPC  H15B20538   1.312   2.961  11.245 -0.6379 -0.7907  0.0924
  180SLPC  H15C20539   1.279   2.908  11.091 -1.7173  2.3280  1.9128
  180SLPC   C1220540   1.490   3.063  11.073 -0.2296 -0.8203 -0.1616
  180SLPC  H12A20541   1.591   3.084  11.039 -0.8087 -0.5734 -1.8044
  180SLPC  H12B20542   1.474   3.134  11.152 -2.3704  0.6004 -1.7628
  180SLPC   C1120543   1.409   3.096  10.951 -0.0559  0.3119  0.4547
  180SLPC  H11A20544   1.299   3.092  10.967 -0.3351 -1.4281 -1.4923
  180SLPC  H11B20545   1.434   3.018  10.877 -0.2878 -0.3562  1.0678
  180SLPC     P20546   1.393   3.352  10.968  0.4718  0.3044 -0.1256
  180SLPC   O1320547   1.378   3.321  11.109  0.1854 -0.0045  0.4630
  180SLPC   O1420548   1.477   3.466  10.926  0.4498 -0.4809  0.1259
  180SLPC   O1220549   1.448   3.222  10.902 -0.4778 -0.4156  0.3413
  180SLPC   O1120550   1.237   3.365  10.911 -0.5586 -0.3897 -0.3358
  180SLPC    C120551   1.177   3.297  10.807 -0.4058 -0.5520 -0.0993
  180SLPC    HA20552   1.220   3.197  10.782  0.9539 -0.5095  1.8849
  180SLPC    HB20553   1.075   3.281  10.847  0.1265 -0.5700  1.2787
  180SLPC    C220554   1.168   3.386  10.686  0.1097  0.6694  0.3867
  180SLPC    HS20555   1.107   3.342  10.604 -0.8360  2.4737  0.0824
  180SLPC   O2120556   1.298   3.413  10.642 -0.5585 -0.4999  0.7832
  180SLPC   C2120557   1.356   3.321  10.573 -0.2908 -0.0121 -0.9835
  180SLPC   O2220558   1.307   3.211  10.544  0.3632 -0.3215  0.5158
  180SLPC   C2220559   1.505   3.352  10.551  0.2331  0.8393  0.5970
  180SLPC   H2R20560   1.535   3.418  10.635 -0.1634  1.4639  0.2531
  180SLPC   H2S20561   1.554   3.253  10.546  0.7045  1.0929  0.1121
  180SLPC    C320562   1.086   3.514  10.711  0.2890 -0.2967 -0.1993
  180SLPC    HX20563   1.128   3.585  10.785  0.7617 -1.0048  0.2314
  180SLPC    HY20564   0.992   3.478  10.759 -0.5023  0.9517 -0.7849
  180SLPC   O3120565   1.049   3.587  10.589 -0.2962  0.7674  0.2841
  180SLPC   C3120566   1.138   3.676  10.532 -0.4576  0.4537  0.0183
  180SLPC   O3220567   1.246   3.702  10.583 -0.7067  0.1003  0.2265
  180SLPC   C3220568   1.083   3.737  10.414  0.3327 -0.2761  0.1321
  180SLPC   H2X20569   1.100   3.847  10.419 -0.2415 -0.1379 -0.8737
  180SLPC   H2Y20570   0.975   3.715  10.406 -0.2782  1.5197  2.2260
  180SLPC   C2320571   1.504   3.436  10.420  0.0204 -0.2183 -0.1551
  180SLPC   H3R20572   1.610   3.471  10.413 -0.1012  0.0140 -0.8526
  180SLPC   H3S20573   1.440   3.525  10.435 -0.3029 -0.6869  1.4263
  180SLPC   C2420574   1.457   3.364  10.298 -0.5137 -0.3033  0.3325
  180SLPC   H4R20575   1.355   3.402  10.274 -1.0785 -1.5157  0.7611
  180SLPC   H4S20576   1.444   3.254  10.300  1.2142 -0.6371 -2.1287
  180SLPC   C2520577   1.551   3.404  10.175  0.5953 -0.0265 -0.3320
  180SLPC   H5R20578   1.657   3.385  10.199  0.3854  0.9448  1.5901
  180SLPC   H5S20579   1.551   3.515  10.176  0.1026  0.0000  1.7135
  180SLPC   C2620580   1.499   3.349  10.044 -0.8262 -0.2258  0.5823
  180SLPC   H6R20581   1.388   3.341  10.033 -0.8195  0.8838 -0.4786
  180SLPC   H6S20582   1.527   3.241  10.044 -2.2707 -0.6412 -0.5324
  180SLPC   C2720583   1.550   3.415   9.919 -0.0716  0.2771 -0.3857
  180SLPC   H7R20584   1.659   3.399   9.901  0.0026  0.6812 -0.3027
  180SLPC   H7S20585   1.534   3.524   9.933 -3.4584 -0.1062 -0.3630
  180SLPC   C2820586   1.476   3.372   9.794  0.0566  0.1712 -0.1758
  180SLPC   H8R20587   1.366   3.382   9.802 -0.3874 -1.9879 -2.2780
  180SLPC   H8S20588   1.489   3.263   9.776  0.3851  0.5617 -2.6172
  180SLPC   C2920589   1.535   3.435   9.677  0.2302 -0.8583  0.3717
  180SLPC   H9R20590   1.634   3.391   9.654  0.8774  1.7791 -2.5945
  180SLPC  C21020591   1.478   3.534   9.600 -0.2268  0.1982 -0.1089
  180SLPC  H10R20592   1.541   3.571   9.518  1.0771 -0.2170  0.6679
  180SLPC  C21120593   1.345   3.605   9.618  0.8383  0.2701  0.1593
  180SLPC  H11R20594   1.373   3.710   9.641 -1.6206  1.2774 -0.9707
  180SLPC  H11S20595   1.291   3.569   9.708 -0.2655 -0.7552 -0.8698
  180SLPC  C21220596   1.262   3.609   9.493  0.4026 -0.0855 -0.5308
  180SLPC  H12R20597   1.167   3.557   9.513  0.2660  1.2523  2.8801
  180SLPC  C21320598   1.277   3.677   9.377  0.1077 -0.1791  0.5666
  180SLPC  H13R20599   1.202   3.659   9.298  0.3662  0.0327  0.2669
  180SLPC  C21420600   1.389   3.766   9.335 -0.1711 -0.0353  0.2044
  180SLPC  H14R20601   1.472   3.762   9.410  0.3385 -2.4713 -0.4257
  180SLPC  H14S20602   1.348   3.869   9.328 -2.0019 -0.7175  0.3932
  180SLPC  C21520603   1.452   3.731   9.191  0.1874  0.2803  0.4767
  180SLPC  H15R20604   1.522   3.812   9.162 -0.0795  0.3893  0.1292
  180SLPC  H15S20605   1.370   3.741   9.117 -0.0324  1.1609  0.8263
  180SLPC  C21620606   1.534   3.603   9.190  0.7386 -0.0641  0.1516
  180SLPC  H16R20607   1.477   3.513   9.222  0.8691 -0.3217 -0.3252
  180SLPC  H16S20608   1.615   3.618   9.265  0.7353  1.0992 -0.0572
  180SLPC  C21720609   1.596   3.579   9.052  0.4957 -0.4692  0.7007
  180SLPC  H17R20610   1.657   3.669   9.030  0.5034 -0.4596  0.7615
  180SLPC  H17S20611   1.510   3.576   8.982  0.7346  1.5597  0.2456
  180SLPC  C21820612   1.689   3.460   9.037  0.0271 -0.3608 -0.4894
  180SLPC  H18R20613   1.779   3.464   9.104  1.6428  0.0063 -2.5756
  180SLPC  H18S20614   1.733   3.459   8.935  0.8393  0.9652 -0.1930
  180SLPC  H18T20615   1.627   3.374   9.067  1.1171 -0.8626  0.4064
  180SLPC   C3320616   1.166   3.705  10.286  0.4386  0.4600 -0.1753
  180SLPC   H3X20617   1.163   3.596  10.267 -0.1888  0.3148  0.6623
  180SLPC   H3Y20618   1.268   3.748  10.292  0.5964 -0.0648  1.3603
  180SLPC   C3420619   1.092   3.759  10.157  0.6819  0.4239 -0.1722
  180SLPC   H4X20620   1.164   3.817  10.096  0.0904  0.3934 -0.9105
  180SLPC   H4Y20621   1.029   3.843  10.194  0.1047  0.9139 -2.1618
  180SLPC   C3520622   1.010   3.648  10.097  0.5095 -0.0669 -0.1160
  180SLPC   H5X20623   0.946   3.610  10.180 -0.0161  2.5028  0.7505
  180SLPC   H5Y20624   1.070   3.565  10.055 -0.2333 -0.3490 -0.6424
  180SLPC   C3620625   0.908   3.688   9.996 -0.7890  0.0300 -0.0770
  180SLPC   H6X20626   0.860   3.782  10.033 -2.6994 -1.5341  1.6462
  180SLPC   H6Y20627   0.823   3.617   9.987 -0.1060 -0.6855 -1.1511
  180SLPC   C3720628   0.964   3.728   9.865 -0.6577  0.2057  0.9430
  180SLPC   H7X20629   0.991   3.634   9.813 -1.0489  0.9545 -0.7039
  180SLPC   H7Y20630   1.057   3.785   9.886  1.3332 -2.5602  0.2149
  180SLPC   C3820631   0.858   3.785   9.770  0.4966 -0.4315  0.5726
  180SLPC   H8X20632   0.806   3.855   9.838 -0.3370 -0.8291  0.3573
  180SLPC   H8Y20633   0.785   3.708   9.736  1.0968 -0.7961  0.0756
  180SLPC   C3920634   0.919   3.861   9.655  0.2882 -0.0220  0.1756
  180SLPC   H9X20635   0.967   3.808   9.571 -0.6056  0.6489 -0.7834
  180SLPC   H9Y20636   0.990   3.934   9.701  1.1268 -0.0426 -1.0316
  180SLPC  C31020637   0.803   3.928   9.570  0.1881  0.1389  0.0094
  180SLPC  H10X20638   0.850   4.009   9.510  0.9316 -1.0170 -1.0171
  180SLPC  H10Y20639   0.717   3.968   9.627 -0.6232  0.3598 -1.3218
  180SLPC  C31120640   0.727   3.837   9.476 -0.1602 -0.4652  0.7542
  180SLPC  H11X20641   0.646   3.779   9.525 -2.8321  2.7522  0.5664
  180SLPC  H11Y20642   0.793   3.769   9.418 -0.8510  0.6516 -1.4582
  180SLPC  C31220643   0.658   3.918   9.360  0.0942 -0.7274  0.2114
  180SLPC  H12X20644   0.737   3.983   9.316  0.0669 -1.9003 -1.6899
  180SLPC  H12Y20645   0.576   3.980   9.401  0.6919 -0.6790  1.3834
  180SLPC  C31320646   0.602   3.840   9.239  0.7023 -0.2402  0.4550
  180SLPC  H13X20647   0.679   3.785   9.180  0.3617  0.1335 -0.3520
  180SLPC  H13Y20648   0.547   3.906   9.169  0.8677 -0.7894 -0.2037
  180SLPC  C31420649   0.508   3.728   9.285  0.4238 -0.9223  0.8347
  180SLPC  H14X20650   0.420   3.781   9.327  0.9376 -0.6366  1.5800
  180SLPC  H14Y20651   0.563   3.674   9.365 -1.1583 -1.8149  1.3695
  180SLPC  C31520652   0.452   3.632   9.175 -0.0174 -0.2884  0.0923
  180SLPC  H15X20653   0.539   3.595   9.117  0.4353  1.3476 -0.3246
  180SLPC  H15Y20654   0.391   3.692   9.104  0.5398 -1.3623 -1.3382
  180SLPC  C31620655   0.372   3.511   9.222 -0.0783 -0.7783  0.1638
  180SLPC  H16X20656   0.277   3.535   9.275  0.6527  1.8962  0.3733
  180SLPC  H16Y20657   0.424   3.464   9.308  0.2267 -0.3893  0.1930
  180SLPC  C31720658   0.334   3.408   9.111 -0.8938 -0.1792  0.2812
  180SLPC  H17X20659   0.251   3.452   9.052 -2.5184 -0.2398  2.4161
  180SLPC  H17Y20660   0.283   3.323   9.161  1.1693 -1.0728  0.9846
  180SLPC  C31820661   0.463   3.366   9.030 -0.1421 -0.3615  0.3526
  180SLPC  H18X20662   0.438   3.280   8.964 -0.6796 -0.2186  0.3679
  180SLPC  H18Y20663   0.546   3.337   9.098 -0.2119  0.0760  0.6252
  180SLPC  H18Z20664   0.497   3.455   8.973  1.6967 -0.2238  1.5880
  181SLPC     N20665   3.976   3.564  11.504 -0.4647  0.1761 -0.5009
  181SLPC   C1320666   4.049   3.488  11.608  1.0054  0.6828 -0.9725
  181SLPC  H13A20667   3.985   3.427  11.670  1.4558  1.6703  0.5393
  181SLPC  H13B20668   4.112   3.418  11.555  0.2229  0.2243 -1.3107
  181SLPC  H13C20669   4.112   3.553  11.668 -1.7940  1.9901  0.7614
  181SLPC   C1420670   4.078   3.665  11.446  0.4108 -1.0124 -0.1198
  181SLPC  H14A20671   4.025   3.734  11.381  0.0325 -2.3398 -1.2693
  181SLPC  H14B20672   4.124   3.725  11.524 -0.1290 -0.0810 -0.5005
  181SLPC  H14C20673   4.148   3.614  11.381  1.1577  1.8404 -1.7343
  181SLPC   C1520674   3.856   3.628  11.567 -0.4648  0.6541 -0.0198
  181SLPC  H15A20675   3.785   3.551  11.595 -0.4857  0.5500 -0.3608
  181SLPC  H15B20676   3.893   3.676  11.657  1.7957 -1.7550  0.4519
  181SLPC  H15C20677   3.807   3.692  11.495 -1.6820 -0.8670 -0.6110
  181SLPC   C1220678   3.938   3.470  11.383  1.0742 -0.2390  0.3545
  181SLPC  H12A20679   4.029   3.432  11.340  0.1086 -2.4081  0.0856
  181SLPC  H12B20680   3.880   3.536  11.320  0.9834 -0.4616  0.2027
  181SLPC   C1120681   3.857   3.343  11.413 -0.1506 -0.0371 -0.2631
  181SLPC  H11A20682   3.918   3.263  11.459 -1.5316 -0.7935  0.3245
  181SLPC  H11B20683   3.825   3.300  11.316 -3.2403 -0.6988  0.9036
  181SLPC     P20684   3.606   3.401  11.438 -0.0440 -0.3402 -0.4566
  181SLPC   O1320685   3.516   3.287  11.468 -0.2729  0.0363  0.0251
  181SLPC   O1420686   3.572   3.534  11.495 -0.0956 -0.2646 -0.5792
  181SLPC   O1220687   3.748   3.364  11.496  0.2696 -0.4068 -0.2433
  181SLPC   O1120688   3.628   3.402  11.278 -0.3047  0.7356  0.4592
  181SLPC    C120689   3.603   3.536  11.219  0.3232  0.6853  0.2788
  181SLPC    HA20690   3.653   3.615  11.280  1.7912  0.3672 -0.4586
  181SLPC    HB20691   3.651   3.554  11.121 -0.0660  0.9783  0.1381
  181SLPC    C220692   3.451   3.563  11.197  0.2402 -0.7328 -0.3792
  181SLPC    HS20693   3.399   3.557  11.295  2.1190 -0.2967  0.6987
  181SLPC   O2120694   3.396   3.458  11.114  0.7790  0.2814  0.2590
  181SLPC   C2120695   3.271   3.487  11.073  0.1747 -0.1836  0.0242
  181SLPC   O2220696   3.192   3.552  11.138 -0.4827 -0.2122 -0.2704
  181SLPC   C2220697   3.247   3.406  10.943  0.6071 -0.0741  0.0009
  181SLPC   H2R20698   3.350   3.393  10.903  1.3323  1.1048  1.3600
  181SLPC   H2S20699   3.196   3.309  10.963  0.7763 -0.1014  0.3060
  181SLPC    C320700   3.432   3.706  11.154 -0.4284  0.2259 -0.2591
  181SLPC    HX20701   3.481   3.777  11.224 -1.1749  1.1249 -0.6091
  181SLPC    HY20702   3.325   3.729  11.173 -0.1344  1.3341  0.1242
  181SLPC   O3120703   3.460   3.723  11.015 -0.3668 -0.0339  0.1025
  181SLPC   C3120704   3.563   3.801  10.980  0.2817 -0.2737  0.1233
  181SLPC   O3220705   3.638   3.847  11.062 -0.4079 -0.8057 -0.0776
  181SLPC   C3220706   3.551   3.840  10.835  0.1016 -0.6620 -0.3964
  181SLPC   H2X20707   3.577   3.761  10.761 -0.8786  0.3123 -1.8448
  181SLPC   H2Y20708   3.614   3.930  10.824 -0.5811 -0.2130 -0.6886
  181SLPC   C2320709   3.166   3.479  10.833 -0.3185 -0.3702  0.0633
  181SLPC   H3R20710   3.204   3.578  10.800 -0.6959 -0.4316 -0.5776
  181SLPC   H3S20711   3.062   3.502  10.866  0.6727  3.2554  1.1000
  181SLPC   C2420712   3.154   3.410  10.695 -0.3041  0.0245 -0.7438
  181SLPC   H4R20713   3.099   3.314  10.703 -1.8370  1.0480  2.0724
  181SLPC   H4S20714   3.254   3.396  10.648  0.5773  0.7320  0.8436
  181SLPC   C2520715   3.075   3.498  10.590  0.0020 -0.0873 -0.7428
  181SLPC   H5R20716   3.125   3.597  10.588  0.8314 -0.1856  4.1713
  181SLPC   H5S20717   2.971   3.505  10.628  0.6345 -2.7005  1.7791
  181SLPC   C2620718   3.081   3.435  10.452 -0.3327 -0.5303  0.3634
  181SLPC   H6R20719   3.036   3.333  10.452 -3.4256  0.7272  0.8356
  181SLPC   H6S20720   3.182   3.414  10.410  0.9019  0.2042  2.7431
  181SLPC   C2720721   3.010   3.527  10.351 -0.0036  0.7067 -0.3316
  181SLPC   H7R20722   2.913   3.562  10.391  0.8066  0.7767  1.7014
  181SLPC   H7S20723   2.997   3.470  10.257  1.4225  2.0729 -1.4126
  181SLPC   C2820724   3.086   3.651  10.295 -0.3601 -0.1133 -0.3178
  181SLPC   H8R20725   3.178   3.624  10.239 -0.1687 -0.9884  0.3926
  181SLPC   H8S20726   3.117   3.724  10.372 -0.7897  0.8089 -0.9980
  181SLPC   C2920727   2.995   3.717  10.195 -0.4741  0.2962 -0.6133
  181SLPC   H9R20728   2.913   3.779  10.234  0.6503  0.1163  2.2689
  181SLPC  C21020729   3.010   3.718  10.057  1.0370  0.2097  0.2104
  181SLPC  H10R20730   2.932   3.770   9.999  0.3412 -1.6055 -0.5543
  181SLPC  C21120731   3.115   3.664   9.970  0.3157 -0.7487 -0.2770
  181SLPC  H11R20732   3.215   3.706   9.992 -0.5092  1.3646 -0.3946
  181SLPC  H11S20733   3.104   3.729   9.881  0.4417 -2.1210 -1.3374
  181SLPC  C21220734   3.130   3.524   9.936 -0.2225 -0.4982  0.0488
  181SLPC  H12R20735   3.175   3.455  10.009 -2.6442 -2.4649 -0.1924
  181SLPC  C21320736   3.095   3.468   9.821  0.1249  0.0695  0.6970
  181SLPC  H13R20737   3.122   3.362   9.810 -0.6988 -0.2494  1.5472
  181SLPC  C21420738   3.029   3.537   9.698  0.2287 -0.3184 -0.2316
  181SLPC  H14R20739   3.005   3.641   9.731  4.7336  0.8467  0.0911
  181SLPC  H14S20740   2.937   3.483   9.667  1.1755 -1.2912 -1.4293
  181SLPC  C21520741   3.114   3.563   9.578  0.4808  0.2184  0.4924
  181SLPC  H15R20742   3.201   3.627   9.606  3.7692 -2.7073 -2.1241
  181SLPC  H15S20743   3.054   3.610   9.496  1.9808 -2.0496 -2.0704
  181SLPC  C21620744   3.172   3.426   9.530  0.6256  0.6417  0.7490
  181SLPC  H16R20745   3.084   3.361   9.510 -0.3115  1.8511  0.8170
  181SLPC  H16S20746   3.233   3.385   9.613  1.3289  2.2158  1.0527
  181SLPC  C21720747   3.267   3.440   9.415  0.4406  0.0329 -0.5073
  181SLPC  H17R20748   3.289   3.340   9.372 -1.0604  0.4471 -2.3970
  181SLPC  H17S20749   3.363   3.485   9.446  0.7040 -1.8432  1.6377
  181SLPC  C21820750   3.216   3.525   9.297  0.3615  0.3754  0.5950
  181SLPC  H18R20751   3.123   3.486   9.249  0.7316 -3.0546  2.3330
  181SLPC  H18S20752   3.291   3.520   9.216 -1.1709 -0.9275 -0.8285
  181SLPC  H18T20753   3.203   3.631   9.326  1.9392  0.1886  2.1892
  181SLPC   C3320754   3.411   3.878  10.799  0.8747 -0.9494  0.3728
  181SLPC   H3X20755   3.386   3.966  10.861  0.3559 -1.1307  0.4276
  181SLPC   H3Y20756   3.332   3.800  10.809 -1.4155  1.1423 -0.4854
  181SLPC   C3420757   3.402   3.931  10.655  0.3636  0.1412 -0.4832
  181SLPC   H4X20758   3.462   3.871  10.583  1.9084  1.8346 -0.6772
  181SLPC   H4Y20759   3.439   4.036  10.655 -1.0523  0.7301 -3.1887
  181SLPC   C3520760   3.259   3.941  10.613 -0.0361  0.1680 -0.0197
  181SLPC   H5X20761   3.217   3.988  10.705 -0.4222  1.2236 -0.7221
  181SLPC   H5Y20762   3.214   3.840  10.602  0.5995 -0.4331  2.3482
  181SLPC   C3620763   3.226   4.044  10.501 -0.1990  0.2554  0.3523
  181SLPC   H6X20764   3.297   4.130  10.500  0.6356 -0.3978 -1.6156
  181SLPC   H6Y20765   3.125   4.087  10.518 -0.0624  0.6026  0.2985
  181SLPC   C3720766   3.222   3.976  10.364 -0.5356  0.7585 -0.2873
  181SLPC   H7X20767   3.122   3.935  10.341 -0.1031 -0.7767  0.4346
  181SLPC   H7Y20768   3.280   3.881  10.372 -2.2630 -0.1628  2.8424
  181SLPC   C3820769   3.274   4.067  10.254 -0.3346 -0.1046 -0.4950
  181SLPC   H8X20770   3.371   4.108  10.288 -0.0651 -1.2554  0.2047
  181SLPC   H8Y20771   3.195   4.145  10.248 -1.6585 -1.4094 -0.6592
  181SLPC   C3920772   3.319   3.997  10.121  0.3735 -0.4472  0.0998
  181SLPC   H9X20773   3.269   3.898  10.124 -1.8486  0.6177  1.1829
  181SLPC   H9Y20774   3.422   3.962  10.143 -0.3294 -2.5162  0.3612
  181SLPC  C31020775   3.286   4.078   9.990 -0.8026  0.2295 -0.6926
  181SLPC  H10X20776   3.343   4.173   9.987  0.8954 -0.7494 -0.3797
  181SLPC  H10Y20777   3.180   4.104  10.012 -1.3928 -2.3944 -0.1226
  181SLPC  C31120778   3.303   3.993   9.868 -0.0489  0.0060  0.3843
  181SLPC  H11X20779   3.253   3.894   9.876  0.3683 -0.0664  2.8563
  181SLPC  H11Y20780   3.406   3.959   9.847 -0.8180 -2.8370  0.7398
  181SLPC  C31220781   3.258   4.062   9.744  0.0445 -0.0255 -0.1768
  181SLPC  H12X20782   3.314   4.158   9.744  0.5339 -0.3100 -0.0706
  181SLPC  H12Y20783   3.152   4.093   9.732  0.0325  0.3651  0.8423
  181SLPC  C31320784   3.295   3.980   9.620  0.5401  0.2873  0.1601
  181SLPC  H13X20785   3.230   3.892   9.637  0.0819  0.4657 -0.6036
  181SLPC  H13Y20786   3.399   3.943   9.616  0.3081 -0.3488 -3.8044
  181SLPC  C31420787   3.258   4.056   9.493 -0.3923 -0.0889  0.4898
  181SLPC  H14X20788   3.337   4.131   9.475 -0.3035 -0.2853  0.0290
  181SLPC  H14Y20789   3.162   4.111   9.503 -1.8519 -2.0191 -1.6620
  181SLPC  C31520790   3.237   3.945   9.382 -0.1179 -0.1825 -0.5835
  181SLPC  H15X20791   3.176   3.864   9.427  0.8748  0.9777  3.2276
  181SLPC  H15Y20792   3.340   3.910   9.358  0.6577  1.5667  0.0593
  181SLPC  C31620793   3.160   3.992   9.260 -0.3208  0.0593 -0.4046
  181SLPC  H16X20794   3.181   3.918   9.180  0.8948  1.2899 -1.2595
  181SLPC  H16Y20795   3.207   4.085   9.223 -1.7613  0.3382 -1.6562
  181SLPC  C31720796   3.011   4.003   9.288 -0.0040 -0.1988 -0.2024
  181SLPC  H17X20797   3.000   4.104   9.333  0.5571  0.0232 -0.5507
  181SLPC  H17Y20798   2.977   3.922   9.356 -0.4870 -0.8074 -1.1453
  181SLPC  C31820799   2.917   4.009   9.163  0.5248  0.4048 -0.4516
  181SLPC  H18X20800   2.819   4.027   9.213  1.6355 -1.3151  2.6136
  181SLPC  H18Y20801   2.925   3.910   9.113  0.8193 -0.7054  1.6668
  181SLPC  H18Z20802   2.937   4.081   9.081 -1.3682  2.3760  0.7282
  182SLPC     N20803   2.006   4.368  11.415  0.4155  0.4193 -0.1104
  182SLPC   C1320804   1.969   4.380  11.272 -0.5898 -0.4947 -0.9471
  182SLPC  H13A20805   2.051   4.422  11.214 -0.3919  1.0700  0.3725
  182SLPC  H13B20806   1.952   4.283  11.229  1.4571 -1.2724 -0.1519
  182SLPC  H13C20807   1.888   4.450  11.261  0.3895  1.4670  2.5576
  182SLPC   C1420808   2.037   4.502  11.470  0.6526  0.0972 -0.5680
  182SLPC  H14A20809   2.127   4.542  11.425 -0.0699  3.3964  0.6725
  182SLPC  H14B20810   1.954   4.570  11.454  0.1553 -0.4321 -0.2878
  182SLPC  H14C20811   2.062   4.504  11.575  0.0997  3.1880 -0.4216
  182SLPC   C1520812   2.129   4.290  11.429 -0.3137 -0.6483 -0.0561
  182SLPC  H15A20813   2.214   4.333  11.379 -0.1946 -2.2213 -1.2889
  182SLPC  H15B20814   2.163   4.270  11.530  0.4686  0.3111 -0.1175
  182SLPC  H15C20815   2.117   4.199  11.371  1.3774 -0.4433 -0.7810
  182SLPC   C1220816   1.882   4.306  11.482 -0.3317 -0.2933  0.1022
  182SLPC  H12A20817   1.898   4.284  11.586 -0.1468  0.1880  0.1761
  182SLPC  H12B20818   1.862   4.208  11.440 -1.9352 -1.0038  2.3116
  182SLPC   C1120819   1.753   4.395  11.475  0.6466  0.1015 -0.1448
  182SLPC  H11A20820   1.784   4.498  11.502  1.9977 -0.2641 -0.2624
  182SLPC  H11B20821   1.678   4.349  11.544 -0.1800 -0.0105 -1.0903
  182SLPC     P20822   1.631   4.256  11.303  0.3790  0.3042 -0.6445
  182SLPC   O1320823   1.739   4.159  11.297  0.3956  0.7694  0.2812
  182SLPC   O1420824   1.504   4.227  11.373  0.7494 -0.3305  0.1129
  182SLPC   O1220825   1.687   4.395  11.349  0.3555 -0.3176  0.0151
  182SLPC   O1120826   1.595   4.284  11.153  0.5266 -0.4334 -0.4457
  182SLPC    C120827   1.553   4.416  11.108  0.5795 -1.0565 -0.0224
  182SLPC    HA20828   1.443   4.414  11.119  0.6367 -0.4154  0.7451
  182SLPC    HB20829   1.588   4.501  11.170  0.3793 -1.5653  0.8172
  182SLPC    C220830   1.589   4.446  10.962  0.2005  0.3564 -0.0107
  182SLPC    HS20831   1.544   4.370  10.894  0.2716 -0.6489  1.0378
  182SLPC   O2120832   1.733   4.442  10.939  0.0369 -0.0857 -0.2844
  182SLPC   C2120833   1.782   4.324  10.908 -0.3193 -0.1390 -0.0495
  182SLPC   O2220834   1.725   4.218  10.913  0.7031  0.2830 -0.3733
  182SLPC   C2220835   1.925   4.350  10.862  0.6539 -0.3157 -0.6579
  182SLPC   H2R20836   1.926   4.454  10.822  3.8389  1.0388  2.3783
  182SLPC   H2S20837   1.985   4.357  10.956 -0.2017 -0.3949 -0.0892
  182SLPC    C320838   1.544   4.580  10.896  0.2416  0.1703 -0.6183
  182SLPC    HX20839   1.605   4.654  10.951 -0.4869  0.6983 -0.5160
  182SLPC    HY20840   1.436   4.585  10.919  0.2109 -0.6293 -0.5630
  182SLPC   O3120841   1.569   4.569  10.757  0.5215 -0.0161  1.1419
  182SLPC   C3120842   1.612   4.673  10.693 -0.6126  0.2784 -1.1083
  182SLPC   O3220843   1.638   4.783  10.742  0.5436  0.0292  0.1591
  182SLPC   C3220844   1.608   4.638  10.546  1.3227  0.5602  0.2467
  182SLPC   H2X20845   1.637   4.728  10.489 -0.1987  1.0091  0.1353
  182SLPC   H2Y20846   1.499   4.632  10.526  0.9507 -2.3302  2.4381
  182SLPC   C2320847   1.977   4.239  10.763 -0.7376 -0.9900 -0.4945
  182SLPC   H3R20848   1.964   4.134  10.797 -1.2595 -0.7357  0.1082
  182SLPC   H3S20849   2.088   4.238  10.771 -0.8134 -1.6435  0.7744
  182SLPC   C2420850   1.927   4.266  10.623  0.4343 -0.1137  0.0054
  182SLPC   H4R20851   1.949   4.372  10.599 -0.8100  0.2986  0.5970
  182SLPC   H4S20852   1.816   4.253  10.625  0.4672 -0.5945 -0.9837
  182SLPC   C2520853   1.978   4.167  10.521 -0.2933  0.1711  0.0746
  182SLPC   H5R20854   1.920   4.073  10.532 -0.1635  0.1499  0.6122
  182SLPC   H5S20855   2.086   4.153  10.542 -0.4003 -1.5510 -0.3450
  182SLPC   C2620856   1.982   4.223  10.377 -0.0507 -0.4514 -0.6803
  182SLPC   H6R20857   2.038   4.318  10.376 -0.0128 -0.3563  2.1128
  182SLPC   H6S20858   1.878   4.258  10.363 -0.6871 -1.7664  0.4672
  182SLPC   C2720859   2.021   4.125  10.264 -0.2055 -0.1540 -0.3788
  182SLPC   H7R20860   1.948   4.042  10.262 -2.3880  1.6175  0.6143
  182SLPC   H7S20861   2.121   4.085  10.290 -0.5119  0.0842  1.3053
  182SLPC   C2820862   2.043   4.202  10.132  0.0258 -0.7310  0.1143
  182SLPC   H8R20863   2.075   4.126  10.058  3.3978  1.4268 -0.8956
  182SLPC   H8S20864   2.134   4.265  10.145  0.7893 -1.2185 -2.3537
  182SLPC   C2920865   1.923   4.288  10.087  0.2319  0.0599  1.0403
  182SLPC   H9R20866   1.920   4.382  10.144  1.2340  0.1686  0.9355
  182SLPC  C21020867   1.836   4.270   9.984  0.4163  0.5248 -0.0577
  182SLPC  H10R20868   1.748   4.336   9.974 -0.4943 -0.5162  0.7383
  182SLPC  C21120869   1.828   4.147   9.888 -0.2590  0.6846 -0.1784
  182SLPC  H11R20870   1.722   4.113   9.896  0.0495 -0.5099 -0.9243
  182SLPC  H11S20871   1.889   4.060   9.919  0.7146  2.4448  3.4067
  182SLPC  C21220872   1.864   4.197   9.753  0.7367  0.3160 -0.4744
  182SLPC  H12R20873   1.954   4.259   9.748 -0.0416  1.4006 -2.3585
  182SLPC  C21320874   1.812   4.168   9.631 -0.0970 -0.0403 -0.6832
  182SLPC  H13R20875   1.861   4.212   9.543  2.8132  1.9252  1.7184
  182SLPC  C21420876   1.691   4.085   9.600  0.0673 -0.0279  0.0285
  182SLPC  H14R20877   1.600   4.148   9.587  1.8382  2.8069  0.4464
  182SLPC  H14S20878   1.674   4.022   9.690  0.8190  1.0535  0.9624
  182SLPC  C21520879   1.714   4.009   9.471 -0.1835 -0.5368  0.1875
  182SLPC  H15R20880   1.790   4.065   9.412 -0.3395  0.4395  0.8835
  182SLPC  H15S20881   1.620   4.003   9.412 -0.0637 -0.9827  0.0435
  182SLPC  C21620882   1.756   3.869   9.493 -0.0433 -0.0002  0.2170
  182SLPC  H16R20883   1.669   3.812   9.532  0.5702 -2.0750 -1.2748
  182SLPC  H16S20884   1.838   3.863   9.568  1.5785 -2.7918 -1.6210
  182SLPC  C21720885   1.807   3.794   9.363  0.6458  0.4604  0.4915
  182SLPC  H17R20886   1.733   3.813   9.282  0.0442  0.8705  1.1254
  182SLPC  H17S20887   1.821   3.687   9.391 -1.3644  0.2093  0.7141
  182SLPC  C21820888   1.949   3.843   9.312 -0.4661  0.1106  0.0504
  182SLPC  H18R20889   2.030   3.810   9.381 -0.9932  2.4369  1.8915
  182SLPC  H18S20890   1.956   3.953   9.302  2.9581 -0.1144 -1.4851
  182SLPC  H18T20891   1.969   3.802   9.210  1.7276 -0.3539  0.6075
  182SLPC   C3320892   1.669   4.504  10.509 -0.2946 -0.3038  0.6114
  182SLPC   H3X20893   1.640   4.415  10.567  0.6955 -0.0573  1.5158
  182SLPC   H3Y20894   1.777   4.510  10.536 -0.3734  1.6504  0.6356
  182SLPC   C3420895   1.659   4.467  10.359 -0.6110 -0.6650 -0.2733
  182SLPC   H4X20896   1.736   4.390  10.340 -0.9451 -0.4749 -2.7319
  182SLPC   H4Y20897   1.694   4.553  10.298 -0.4911 -0.2212  0.4065
  182SLPC   C3520898   1.517   4.421  10.309 -0.3627  0.0495 -0.6729
  182SLPC   H5X20899   1.440   4.501  10.301 -0.3161  0.1972  0.2355
  182SLPC   H5Y20900   1.473   4.350  10.383  0.7306  1.4402  1.4202
  182SLPC   C3620901   1.536   4.355  10.175  0.0862 -0.2389  0.0937
  182SLPC   H6X20902   1.588   4.257  10.181 -1.0618 -0.9116 -0.5177
  182SLPC   H6Y20903   1.587   4.422  10.102 -0.1622 -1.1387 -0.9432
  182SLPC   C3720904   1.403   4.315  10.106  0.4651  0.4294 -0.1768
  182SLPC   H7X20905   1.321   4.390  10.112  0.0079 -0.1298  0.8651
  182SLPC   H7Y20906   1.372   4.232  10.173  1.8620  1.2623  1.6136
  182SLPC   C3820907   1.422   4.263   9.964  0.2081 -0.8214  0.2719
  182SLPC   H8X20908   1.506   4.190   9.962  2.7409  1.9175 -1.4000
  182SLPC   H8Y20909   1.458   4.356   9.916  0.8004 -1.4597 -0.5470
  182SLPC   C3920910   1.302   4.205   9.894  0.2769 -0.4031 -0.0806
  182SLPC   H9X20911   1.223   4.281   9.908  1.5675  0.9114  0.2753
  182SLPC   H9Y20912   1.280   4.106   9.941 -0.8466  0.5959  1.6282
  182SLPC  C31020913   1.333   4.181   9.751 -0.2112 -0.3634 -0.0345
  182SLPC  H10X20914   1.421   4.113   9.749  0.9337  1.0872 -0.3895
  182SLPC  H10Y20915   1.366   4.277   9.707 -0.3720  0.1300  0.8811
  182SLPC  C31120916   1.213   4.109   9.679  0.3303 -0.9725  0.5060
  182SLPC  H11X20917   1.117   4.158   9.703  1.8022  1.7753  1.2934
  182SLPC  H11Y20918   1.203   4.008   9.725  1.1413 -0.6733  1.3722
  182SLPC  C31220919   1.230   4.086   9.530  0.2770  0.1040 -0.5720
  182SLPC  H12X20920   1.148   4.024   9.491  0.5959 -0.0538 -0.9968
  182SLPC  H12Y20921   1.328   4.039   9.508  0.9571  1.0252  0.3460
  182SLPC  C31320922   1.220   4.216   9.458 -0.7297  0.3572 -0.4429
  182SLPC  H13X20923   1.296   4.288   9.497  0.6566 -1.9216  1.3162
  182SLPC  H13Y20924   1.118   4.255   9.481 -0.4793  0.2846  0.8544
  182SLPC  C31420925   1.225   4.207   9.307 -0.2276 -0.0124  0.1406
  182SLPC  H14X20926   1.197   4.308   9.271 -3.4865 -0.6249  0.6277
  182SLPC  H14Y20927   1.139   4.148   9.267  1.2320 -0.8704 -1.9457
  182SLPC  C31520928   1.356   4.164   9.250 -0.3951 -0.0075  0.3083
  182SLPC  H15X20929   1.331   4.157   9.142  0.1600  1.5028  0.0679
  182SLPC  H15Y20930   1.399   4.067   9.282 -1.3747 -0.9949 -1.2237
  182SLPC  C31620931   1.474   4.271   9.275  0.6488  0.6183  0.5971
  182SLPC  H16X20932   1.513   4.254   9.378 -1.3095 -2.5104  0.9557
  182SLPC  H16Y20933   1.435   4.376   9.274  1.4172  0.9182 -1.1083
  182SLPC  C31720934   1.583   4.251   9.167  0.0999 -0.5648 -0.0298
  182SLPC  H17X20935   1.526   4.228   9.075 -1.7471 -0.5810  1.0775
  182SLPC  H17Y20936   1.638   4.160   9.200  0.4429 -0.2714  0.2259
  182SLPC  C31820937   1.693   4.356   9.147  0.2598 -0.2814 -0.6255
  182SLPC  H18X20938   1.769   4.356   9.227 -1.3836  0.2284  1.0096
  182SLPC  H18Y20939   1.651   4.457   9.128 -1.3127 -0.8149 -0.1299
  182SLPC  H18Z20940   1.743   4.336   9.050 -0.9475  0.0038 -1.3263
  183SLPC     N20941   2.768   4.692  11.258  0.3155  1.2077  0.1884
  183SLPC   C1320942   2.868   4.800  11.234  0.2840 -0.7008 -0.8777
  183SLPC  H13A20943   2.929   4.814  11.322  2.4673 -0.7008 -2.3403
  183SLPC  H13B20944   2.940   4.796  11.154 -0.4011  1.3050 -1.6591
  183SLPC  H13C20945   2.815   4.893  11.223 -0.5725 -1.2072 -1.1611
  183SLPC   C1420946   2.676   4.725  11.367  0.0239 -0.0080 -0.0979
  183SLPC  H14A20947   2.734   4.768  11.447 -0.6032 -0.1236  0.4263
  183SLPC  H14B20948   2.606   4.797  11.326  0.4745 -0.6353 -2.1240
  183SLPC  H14C20949   2.620   4.638  11.397  1.7447 -1.0107  0.3462
  183SLPC   C1520950   2.842   4.571  11.305 -0.2348 -0.0393 -0.1207
  183SLPC  H15A20951   2.917   4.541  11.233  0.9219 -2.1849  1.8526
  183SLPC  H15B20952   2.917   4.603  11.376 -0.3886  0.6154 -0.2450
  183SLPC  H15C20953   2.795   4.476  11.327  1.2031 -0.3482  1.9033
  183SLPC   C1220954   2.698   4.667  11.126 -0.0207 -0.1074  0.0844
  183SLPC  H12A20955   2.616   4.598  11.140 -0.9815  0.6385 -1.5664
  183SLPC  H12B20956   2.758   4.628  11.046 -1.3672  0.3634 -1.1992
  183SLPC   C1120957   2.630   4.793  11.063  0.0622  0.3498 -0.9707
  183SLPC  H11A20958   2.596   4.773  10.959 -1.3694 -2.1682 -0.0973
  183SLPC  H11B20959   2.703   4.877  11.049 -0.2038  0.9495  0.9849
  183SLPC     P20960   2.383   4.749  11.139  0.1466 -0.1019  0.0134
  183SLPC   O1320961   2.395   4.606  11.167  0.6450 -0.4778 -0.0812
  183SLPC   O1420962   2.282   4.827  11.213 -0.0308 -0.0608 -0.1283
  183SLPC   O1220963   2.523   4.823  11.154 -0.2467 -0.0089 -0.6175
  183SLPC   O1120964   2.358   4.764  10.979  0.1783 -0.5077 -0.3925
  183SLPC    C120965   2.341   4.891  10.922  0.0385 -0.0094 -0.6624
  183SLPC    HA20966   2.353   4.967  11.003 -2.1970  1.7674 -1.8900
  183SLPC    HB20967   2.414   4.900  10.839 -0.5539 -0.1582 -1.2096
  183SLPC    C220968   2.196   4.918  10.873 -0.3953  0.4433 -0.2075
  183SLPC    HS20969   2.134   4.892  10.961 -0.0277 -1.0106 -0.3519
  183SLPC   O2120970   2.172   4.836  10.764 -0.1326  0.5342  0.5263
  183SLPC   C2120971   2.111   4.725  10.786  0.0217  0.3840  0.1819
  183SLPC   O2220972   2.072   4.678  10.888 -0.0954 -0.3857 -0.2583
  183SLPC   C2220973   2.092   4.644  10.656  0.0152  0.0511 -0.2500
  183SLPC   H2R20974   2.193   4.639  10.610  1.1805  0.7478  2.0990
  183SLPC   H2S20975   2.053   4.542  10.676 -1.7211  0.6315 -0.5411
  183SLPC    C320976   2.183   5.063  10.822  0.2030 -0.1518 -0.5184
  183SLPC    HX20977   2.202   5.128  10.910  1.4913 -0.9463 -0.1810
  183SLPC    HY20978   2.083   5.087  10.781 -0.0926 -1.8536 -0.8566
  183SLPC   O3120979   2.272   5.098  10.719  0.1947  0.2086 -0.0371
  183SLPC   C3120980   2.241   5.074  10.596 -1.0758  0.2231 -0.3585
  183SLPC   O3220981   2.132   5.057  10.551 -0.0534 -0.4143  0.0657
  183SLPC   C3220982   2.370   5.069  10.514 -0.7921  0.4211 -0.1883
  183SLPC   H2X20983   2.457   5.061  10.583 -1.1222  1.9440  0.4516
  183SLPC   H2Y20984   2.374   5.171  10.469 -0.5556 -0.1003 -1.3887
  183SLPC   C2320985   1.998   4.714  10.560  0.6072 -0.4022 -0.6399
  183SLPC   H3R20986   2.024   4.822  10.553 -0.9071 -0.1089 -2.6787
  183SLPC   H3S20987   1.892   4.715  10.591  0.6703 -2.0718 -0.2887
  183SLPC   C2420988   2.011   4.658  10.418 -0.0692  0.1734  0.1150
  183SLPC   H4R20989   1.970   4.555  10.424 -0.3807  0.2665 -0.3070
  183SLPC   H4S20990   2.118   4.650  10.391  0.3705 -0.3705  1.8973
  183SLPC   C2520991   1.935   4.739  10.315  0.1787 -0.3669 -0.1868
  183SLPC   H5R20992   1.956   4.848  10.327 -1.7266  0.3816 -2.7573
  183SLPC   H5S20993   1.826   4.741  10.340  0.7044 -0.8302  2.4697
  183SLPC   C2620994   1.970   4.705  10.175 -0.5803 -0.1207  0.7919
  183SLPC   H6R20995   1.971   4.596  10.150  0.6287  0.4503 -2.0217
  183SLPC   H6S20996   2.074   4.739  10.157 -0.2847 -2.2111 -2.2157
  183SLPC   C2720997   1.891   4.776  10.058  0.7086 -0.4068  0.1888
  183SLPC   H7R20998   1.874   4.885  10.074 -1.3319 -0.4631 -1.2024
  183SLPC   H7S20999   1.791   4.728  10.057  0.4675  0.0911  0.0027
  183SLPC   C2821000   1.965   4.761   9.923  0.2507 -1.1525 -1.0276
  183SLPC   H8R21001   1.998   4.655   9.907 -0.7652 -1.9207  1.5175
  183SLPC   H8S21002   2.056   4.824   9.925 -1.1689  1.0253 -1.6088
  183SLPC   C2921003   1.873   4.804   9.815  0.0461 -0.3183  1.3883
  183SLPC   H9R21004   1.874   4.908   9.779 -0.1683 -1.1533 -1.2414
  183SLPC  C21021005   1.784   4.736   9.748 -0.5895 -0.1629 -0.2024
  183SLPC  H10R21006   1.738   4.784   9.661 -0.7432 -1.1581 -0.6801
  183SLPC  C21121007   1.735   4.594   9.767  0.0541 -0.4163 -0.0331
  183SLPC  H11R21008   1.795   4.560   9.854  1.2080  1.5312 -0.0069
  183SLPC  H11S21009   1.769   4.527   9.685  0.7121 -1.1944  0.8602
  183SLPC  C21221010   1.589   4.584   9.797  0.0224 -0.3121  0.3292
  183SLPC  H12R21011   1.565   4.613   9.901 -1.2577 -0.4699  0.1019
  183SLPC  C21321012   1.487   4.552   9.712 -0.4460 -0.5942 -0.3964
  183SLPC  H13R21013   1.386   4.552   9.755 -0.2544  2.3679  0.2563
  183SLPC  C21421014   1.505   4.528   9.567 -0.3329  1.0280  0.2373
  183SLPC  H14R21015   1.478   4.422   9.548  0.1852  1.0346 -0.6197
  183SLPC  H14S21016   1.611   4.541   9.535 -1.1012  3.4721 -1.6679
  183SLPC  C21521017   1.417   4.618   9.488  0.2769 -0.1993 -0.6600
  183SLPC  H15R21018   1.441   4.589   9.383  1.0067 -0.2046 -0.4942
  183SLPC  H15S21019   1.456   4.721   9.503  3.2215 -1.4409  1.1684
  183SLPC  C21621020   1.268   4.606   9.498  0.6185 -0.6676 -0.0649
  183SLPC  H16R21021   1.249   4.647   9.600  0.3586  0.0085 -0.3808
  183SLPC  H16S21022   1.238   4.498   9.502 -0.5185 -0.3552  0.4445
  183SLPC  C21721023   1.178   4.674   9.399 -0.1580  0.2206 -1.0672
  183SLPC  H17R21024   1.076   4.635   9.416  0.0126  0.3121  0.2752
  183SLPC  H17S21025   1.213   4.644   9.298 -0.0489 -1.0387 -0.6733
  183SLPC  C21821026   1.180   4.825   9.414 -0.3136 -0.0784 -0.5333
  183SLPC  H18R21027   1.128   4.879   9.332 -0.3013  1.2785  0.3287
  183SLPC  H18S21028   1.284   4.863   9.407  0.3313 -1.4076  1.1665
  183SLPC  H18T21029   1.152   4.858   9.516 -2.2180 -0.6357 -0.8342
  183SLPC   C3321030   2.378   4.961  10.404 -0.1385  0.1214 -0.9355
  183SLPC   H3X21031   2.338   4.865  10.443  0.3782  0.3426  0.1679
  183SLPC   H3Y21032   2.484   4.943  10.373  0.3361 -0.1482  0.7488
  183SLPC   C3421033   2.295   5.005  10.283 -0.0525  0.3634 -0.9706
  183SLPC   H4X21034   2.320   5.110  10.257  2.6822  0.5220  1.7482
  183SLPC   H4Y21035   2.186   4.998  10.304 -0.4831  0.5970 -2.9598
  183SLPC   C3521036   2.343   4.930  10.164 -0.7675  0.0109 -0.0723
  183SLPC   H5X21037   2.318   4.821  10.162 -0.9461 -0.0441  2.1467
  183SLPC   H5Y21038   2.454   4.927  10.155 -0.8568 -0.3517 -1.1610
  183SLPC   C3621039   2.301   4.988  10.022 -0.3524  0.8522 -0.6827
  183SLPC   H6X21040   2.365   5.077  10.000  0.4029  0.3190 -0.6939
  183SLPC   H6Y21041   2.196   5.025  10.014  0.1162  2.1734 -1.1048
  183SLPC   C3721042   2.332   4.889   9.908  0.0469  0.5097  0.3828
  183SLPC   H7X21043   2.268   4.799   9.894  2.5589 -0.9829 -2.8592
  183SLPC   H7Y21044   2.432   4.847   9.929 -0.0758 -0.7483 -1.3338
  183SLPC   C3821045   2.322   4.954   9.768  0.4229  0.3910 -0.3869
  183SLPC   H8X21046   2.376   5.051   9.763 -1.4718  1.6094  1.4018
  183SLPC   H8Y21047   2.215   4.977   9.751 -0.0547 -0.4490  1.3004
  183SLPC   C3921048   2.373   4.857   9.663  0.0811  1.2629  0.1474
  183SLPC   H9X21049   2.311   4.765   9.664 -0.1619  1.0970 -4.7614
  183SLPC   H9Y21050   2.481   4.839   9.685 -0.4560 -2.2241  0.5356
  183SLPC  C31021051   2.345   4.907   9.522  0.0138 -0.3430 -0.1511
  183SLPC  H10X21052   2.374   5.015   9.515 -1.3474  0.0236 -0.4250
  183SLPC  H10Y21053   2.238   4.908   9.494  0.0558 -1.1660 -0.3467
  183SLPC  C31121054   2.406   4.818   9.413 -0.0429 -0.3325 -0.8748
  183SLPC  H11X21055   2.358   4.719   9.426 -1.4397  0.6704  3.1791
  183SLPC  H11Y21056   2.515   4.803   9.430 -0.0084  0.2114 -0.5813
  183SLPC  C31221057   2.385   4.873   9.276 -0.2509 -0.2373  0.2273
  183SLPC  H12X21058   2.438   4.971   9.276 -0.6157 -0.0235 -0.9261
  183SLPC  H12Y21059   2.278   4.902   9.264  0.1336  2.1097  1.7385
  183SLPC  C31321060   2.424   4.781   9.160 -0.3866  0.0100  0.1836
  183SLPC  H13X21061   2.522   4.737   9.188 -0.2567  0.5400  0.5749
  183SLPC  H13Y21062   2.451   4.834   9.067 -1.2099  0.3848  0.1488
  183SLPC  C31421063   2.329   4.657   9.141 -0.2115 -0.6882 -0.3440
  183SLPC  H14X21064   2.230   4.691   9.102 -0.6913 -1.6495  0.0029
  183SLPC  H14Y21065   2.318   4.613   9.242  0.7263  1.9129  0.9808
  183SLPC  C31521066   2.374   4.545   9.052  0.1018  0.9157 -0.1275
  183SLPC  H15X21067   2.471   4.506   9.090  1.5701  1.9319 -2.5706
  183SLPC  H15Y21068   2.372   4.581   8.947 -0.8234 -0.3810 -0.5857
  183SLPC  C31621069   2.295   4.412   9.076 -0.0283  0.5862 -0.5802
  183SLPC  H16X21070   2.314   4.396   9.184  0.5470  1.3959 -0.5535
  183SLPC  H16Y21071   2.342   4.333   9.013 -3.1689 -0.0137 -2.4182
  183SLPC  C31721072   2.147   4.422   9.050  0.9033  0.1182 -0.1503
  183SLPC  H17X21073   2.111   4.477   9.139 -1.1414 -2.1507  0.5211
  183SLPC  H17Y21074   2.101   4.321   9.060 -0.5308  0.9114  1.7420
  183SLPC  C31821075   2.093   4.480   8.927  0.0668  0.0089 -0.1152
  183SLPC  H18X21076   2.126   4.585   8.912 -0.5982 -0.0321 -2.3873
  183SLPC  H18Y21077   1.982   4.489   8.931 -0.2257  0.0149 -4.0918
  183SLPC  H18Z21078   2.118   4.410   8.844 -0.5166 -0.6469  0.2493
  184SLPC     N21079   4.217   0.969  11.448  0.2734  0.9526  0.0301
  184SLPC   C1321080   4.139   0.847  11.482  0.1631 -0.8817 -0.2360
  184SLPC  H13A21081   4.126   0.840  11.589 -0.7410  2.7037  0.0076
  184SLPC  H13B21082   4.048   0.863  11.426  0.2197 -0.2040 -0.1412
  184SLPC  H13C21083   4.190   0.757  11.450  1.9418  0.2188 -0.6155
  184SLPC   C1421084   4.329   0.975  11.553 -0.1824  0.9545  0.7116
  184SLPC  H14A21085   4.399   1.057  11.552  1.3925 -0.3086 -0.7424
  184SLPC  H14B21086   4.287   0.954  11.650 -0.8779  2.0440  0.6613
  184SLPC  H14C21087   4.389   0.888  11.530 -2.4869 -0.1513 -1.5386
  184SLPC   C1521088   4.137   1.093  11.473  0.4013 -0.1129 -0.1300
  184SLPC  H15A21089   4.068   1.088  11.555 -0.5281  0.0648 -0.8833
  184SLPC  H15B21090   4.199   1.181  11.480 -0.3975  0.3107  2.7394
  184SLPC  H15C21091   4.078   1.109  11.383  1.0363  1.0057 -0.3686
  184SLPC   C1221092   4.277   0.969  11.312  0.2766  0.4455 -0.5537
  184SLPC  H12A21093   4.337   0.880  11.296 -2.1857 -1.6218  0.8759
  184SLPC  H12B21094   4.339   1.055  11.295  1.1443 -0.0183  0.2056
  184SLPC   C1121095   4.187   0.970  11.181  0.6833  0.4356 -0.1803
  184SLPC  H11A21096   4.110   0.890  11.187 -0.1760  1.0313 -2.2398
  184SLPC  H11B21097   4.252   0.941  11.095  0.3581  0.5056 -0.4544
  184SLPC     P21098   4.216   1.227  11.135 -0.4203  0.2118  0.4781
  184SLPC   O1321099   4.201   1.326  11.238 -0.6490  0.5363 -0.2546
  184SLPC   O1421100   4.358   1.196  11.114 -0.4786 -0.4192 -0.3051
  184SLPC   O1221101   4.126   1.100  11.160  0.1109 -0.1958 -0.2423
  184SLPC   O1121102   4.165   1.279  10.991  0.3258  0.2122 -0.3918
  184SLPC    C121103   4.186   1.191  10.877  0.1017 -0.2294  0.2068
  184SLPC    HA21104   4.204   1.259  10.791  0.4135  0.1924  0.5977
  184SLPC    HB21105   4.276   1.130  10.896  1.9411  2.6299  1.4061
  184SLPC    C221106   4.058   1.102  10.854 -0.5414  0.2888  1.0585
  184SLPC    HS21107   4.040   1.031  10.938 -1.6469 -0.3592  0.3073
  184SLPC   O2121108   4.075   1.028  10.729  0.3936  0.1148 -0.0203
  184SLPC   C2121109   4.171   0.935  10.726  0.3119  0.1554  0.1347
  184SLPC   O2221110   4.233   0.894  10.824  0.2019  0.1611 -0.3114
  184SLPC   C2221111   4.206   0.883  10.594 -0.5895 -0.2977 -0.3430
  184SLPC   H2R21112   4.315   0.895  10.575 -0.8962  0.1937 -1.9277
  184SLPC   H2S21113   4.189   0.774  10.605 -2.4327 -0.0774 -0.7302
  184SLPC    C321114   3.936   1.203  10.847  0.3850  0.3062  1.0388
  184SLPC    HX21115   3.914   1.236  10.951 -2.8700  0.7368  0.3061
  184SLPC    HY21116   3.848   1.141  10.818  0.2163  0.2502  1.6602
  184SLPC   O3121117   3.954   1.308  10.745 -0.2225 -0.6854 -0.6873
  184SLPC   C3121118   3.846   1.377  10.716 -0.3148  0.7256 -0.4171
  184SLPC   O3221119   3.736   1.370  10.774 -1.0472  0.6161  0.4244
  184SLPC   C3221120   3.882   1.465  10.597 -0.3609 -0.7770 -0.1799
  184SLPC   H2X21121   3.896   1.393  10.513 -0.2966 -0.2177 -0.6561
  184SLPC   H2Y21122   3.977   1.519  10.617 -0.3295 -1.5390  2.0473
  184SLPC   C2321123   4.134   0.960  10.480 -0.0572  0.1995 -0.0108
  184SLPC   H3R21124   4.141   1.070  10.484 -0.5794  0.2165  0.6990
  184SLPC   H3S21125   4.024   0.943  10.478 -0.3685  2.0146 -1.4442
  184SLPC   C2421126   4.184   0.908  10.342  0.3705 -0.2649  0.3497
  184SLPC   H4R21127   4.182   0.797  10.331 -1.4164 -0.6045  3.2096
  184SLPC   H4S21128   4.290   0.941  10.332 -0.0210  0.6788 -0.9438
  184SLPC   C2521129   4.105   0.952  10.219  0.4310  0.0184 -0.7500
  184SLPC   H5R21130   4.097   1.063  10.225 -0.9626 -0.1322  1.4948
  184SLPC   H5S21131   4.002   0.909  10.220  0.3875 -0.0937  2.8174
  184SLPC   C2621132   4.178   0.921  10.092 -0.1530  0.9271  0.1445
  184SLPC   H6R21133   4.170   0.811  10.081 -1.1534  0.8225  1.6648
  184SLPC   H6S21134   4.285   0.949  10.100  0.4052 -1.4130  1.6193
  184SLPC   C2721135   4.118   0.976   9.964  0.3497 -0.6069 -0.1865
  184SLPC   H7R21136   4.105   1.084   9.984  1.1582 -0.4667 -0.3851
  184SLPC   H7S21137   4.025   0.921   9.940  0.0109 -0.0884 -0.0658
  184SLPC   C2821138   4.212   0.964   9.847  0.3864 -0.5701  0.1323
  184SLPC   H8R21139   4.239   0.856   9.845 -0.5869 -0.8534  1.2681
  184SLPC   H8S21140   4.300   1.022   9.879  2.8344 -3.7122 -0.4103
  184SLPC   C2921141   4.144   1.024   9.720 -0.1312 -0.1269  0.3878
  184SLPC   H9R21142   4.140   1.134   9.720 -1.1551 -0.1235 -1.4270
  184SLPC  C21021143   4.106   0.957   9.604 -0.6673  0.1649  0.5369
  184SLPC  H10R21144   4.062   1.002   9.514  0.7611 -0.2852 -0.4385
  184SLPC  C21121145   4.118   0.809   9.595 -0.5628 -0.3311  0.8866
  184SLPC  H11R21146   4.103   0.741   9.682  0.8239 -0.6874  0.8730
  184SLPC  H11S21147   4.219   0.785   9.556 -0.8738 -0.4274  0.1291
  184SLPC  C21221148   4.040   0.749   9.475 -0.5280  0.6754 -0.2509
  184SLPC  H12R21149   3.963   0.682   9.517  1.2149 -1.0028  0.4462
  184SLPC  C21321150   4.058   0.747   9.337  0.0018 -0.3201 -0.4669
  184SLPC  H13R21151   3.985   0.690   9.278 -1.7039  1.8748 -0.6361
  184SLPC  C21421152   4.165   0.821   9.263  0.0373  0.1142 -0.3309
  184SLPC  H14R21153   4.240   0.752   9.219 -0.5720 -1.3528  0.8063
  184SLPC  H14S21154   4.218   0.898   9.323 -0.1460 -0.0515  0.0535
  184SLPC  C21521155   4.115   0.911   9.145  0.0650  0.2984 -0.1012
  184SLPC  H15R21156   4.019   0.956   9.180 -0.9022 -0.9341 -1.0562
  184SLPC  H15S21157   4.096   0.840   9.061 -0.0969 -1.1396  1.1130
  184SLPC  C21621158   4.217   1.014   9.094 -0.3620 -0.5612  0.3281
  184SLPC  H16R21159   4.314   0.960   9.089 -1.3221 -2.2991 -1.9425
  184SLPC  H16S21160   4.219   1.094   9.170  0.3747 -1.5113  1.3465
  184SLPC  C21721161   4.189   1.065   8.947  0.0910  0.8515 -0.1726
  184SLPC  H17R21162   4.157   0.984   8.878 -0.2092  1.2932 -0.5553
  184SLPC  H17S21163   4.285   1.100   8.904  0.0033  0.6723 -0.5237
  184SLPC  C21821164   4.082   1.167   8.963  0.0679  0.0775 -0.5898
  184SLPC  H18R21165   4.009   1.132   9.039  1.0620  0.1828  0.4316
  184SLPC  H18S21166   4.033   1.184   8.864 -2.3361  0.1388  0.5374
  184SLPC  H18T21167   4.134   1.261   8.991  1.2870 -0.8100  0.2089
  184SLPC   C3321168   3.784   1.571  10.549  1.4893 -0.1058 -0.2598
  184SLPC   H3X21169   3.754   1.635  10.634  1.7978 -0.3443  0.0326
  184SLPC   H3Y21170   3.686   1.524  10.527  0.6356  0.3344  2.2417
  184SLPC   C3421171   3.834   1.666  10.435 -0.4465 -0.1384  0.0050
  184SLPC   H4X21172   3.945   1.660  10.446 -0.5251 -1.3496  0.2742
  184SLPC   H4Y21173   3.808   1.771  10.462  2.0126  0.6897 -0.5404
  184SLPC   C3521174   3.770   1.640  10.294  0.2213  0.2113  0.0983
  184SLPC   H5X21175   3.660   1.652  10.310  0.4678  0.5975  1.6946
  184SLPC   H5Y21176   3.774   1.532  10.265 -0.9645  0.4711 -1.1688
  184SLPC   C3621177   3.807   1.737  10.179 -0.8164  1.4061  0.6853
  184SLPC   H6X21178   3.912   1.708  10.159 -0.9534  1.3714 -0.0203
  184SLPC   H6Y21179   3.800   1.843  10.212 -0.2695  1.1093  1.8028
  184SLPC   C3721180   3.732   1.704  10.049  0.0105 -0.6811  0.4831
  184SLPC   H7X21181   3.628   1.680  10.079 -0.5064  2.4444  1.5896
  184SLPC   H7Y21182   3.774   1.613  10.000 -0.9600 -0.5674 -0.6183
  184SLPC   C3821183   3.737   1.832   9.957  0.2965 -0.0720  1.0642
  184SLPC   H8X21184   3.841   1.867   9.939 -0.3141  0.7871 -1.1227
  184SLPC   H8Y21185   3.688   1.919  10.006  2.6737  1.6719  0.5430
  184SLPC   C3921186   3.678   1.808   9.822  0.6527  0.1520  0.4812
  184SLPC   H9X21187   3.573   1.777   9.844  0.5755  0.8574  1.1656
  184SLPC   H9Y21188   3.731   1.728   9.766  0.9677 -0.4186  1.5825
  184SLPC  C31021189   3.678   1.924   9.719  0.7966 -0.0147 -0.4092
  184SLPC  H10X21190   3.779   1.968   9.710  1.1484 -0.7986 -0.3229
  184SLPC  H10Y21191   3.610   2.008   9.747 -0.9714 -0.8749 -1.8623
  184SLPC  C31121192   3.649   1.858   9.578 -0.1104 -0.9379  0.4146
  184SLPC  H11X21193   3.547   1.814   9.582 -0.9479  0.9532  1.6315
  184SLPC  H11Y21194   3.724   1.779   9.561  0.0002 -0.4311 -1.6809
  184SLPC  C31221195   3.678   1.966   9.469  0.5027  0.3794 -0.4211
  184SLPC  H12X21196   3.778   2.011   9.487  0.6190  0.5573 -1.4655
  184SLPC  H12Y21197   3.594   2.037   9.485  2.1877  2.3653 -0.0401
  184SLPC  C31321198   3.668   1.915   9.330 -0.3443  0.1483  0.0006
  184SLPC  H13X21199   3.575   1.863   9.300 -0.0865 -0.9898  1.1095
  184SLPC  H13Y21200   3.746   1.837   9.313 -0.3408 -0.1249  1.1499
  184SLPC  C31421201   3.684   2.032   9.228 -0.5131  0.3229  0.3069
  184SLPC  H14X21202   3.788   2.068   9.213 -0.0792 -0.3327  1.5785
  184SLPC  H14Y21203   3.631   2.118   9.274 -0.4900  0.7884 -0.5175
  184SLPC  C31521204   3.612   2.008   9.099 -0.1588  0.0520 -0.0281
  184SLPC  H15X21205   3.604   2.107   9.048 -0.7348 -0.1236 -0.2869
  184SLPC  H15Y21206   3.508   1.973   9.110 -1.0862  2.0737 -1.7087
  184SLPC  C31621207   3.695   1.915   9.002  0.0318 -0.8985 -0.2909
  184SLPC  H16X21208   3.719   1.814   9.043 -0.5923 -0.5047  1.1199
  184SLPC  H16Y21209   3.785   1.975   8.975  0.4554 -1.3289  0.1558
  184SLPC  C31721210   3.614   1.887   8.877  0.1592 -0.9718  0.0970
  184SLPC  H17X21211   3.600   1.983   8.823 -0.8846 -0.1506  1.7456
  184SLPC  H17Y21212   3.514   1.853   8.912  0.9285 -2.1603  1.1951
  184SLPC  C31821213   3.675   1.789   8.781  0.6549 -0.7213  0.1062
  184SLPC  H18X21214   3.690   1.695   8.838 -0.3738 -0.9915 -0.0482
  184SLPC  H18Y21215   3.775   1.822   8.745  0.1850 -0.4339 -0.9805
  184SLPC  H18Z21216   3.605   1.748   8.705  0.8935 -0.0176 -0.5056
  185SLPC     N21217   5.289   4.817   6.597 -0.0311 -0.4374  0.2069
  185SLPC   C1321218   5.390   4.918   6.646 -0.1069 -0.8440 -0.3085
  185SLPC  H13A21219   5.338   5.009   6.673 -0.8588 -1.1850 -0.5720
  185SLPC  H13B21220   5.445   4.897   6.737  0.2483 -0.3614 -0.4084
  185SLPC  H13C21221   5.464   4.943   6.572  1.5011  1.3417  1.8461
  185SLPC   C1421222   5.349   4.677   6.588 -0.4914  0.1275 -0.2945
  185SLPC  H14A21223   5.373   4.638   6.686  2.4101  2.1879 -0.0484
  185SLPC  H14B21224   5.283   4.614   6.531  0.3575  0.6997 -1.9630
  185SLPC  H14C21225   5.448   4.673   6.544 -0.7610 -0.3542 -0.8566
  185SLPC   C1521226   5.241   4.865   6.469 -0.2672  0.9921  0.0208
  185SLPC  H15A21227   5.308   4.848   6.386 -2.4598 -0.0781 -1.6476
  185SLPC  H15B21228   5.155   4.804   6.442  0.3177 -0.1401  0.6071
  185SLPC  H15C21229   5.202   4.965   6.467  0.1522  1.2775  2.6856
  185SLPC   C1221230   5.168   4.817   6.696  0.2020 -0.1755  0.7596
  185SLPC  H12A21231   5.124   4.915   6.680 -0.4431 -0.7273 -1.0640
  185SLPC  H12B21232   5.199   4.818   6.799  1.7494  1.1152  0.3260
  185SLPC   C1121233   5.050   4.720   6.672 -0.5747 -0.1046  0.0109
  185SLPC  H11A21234   5.020   4.741   6.567  4.0300 -0.2986 -1.5831
  185SLPC  H11B21235   4.964   4.751   6.736  0.1910 -1.0965  1.5750
  185SLPC     P21236   5.134   4.510   6.821 -0.2304  0.7244  0.2252
  185SLPC   O1321237   5.029   4.430   6.878  0.0479  0.7241 -0.0639
  185SLPC   O1421238   5.257   4.448   6.771 -0.3736  0.3502 -0.3341
  185SLPC   O1221239   5.071   4.584   6.690 -0.3125 -0.0709 -0.8348
  185SLPC   O1121240   5.160   4.624   6.932  0.7423  0.3650  0.1783
  185SLPC    C121241   5.074   4.688   7.020 -0.4093  0.6159  0.2695
  185SLPC    HA21242   5.078   4.796   6.995 -1.9162  0.4823 -0.6902
  185SLPC    HB21243   4.966   4.668   7.003 -0.5061  2.3992 -1.5503
  185SLPC    C221244   5.122   4.677   7.174  0.4360  0.6707  0.8447
  185SLPC    HS21245   5.220   4.725   7.190  0.3193  0.8165  1.1225
  185SLPC   O2121246   5.132   4.533   7.204 -0.0916 -0.0923 -0.2219
  185SLPC   C2121247   5.258   4.492   7.224 -0.1434  0.4411 -0.3923
  185SLPC   O2221248   5.357   4.563   7.223  0.1308  0.9677  0.0545
  185SLPC   C2221249   5.254   4.341   7.254 -0.4097  1.4981  0.0131
  185SLPC   H2R21250   5.193   4.301   7.170  0.9163 -1.0257  0.1641
  185SLPC   H2S21251   5.354   4.295   7.245  0.0144  2.1473  1.1839
  185SLPC    C321252   5.027   4.754   7.271  0.1953 -0.2384  0.1720
  185SLPC    HX21253   4.921   4.726   7.258 -0.0414  0.1247  1.2659
  185SLPC    HY21254   5.024   4.861   7.239  0.1158 -0.7197 -1.5194
  185SLPC   O3121255   5.059   4.735   7.414  0.6618  0.5506 -0.3110
  185SLPC   C3121256   5.163   4.796   7.465 -0.5175  0.4689  0.1425
  185SLPC   O3221257   5.223   4.884   7.407 -0.2535 -1.0916  0.5853
  185SLPC   C3221258   5.196   4.750   7.611  1.3067  0.4860  0.4217
  185SLPC   H2X21259   5.306   4.745   7.621  1.5699 -0.4593 -2.3184
  185SLPC   H2Y21260   5.159   4.645   7.620 -1.0851  1.3085  1.0461
  185SLPC   C2321261   5.183   4.312   7.386 -0.3717  0.2404 -0.3127
  185SLPC   H3R21262   5.173   4.204   7.406  0.6999  0.6471  3.1403
  185SLPC   H3S21263   5.081   4.356   7.380 -0.5087  0.3854  2.1094
  185SLPC   C2421264   5.250   4.366   7.518  0.1436  0.1961  0.6534
  185SLPC   H4R21265   5.269   4.474   7.501 -0.1822 -0.0743 -1.7156
  185SLPC   H4S21266   5.347   4.315   7.533  0.9399  1.4595 -0.0715
  185SLPC   C2521267   5.164   4.340   7.635  0.2318 -0.0272 -0.0388
  185SLPC   H5R21268   5.128   4.235   7.633  1.2759 -0.3890 -1.4367
  185SLPC   H5S21269   5.080   4.411   7.625 -0.8218 -1.2328  0.0873
  185SLPC   C2621270   5.239   4.364   7.771  0.4313 -0.3366  0.2247
  185SLPC   H6R21271   5.300   4.457   7.774 -0.3303  0.1519  1.9991
  185SLPC   H6S21272   5.301   4.275   7.792 -1.3817 -0.8672  4.4247
  185SLPC   C2721273   5.138   4.380   7.887  0.1289  0.2108 -0.8037
  185SLPC   H7R21274   5.094   4.281   7.914  0.4565  0.8288  2.4561
  185SLPC   H7S21275   5.046   4.434   7.857 -1.6302 -1.1367  1.7149
  185SLPC   C2821276   5.209   4.437   8.008  0.2112 -0.0106 -0.1909
  185SLPC   H8R21277   5.238   4.536   7.967 -2.0690 -0.6079 -3.7010
  185SLPC   H8S21278   5.290   4.369   8.040 -0.0451 -1.5001 -2.4306
  185SLPC   C2921279   5.115   4.457   8.121  0.0354  0.7305 -0.0020
  185SLPC   H9R21280   5.039   4.534   8.099 -0.6906  0.0729  0.1645
  185SLPC  C21021281   5.114   4.391   8.236 -0.0727  0.9901  0.2776
  185SLPC  H10R21282   5.032   4.417   8.304  0.3153  1.0700  0.7261
  185SLPC  C21121283   5.209   4.282   8.283 -0.4248 -0.3462  0.5484
  185SLPC  H11R21284   5.308   4.328   8.299 -0.2967 -0.5596  0.3702
  185SLPC  H11S21285   5.239   4.209   8.205  1.0775  3.0851 -2.3686
  185SLPC  C21221286   5.171   4.218   8.410  0.3552 -0.1014  0.1130
  185SLPC  H12R21287   5.114   4.127   8.387 -0.2541  0.0482  1.0163
  185SLPC  C21321288   5.190   4.264   8.536 -0.2377 -0.2418  0.1374
  185SLPC  H13R21289   5.169   4.200   8.623  0.3450 -0.3173  0.2241
  185SLPC  C21421290   5.242   4.396   8.571 -0.4139  0.7067  0.2067
  185SLPC  H14R21291   5.164   4.449   8.630 -0.7060  0.2978  0.1952
  185SLPC  H14S21292   5.249   4.464   8.483 -2.3392  0.0952 -0.4810
  185SLPC  C21521293   5.379   4.384   8.647  1.0129 -0.3129 -0.4465
  185SLPC  H15R21294   5.395   4.298   8.715  3.1744 -0.2067 -0.7546
  185SLPC  H15S21295   5.399   4.480   8.698 -2.2082  0.6834 -0.7884
  185SLPC  C21621296   5.502   4.380   8.558  0.3456 -0.1278  0.1608
  185SLPC  H16R21297   5.496   4.444   8.468  2.0762  0.5694  0.4902
  185SLPC  H16S21298   5.501   4.283   8.504  0.0439 -1.0733  1.7910
  185SLPC  C21721299   5.623   4.412   8.633 -0.4170 -0.7989  0.2513
  185SLPC  H17R21300   5.601   4.423   8.742  0.1009  0.2752  0.2629
  185SLPC  H17S21301   5.661   4.512   8.604  0.4287 -0.6112  1.8860
  185SLPC  C21821302   5.742   4.318   8.600 -0.1104 -0.5140 -0.1133
  185SLPC  H18R21303   5.758   4.330   8.491 -0.1811  0.6727 -0.0136
  185SLPC  H18S21304   5.733   4.218   8.647 -0.4983  0.5778  2.3306
  185SLPC  H18T21305   5.833   4.360   8.649  0.2159 -2.0039  0.5998
  185SLPC   C3321306   5.148   4.846   7.727 -0.3211 -0.5192 -0.4243
  185SLPC   H3X21307   5.039   4.868   7.717 -0.2809 -0.2890 -0.3588
  185SLPC   H3Y21308   5.198   4.945   7.724 -0.1660 -0.5955 -0.3758
  185SLPC   C3421309   5.184   4.788   7.866  0.5414 -0.9886 -0.3173
  185SLPC   H4X21310   5.292   4.781   7.892  0.4724  0.9118  0.6024
  185SLPC   H4Y21311   5.140   4.686   7.872 -3.0391  0.4981  2.0505
  185SLPC   C3521312   5.117   4.858   7.984 -0.0551 -0.3220 -0.2674
  185SLPC   H5X21313   5.015   4.814   7.986 -0.5023  0.6700  1.7855
  185SLPC   H5Y21314   5.106   4.965   7.956  2.8720 -0.3611 -1.9248
  185SLPC   C3621315   5.196   4.826   8.116 -0.3466 -0.7144  1.2770
  185SLPC   H6X21316   5.284   4.894   8.115 -0.3130 -0.7137 -1.0619
  185SLPC   H6Y21317   5.234   4.722   8.115 -1.0636 -0.9861  1.7751
  185SLPC   C3721318   5.115   4.850   8.247  0.1154  0.1148  0.0004
  185SLPC   H7X21319   5.024   4.786   8.248 -0.4756  0.9401  1.1092
  185SLPC   H7Y21320   5.081   4.955   8.263 -0.3200 -0.1870  1.1711
  185SLPC   C3821321   5.183   4.801   8.369 -1.1649  0.7116 -0.6987
  185SLPC   H8X21322   5.282   4.848   8.387 -0.7724  0.1937 -1.4577
  185SLPC   H8Y21323   5.201   4.692   8.359  0.7172  0.9568 -0.2629
  185SLPC   C3921324   5.103   4.822   8.499 -0.4435 -0.0636 -0.1690
  185SLPC   H9X21325   5.000   4.786   8.482 -0.3049 -0.7506  0.4032
  185SLPC   H9Y21326   5.089   4.932   8.514  1.2502  0.0617  0.7866
  185SLPC  C31021327   5.164   4.764   8.627 -0.5637 -0.2155  0.4596
  185SLPC  H10X21328   5.240   4.829   8.675 -1.3378  0.2564  1.0643
  185SLPC  H10Y21329   5.227   4.678   8.596  1.2485  1.6420 -1.2981
  185SLPC  C31121330   5.070   4.732   8.737  0.4262 -0.2613 -0.5350
  185SLPC  H11X21331   5.115   4.684   8.827  0.9134 -0.4270 -0.8686
  185SLPC  H11Y21332   4.999   4.658   8.694 -0.9758 -1.2890  3.1391
  185SLPC  C31221333   4.982   4.854   8.796 -0.0680  0.2052 -0.3107
  185SLPC  H12X21334   4.937   4.905   8.708  0.5415  0.2810 -0.5909
  185SLPC  H12Y21335   5.039   4.932   8.850 -1.3248  1.9275 -1.3742
  185SLPC  C31321336   4.858   4.816   8.878  0.5358 -0.4756 -0.4791
  185SLPC  H13X21337   4.785   4.756   8.820 -2.9718 -0.6070  3.5878
  185SLPC  H13Y21338   4.810   4.908   8.916 -0.0667 -1.0345  0.1439
  185SLPC  C31421339   4.893   4.724   8.997  0.0002  0.2237  0.2008
  185SLPC  H14X21340   4.955   4.769   9.077 -1.3178 -0.4790  1.6741
  185SLPC  H14Y21341   4.954   4.636   8.967  0.7414  1.3124 -1.6261
  185SLPC  C31521342   4.764   4.679   9.070 -0.3415  0.2981 -0.6402
  185SLPC  H15X21343   4.716   4.607   9.001 -0.0551 -2.0566  1.4831
  185SLPC  H15Y21344   4.688   4.755   9.097 -2.6754 -2.5236  1.2516
  185SLPC  C31621345   4.802   4.599   9.195 -0.3173  0.1200  0.0246
  185SLPC  H16X21346   4.906   4.625   9.222  0.5782  1.2931 -3.9961
  185SLPC  H16Y21347   4.813   4.493   9.162  3.2394  0.2386  0.4317
  185SLPC  C31721348   4.709   4.609   9.312 -0.5081  0.4579  0.0985
  185SLPC  H17X21349   4.604   4.589   9.282 -0.3572  1.3718 -1.1226
  185SLPC  H17Y21350   4.708   4.712   9.355 -1.2246  0.7407 -0.5704
  185SLPC  C31821351   4.740   4.507   9.427 -0.0876 -0.3497  0.2748
  185SLPC  H18X21352   4.672   4.535   9.510 -0.4955 -0.5687  0.0150
  185SLPC  H18Y21353   4.848   4.507   9.455 -0.1225 -2.9917  0.6862
  185SLPC  H18Z21354   4.713   4.405   9.393 -2.2091  0.1356  0.3862
  186SLPC     N21355   6.608   0.983   6.066  0.5420 -0.2609  0.5129
  186SLPC   C1321356   6.645   1.131   6.033  0.3287  0.1610 -0.9951
  186SLPC  H13A21357   6.667   1.201   6.112 -0.4835 -0.2475 -0.3934
  186SLPC  H13B21358   6.734   1.132   5.971  1.7590  1.7069  0.9504
  186SLPC  H13C21359   6.565   1.172   5.973  0.2707  0.3971 -0.7599
  186SLPC   C1421360   6.591   0.904   5.939  0.5150 -1.1457 -0.1588
  186SLPC  H14A21361   6.520   0.957   5.876  0.2148 -1.4144 -0.0498
  186SLPC  H14B21362   6.680   0.896   5.878  0.5525 -2.7311  0.0770
  186SLPC  H14C21363   6.554   0.807   5.968  1.0060 -0.9098  1.3386
  186SLPC   C1521364   6.477   0.989   6.137  0.2034 -0.9008 -0.6488
  186SLPC  H15A21365   6.485   1.065   6.213  0.4672 -1.2014 -0.3735
  186SLPC  H15B21366   6.389   1.022   6.083 -0.4604  2.3926  2.0547
  186SLPC  H15C21367   6.448   0.896   6.182 -0.8341 -0.7047 -0.8962
  186SLPC   C1221368   6.706   0.912   6.151  0.2315  0.0920  0.5045
  186SLPC  H12A21369   6.791   0.895   6.087  0.3663  0.9508  0.4439
  186SLPC  H12B21370   6.657   0.817   6.169 -2.6932  0.8221 -2.5002
  186SLPC   C1121371   6.764   0.976   6.284  0.3234 -0.8582  0.3493
  186SLPC  H11A21372   6.827   1.062   6.252  1.8584 -1.9463  0.3482
  186SLPC  H11B21373   6.844   0.907   6.317 -0.1715 -1.6592 -0.0889
  186SLPC     P21374   6.630   0.884   6.486 -0.3315 -0.5546  0.0103
  186SLPC   O1321375   6.512   0.923   6.564 -0.0435  0.1285 -0.2278
  186SLPC   O1421376   6.611   0.757   6.411 -1.0097  0.8843  0.6973
  186SLPC   O1221377   6.666   0.996   6.378 -0.3745 -0.2384 -0.6915
  186SLPC   O1121378   6.762   0.872   6.565  0.1815  0.2897 -0.5841
  186SLPC    C121379   6.846   0.984   6.598 -0.5935  0.1849 -0.3441
  186SLPC    HA21380   6.931   0.989   6.526 -1.1842  1.1022 -0.9900
  186SLPC    HB21381   6.783   1.074   6.587 -0.8301  0.1137  0.3893
  186SLPC    C221382   6.879   0.975   6.750 -0.0251  0.5556  0.0292
  186SLPC    HS21383   6.953   0.893   6.764 -0.5640  0.5055  3.5052
  186SLPC   O2121384   6.761   0.957   6.828  0.0816  0.2820 -0.5789
  186SLPC   C2121385   6.721   0.833   6.869  0.3228  0.5584 -0.3590
  186SLPC   O2221386   6.795   0.740   6.877 -0.4848 -0.2580  0.2539
  186SLPC   C2221387   6.571   0.840   6.918  0.2199  0.4645 -0.5067
  186SLPC   H2R21388   6.515   0.808   6.828  0.7290  0.8530 -0.9726
  186SLPC   H2S21389   6.551   0.763   6.995 -2.6948  1.1371 -0.4756
  186SLPC    C321390   6.944   1.099   6.799 -0.1235  0.1446 -0.0788
  186SLPC    HX21391   6.887   1.190   6.769 -1.1896 -0.6896 -0.6676
  186SLPC    HY21392   7.048   1.103   6.760  0.6951  1.8810  2.0472
  186SLPC   O3121393   6.960   1.084   6.942 -0.4740 -0.2827 -0.2485
  186SLPC   C3121394   6.880   1.157   7.021 -0.1010  0.1252  0.7720
  186SLPC   O3221395   6.781   1.220   6.982 -0.0185  0.5670 -0.0327
  186SLPC   C3221396   6.937   1.152   7.158  0.1113  0.0437 -0.4098
  186SLPC   H2X21397   7.045   1.179   7.163  0.3131 -0.7539 -0.4392
  186SLPC   H2Y21398   6.926   1.049   7.196  1.0638  0.0102 -0.2071
  186SLPC   C2321399   6.513   0.985   6.951 -0.2242 -0.2781 -0.2268
  186SLPC   H3R21400   6.403   0.974   6.948 -0.3999  1.2409 -0.1917
  186SLPC   H3S21401   6.549   1.066   6.883 -1.5660  0.3346 -0.2362
  186SLPC   C2421402   6.548   1.021   7.098 -0.7742  0.7171  0.3023
  186SLPC   H4R21403   6.497   1.117   7.123 -4.1222 -1.6267  3.4874
  186SLPC   H4S21404   6.659   1.028   7.101 -0.6850 -0.4676  0.3388
  186SLPC   C2521405   6.507   0.916   7.208  0.0504  0.4214  0.0980
  186SLPC   H5R21406   6.548   0.815   7.188 -0.3460  0.9923 -4.6336
  186SLPC   H5S21407   6.398   0.897   7.216  0.5523 -2.7188  0.5040
  186SLPC   C2621408   6.536   0.975   7.341  0.0533 -0.5823 -0.7441
  186SLPC   H6R21409   6.490   1.076   7.341  0.0218 -0.5967 -0.9813
  186SLPC   H6S21410   6.645   0.985   7.359 -0.2383  0.3499  0.7057
  186SLPC   C2721411   6.478   0.890   7.454 -0.0062  0.2183  0.5339
  186SLPC   H7R21412   6.521   0.788   7.460  0.7433  0.4914  0.0223
  186SLPC   H7S21413   6.370   0.888   7.430  0.1105  0.8640 -0.0947
  186SLPC   C2821414   6.486   0.953   7.596  0.0391  0.4439  0.2746
  186SLPC   H8R21415   6.418   0.890   7.657  0.7124 -1.5240 -0.8821
  186SLPC   H8S21416   6.433   1.050   7.600  0.4363  0.6382  0.9074
  186SLPC   C2921417   6.625   0.963   7.654  0.2748 -0.5619 -0.1128
  186SLPC   H9R21418   6.707   0.962   7.581  1.2800 -0.0307  0.9891
  186SLPC  C21021419   6.651   0.998   7.783  0.1432  0.3187 -0.3905
  186SLPC  H10R21420   6.753   1.015   7.822 -0.4309 -0.2326  1.4602
  186SLPC  C21121421   6.541   1.015   7.880  0.0807 -0.1489 -0.3285
  186SLPC  H11R21422   6.443   0.972   7.850  0.2468 -0.9998  0.3184
  186SLPC  H11S21423   6.519   1.124   7.888  1.3071  0.1154 -0.3581
  186SLPC  C21221424   6.579   0.955   8.011  0.3398 -0.0681  0.1050
  186SLPC  H12R21425   6.597   0.847   8.027 -0.5831 -0.0052  1.7861
  186SLPC  C21321426   6.601   1.033   8.124  0.1311 -0.6504  0.8056
  186SLPC  H13R21427   6.625   0.988   8.222  1.9876 -1.1011  0.1929
  186SLPC  C21421428   6.600   1.186   8.125 -0.0041  0.3423  0.3659
  186SLPC  H14R21429   6.500   1.230   8.109  0.9300  1.7454 -2.2488
  186SLPC  H14S21430   6.670   1.226   8.048  0.3842  2.1923  1.6141
  186SLPC  C21521431   6.647   1.253   8.262  0.5062  0.0200  0.1795
  186SLPC  H15R21432   6.665   1.362   8.250 -0.5230  0.3913  1.7865
  186SLPC  H15S21433   6.746   1.210   8.291 -1.2209 -3.5245  1.4842
  186SLPC  C21621434   6.540   1.223   8.368  0.3957 -0.3942 -0.1130
  186SLPC  H16R21435   6.512   1.116   8.368 -1.9708  0.1348  1.7066
  186SLPC  H16S21436   6.441   1.268   8.342  0.3136 -2.4956 -4.2627
  186SLPC  C21721437   6.584   1.270   8.498  0.1902 -0.1573  0.3756
  186SLPC  H17R21438   6.668   1.205   8.531  0.7495 -0.6960 -1.9365
  186SLPC  H17S21439   6.500   1.260   8.570 -0.1212  0.2536  0.0715
  186SLPC  C21821440   6.621   1.424   8.510 -0.2974  0.5675 -0.8028
  186SLPC  H18R21441   6.667   1.430   8.610 -0.9927 -0.4620 -0.4107
  186SLPC  H18S21442   6.530   1.487   8.501 -0.3516  0.4801 -0.8743
  186SLPC  H18T21443   6.688   1.467   8.433  0.9569 -1.2628 -0.7831
  186SLPC   C3321444   6.866   1.255   7.253 -0.0004  0.0173  0.3251
  186SLPC   H3X21445   6.760   1.222   7.267  0.2549 -0.9125  0.1465
  186SLPC   H3Y21446   6.875   1.344   7.188  2.5262  0.3034  0.9774
  186SLPC   C3421447   6.930   1.268   7.395  0.1998  0.4318  0.9176
  186SLPC   H4X21448   6.895   1.364   7.440 -0.3078  0.8272 -0.2957
  186SLPC   H4Y21449   7.039   1.277   7.376  0.0054 -1.7296 -1.6476
  186SLPC   C3521450   6.910   1.156   7.491  0.0376  0.2211 -0.7974
  186SLPC   H5X21451   6.959   1.063   7.456 -1.5842 -0.5438 -1.1446
  186SLPC   H5Y21452   6.804   1.123   7.500  0.0814  0.4048  0.5124
  186SLPC   C3621453   6.954   1.182   7.639 -0.1469 -0.2850 -0.0695
  186SLPC   H6X21454   6.956   1.089   7.700 -3.0473 -1.2284 -1.2495
  186SLPC   H6Y21455   6.863   1.231   7.680 -0.0107 -0.8359  0.9419
  186SLPC   C3721456   7.081   1.271   7.659 -0.0150 -0.2372 -0.5171
  186SLPC   H7X21457   7.065   1.379   7.640  1.3078  0.6898  2.8734
  186SLPC   H7Y21458   7.143   1.233   7.575 -3.3029 -1.4347 -2.6087
  186SLPC   C3821459   7.144   1.265   7.799 -0.0098  0.1109 -0.9339
  186SLPC   H8X21460   7.220   1.344   7.816 -1.1732  1.1684 -0.4750
  186SLPC   H8Y21461   7.208   1.174   7.800 -0.9684 -0.5964  0.7497
  186SLPC   C3921462   7.047   1.267   7.918 -0.3236  0.5981 -0.0519
  186SLPC   H9X21463   6.982   1.177   7.923 -1.3513  1.3919  1.9118
  186SLPC   H9Y21464   6.972   1.346   7.896 -0.3177  0.0729 -2.1685
  186SLPC  C31021465   7.124   1.279   8.047  0.6528  0.0694  0.1005
  186SLPC  H10X21466   7.183   1.374   8.048 -1.2733  1.3602  2.2043
  186SLPC  H10Y21467   7.190   1.190   8.049  1.6223  0.7816  0.9965
  186SLPC  C31121468   7.023   1.277   8.165  0.1687  0.5405 -0.2111
  186SLPC  H11X21469   6.971   1.179   8.167  0.3343  0.3294 -2.6930
  186SLPC  H11Y21470   6.949   1.360   8.162 -2.4070 -1.5541  1.3109
  186SLPC  C31221471   7.097   1.294   8.301  1.0279 -0.0636  0.1760
  186SLPC  H12X21472   7.168   1.377   8.280  2.0245 -0.9867 -0.2059
  186SLPC  H12Y21473   7.162   1.207   8.323  4.8691  2.6454  0.5611
  186SLPC  C31321474   7.003   1.321   8.412  0.8040  0.1266  0.0070
  186SLPC  H13X21475   6.933   1.238   8.437  0.6373  0.9176  2.3788
  186SLPC  H13Y21476   6.931   1.393   8.366  0.0519 -0.9746 -0.6118
  186SLPC  C31421477   7.078   1.362   8.539  0.0745  0.0954  0.2386
  186SLPC  H14X21478   7.140   1.454   8.529 -1.1984  0.8200 -1.5208
  186SLPC  H14Y21479   7.152   1.282   8.556 -0.2579 -0.1205  0.6980
  186SLPC  C31521480   6.996   1.384   8.663  0.2108 -0.0826  0.4215
  186SLPC  H15X21481   6.936   1.294   8.687 -1.6827  1.1245  0.4131
  186SLPC  H15Y21482   6.936   1.477   8.655  1.5819  0.8649  0.7839
  186SLPC  C31621483   7.094   1.405   8.781  0.3481 -0.0368  0.2657
  186SLPC  H16X21484   7.171   1.483   8.764 -0.2627  0.4527 -0.2979
  186SLPC  H16Y21485   7.136   1.303   8.796 -1.7386 -0.6862  2.3237
  186SLPC  C31721486   7.024   1.444   8.914 -0.1273 -0.4084  0.0011
  186SLPC  H17X21487   6.958   1.528   8.885  1.0784  1.3596  2.0091
  186SLPC  H17Y21488   7.095   1.484   8.990 -1.7853  2.0058  0.3740
  186SLPC  C31821489   6.939   1.324   8.970 -0.2556 -0.7175  0.3852
  186SLPC  H18X21490   6.906   1.359   9.070  0.6505  0.0680  0.4244
  186SLPC  H18Y21491   7.000   1.234   8.995  0.9729 -0.2300 -0.7788
  186SLPC  H18Z21492   6.851   1.294   8.909  0.4279 -2.1920  0.0734
  187SLPC     N21493   6.460   4.526   6.553  0.2097 -0.4180 -0.3293
  187SLPC   C1321494   6.594   4.526   6.612  0.0676 -0.6290 -1.0426
  187SLPC  H13A21495   6.669   4.493   6.542  1.1772  1.8365 -1.1212
  187SLPC  H13B21496   6.616   4.630   6.635 -1.8058  0.3538 -3.2277
  187SLPC  H13C21497   6.596   4.476   6.708 -0.8081  1.9810  0.4663
  187SLPC   C1421498   6.417   4.388   6.514  0.2156 -0.0340 -0.0471
  187SLPC  H14A21499   6.404   4.330   6.604 -0.6851 -1.4962 -1.0634
  187SLPC  H14B21500   6.324   4.392   6.459 -0.6609  1.4458  1.4469
  187SLPC  H14C21501   6.496   4.338   6.462  1.2437 -0.2318  1.6266
  187SLPC   C1521502   6.463   4.615   6.431 -0.2926 -0.5766  0.8235
  187SLPC  H15A21503   6.363   4.614   6.388 -0.2950 -1.0801  0.8360
  187SLPC  H15B21504   6.489   4.715   6.464  2.7413 -1.4604  1.4296
  187SLPC  H15C21505   6.522   4.571   6.353  0.0991  1.5507 -0.1694
  187SLPC   C1221506   6.358   4.580   6.650 -0.3631 -0.6077 -0.2228
  187SLPC  H12A21507   6.324   4.494   6.706  1.2237 -1.5390 -0.6245
  187SLPC  H12B21508   6.281   4.630   6.593  0.1044  0.4923  0.0876
  187SLPC   C1121509   6.391   4.695   6.737 -0.4119 -0.1827  0.3301
  187SLPC  H11A21510   6.461   4.660   6.816 -1.8837 -1.7127  1.0099
  187SLPC  H11B21511   6.303   4.718   6.800 -0.9844 -2.8966  0.6498
  187SLPC     P21512   6.384   4.950   6.675  0.2041 -0.1248  0.3035
  187SLPC   O1321513   6.486   5.040   6.622  0.3206  0.3369 -0.0063
  187SLPC   O1421514   6.261   4.949   6.595  0.1229  0.1605 -0.6287
  187SLPC   O1221515   6.443   4.806   6.663 -0.1221  0.3150  0.4750
  187SLPC   O1121516   6.354   4.979   6.830  0.5705  0.1493 -0.1998
  187SLPC    C121517   6.428   4.940   6.943 -0.3044  0.0894  0.3427
  187SLPC    HA21518   6.370   4.900   7.029 -1.3515  0.3399 -0.2341
  187SLPC    HB21519   6.501   4.861   6.917 -0.3014  0.2624 -0.1907
  187SLPC    C221520   6.497   5.074   6.992 -0.5151 -0.4754  0.0614
  187SLPC    HS21521   6.551   5.112   6.903 -1.1369 -3.1493 -1.5746
  187SLPC   O2121522   6.586   5.039   7.103 -0.3862  0.5382  0.2984
  187SLPC   C2121523   6.697   5.109   7.120  0.3756 -0.1432 -0.9720
  187SLPC   O2221524   6.733   5.198   7.045 -0.6002  0.2276 -0.0918
  187SLPC   C2221525   6.773   5.049   7.242  0.0441 -0.2949  0.5886
  187SLPC   H2R21526   6.817   4.952   7.211  1.0967  0.1581  0.6367
  187SLPC   H2S21527   6.856   5.119   7.265  1.0790 -1.3793  0.2290
  187SLPC    C321528   6.394   5.179   7.040  0.1697  0.4416  0.3505
  187SLPC    HX21529   6.338   5.139   7.127  0.1572 -0.1923  0.0598
  187SLPC    HY21530   6.325   5.202   6.957  1.4499 -2.0923 -1.5828
  187SLPC   O3121531   6.459   5.297   7.089  0.2054 -0.0130 -0.3225
  187SLPC   C3121532   6.385   5.400   7.137  0.8687  0.0760  0.0652
  187SLPC   O3221533   6.267   5.400   7.156 -0.0261  0.1873  0.0080
  187SLPC   C3221534   6.475   5.520   7.179 -0.1669  0.7067  1.1209
  187SLPC   H2X21535   6.407   5.607   7.175 -0.7652  0.2816  1.7744
  187SLPC   H2Y21536   6.554   5.534   7.103 -0.0306 -0.2360  1.0782
  187SLPC   C2321537   6.694   5.039   7.371 -0.1363  0.4005 -0.3318
  187SLPC   H3R21538   6.613   4.964   7.355  1.5999 -1.5878 -0.2472
  187SLPC   H3S21539   6.665   5.143   7.397  0.3429  0.8998 -1.6539
  187SLPC   C2421540   6.780   4.994   7.493 -0.7152  0.0405  0.3483
  187SLPC   H4R21541   6.859   5.069   7.514 -0.8188  0.4892 -0.7698
  187SLPC   H4S21542   6.826   4.898   7.464 -0.3392  0.6235 -1.0601
  187SLPC   C2521543   6.693   4.973   7.621  0.0072 -0.5743  0.0913
  187SLPC   H5R21544   6.635   4.880   7.605 -1.1572  0.1409  0.0579
  187SLPC   H5S21545   6.616   5.052   7.629  0.8477  0.5839 -2.3123
  187SLPC   C2621546   6.777   4.979   7.754  0.4125  0.6549 -0.8052
  187SLPC   H6R21547   6.835   5.074   7.757  2.7595 -0.6522  3.7537
  187SLPC   H6S21548   6.836   4.885   7.750  1.0040  0.9930 -0.2825
  187SLPC   C2721549   6.696   4.987   7.884 -0.3009 -0.2838 -0.2026
  187SLPC   H7R21550   6.625   4.902   7.898  0.9594 -1.0100  2.6749
  187SLPC   H7S21551   6.642   5.083   7.877 -0.3446 -0.3213 -0.4058
  187SLPC   C2821552   6.780   4.973   8.013  0.0428 -0.8640 -0.2339
  187SLPC   H8R21553   6.846   5.062   8.008 -0.4683 -0.5521 -2.4174
  187SLPC   H8S21554   6.835   4.877   8.015  0.3996 -0.6527  1.3258
  187SLPC   C2921555   6.690   4.975   8.134  0.3122  0.4446  0.2933
  187SLPC   H9R21556   6.587   5.013   8.124  0.3701  0.7559  0.8036
  187SLPC  C21021557   6.732   4.957   8.264  0.3336 -0.4072  0.0932
  187SLPC  H10R21558   6.662   4.984   8.345  1.7852  1.6501  0.7447
  187SLPC  C21121559   6.867   4.907   8.314 -0.1785 -0.1922 -0.0855
  187SLPC  H11R21560   6.897   4.819   8.253 -0.0200  0.2010 -0.5855
  187SLPC  H11S21561   6.863   4.871   8.419 -3.6257  3.1148  1.1129
  187SLPC  C21221562   6.987   5.007   8.302  0.0908 -0.3576  0.4820
  187SLPC  H12R21563   7.044   5.015   8.209  0.6526  1.6868  0.9512
  187SLPC  C21321564   7.013   5.101   8.396  0.0793  0.5120  0.8138
  187SLPC  H13R21565   7.100   5.168   8.396 -0.4323  1.2137  1.8354
  187SLPC  C21421566   6.927   5.126   8.523 -0.0132 -0.1610  0.4994
  187SLPC  H14R21567   6.960   5.056   8.602 -2.1837  0.5855  2.1655
  187SLPC  H14S21568   6.820   5.109   8.498 -0.3019  3.6283 -1.7317
  187SLPC  C21521569   6.953   5.270   8.568 -0.1866  0.0797 -0.1935
  187SLPC  H15R21570   6.916   5.346   8.496  1.7663  1.0079 -0.2822
  187SLPC  H15S21571   7.063   5.283   8.580 -0.0806 -0.8555 -0.0932
  187SLPC  C21621572   6.900   5.292   8.711 -0.3608 -0.7982  0.3579
  187SLPC  H16R21573   6.960   5.220   8.770 -1.2992 -2.7741 -1.0067
  187SLPC  H16S21574   6.792   5.268   8.701 -0.4388 -0.2152 -0.2948
  187SLPC  C21721575   6.907   5.436   8.757 -0.0739 -0.9043 -0.4619
  187SLPC  H17R21576   6.859   5.498   8.679  1.2924 -0.1106 -0.7077
  187SLPC  H17S21577   7.010   5.477   8.765 -0.2702 -0.2269 -1.2721
  187SLPC  C21821578   6.851   5.455   8.899  0.0119 -0.2193 -0.0389
  187SLPC  H18R21579   6.759   5.393   8.909 -1.1887  1.4444 -0.4613
  187SLPC  H18S21580   6.819   5.559   8.920 -0.7634 -0.1418 -1.4917
  187SLPC  H18T21581   6.927   5.426   8.974 -0.5959 -0.7451  0.3917
  187SLPC   C3321582   6.533   5.497   7.319  0.0680 -0.8860  0.4418
  187SLPC   H3X21583   6.472   5.425   7.378 -0.9795  1.2820  2.1401
  187SLPC   H3Y21584   6.540   5.589   7.381 -1.8602 -0.8761  0.7044
  187SLPC   C3421585   6.671   5.448   7.312 -0.3907  0.4430  0.2227
  187SLPC   H4X21586   6.736   5.499   7.238 -0.2311 -1.3418 -0.9407
  187SLPC   H4Y21587   6.671   5.343   7.276 -0.0024  1.0510 -1.6781
  187SLPC   C3521588   6.754   5.473   7.438 -0.4710  0.4431 -0.4502
  187SLPC   H5X21589   6.697   5.434   7.525 -1.1013 -0.9253 -1.4350
  187SLPC   H5Y21590   6.769   5.582   7.450 -2.8306  0.6506  1.2102
  187SLPC   C3621591   6.887   5.405   7.416 -0.2392 -0.4248  0.1975
  187SLPC   H6X21592   6.932   5.438   7.320 -1.8442 -1.3512 -0.9109
  187SLPC   H6Y21593   6.879   5.295   7.408  0.6229 -0.4018 -1.2933
  187SLPC   C3721594   7.000   5.433   7.522  0.0146  0.0468 -0.3029
  187SLPC   H7X21595   7.101   5.398   7.492 -0.1621  0.4807 -1.4436
  187SLPC   H7Y21596   7.003   5.544   7.530  1.8511 -0.0946  1.8867
  187SLPC   C3821597   6.977   5.378   7.664 -0.1421 -0.2340  0.1269
  187SLPC   H8X21598   7.021   5.276   7.663  2.2166  0.6656  2.2922
  187SLPC   H8Y21599   6.868   5.362   7.681  0.0336 -1.0766  0.5238
  187SLPC   C3921600   7.031   5.469   7.767  0.2652  0.3680 -0.0154
  187SLPC   H9X21601   6.981   5.568   7.763  1.4682  1.0689  1.4045
  187SLPC   H9Y21602   7.138   5.490   7.747  0.1109  0.6203 -0.5817
  187SLPC  C31021603   7.026   5.403   7.909  0.0073  0.3105  0.0451
  187SLPC  H10X21604   7.096   5.317   7.897  1.0354  0.7698  2.2507
  187SLPC  H10Y21605   6.924   5.372   7.940 -0.0524  1.4657  1.0761
  187SLPC  C31121606   7.076   5.488   8.026  0.0895 -0.0382  0.2137
  187SLPC  H11X21607   6.994   5.560   8.048  1.4679  2.3459 -1.8874
  187SLPC  H11Y21608   7.157   5.557   7.995  0.0409 -0.1397 -0.1458
  187SLPC  C31221609   7.127   5.430   8.154 -0.4807  0.0969 -0.0336
  187SLPC  H12X21610   7.200   5.348   8.134 -0.5564  0.5080 -2.2655
  187SLPC  H12Y21611   7.036   5.388   8.200 -0.1203 -0.2849  0.3380
  187SLPC  C31321612   7.180   5.548   8.240  0.1045  0.5395 -0.0174
  187SLPC  H13X21613   7.096   5.615   8.266 -0.7017 -0.7603  0.8911
  187SLPC  H13Y21614   7.262   5.600   8.186  1.5546  0.0441  1.6232
  187SLPC  C31421615   7.239   5.492   8.372 -0.7275 -0.4592  0.4903
  187SLPC  H14X21616   7.314   5.413   8.350 -1.1200 -1.0282  1.1440
  187SLPC  H14Y21617   7.160   5.437   8.428  1.3468  0.1065  4.2711
  187SLPC  C31521618   7.294   5.594   8.471  0.3600  0.8201  0.4012
  187SLPC  H15X21619   7.224   5.680   8.481 -1.2518 -0.2330 -1.2061
  187SLPC  H15Y21620   7.390   5.634   8.432 -0.1244  0.8232 -0.8494
  187SLPC  C31621621   7.315   5.521   8.609  0.2958 -0.9241  0.0285
  187SLPC  H16X21622   7.212   5.496   8.642 -0.6166 -0.8449 -2.5279
  187SLPC  H16Y21623   7.361   5.589   8.684  0.4319  0.5639 -1.3480
  187SLPC  C31721624   7.397   5.393   8.604 -0.1087  0.5434  0.5597
  187SLPC  H17X21625   7.485   5.403   8.536  0.2736  2.9207  1.3344
  187SLPC  H17Y21626   7.331   5.314   8.561 -0.2644  0.9620  0.0233
  187SLPC  C31821627   7.458   5.343   8.739 -0.1357  0.5511  0.1111
  187SLPC  H18X21628   7.487   5.236   8.733 -3.3839 -0.4301 -0.2741
  187SLPC  H18Y21629   7.384   5.334   8.821 -0.0430 -2.4859 -0.0353
  187SLPC  H18Z21630   7.546   5.399   8.777 -1.2092  1.5210  1.2735
  188SLPC     N21631   2.108   0.248   6.384 -0.1039  0.5188 -0.2582
  188SLPC   C1321632   1.983   0.219   6.302 -0.1340  0.0660 -0.3017
  188SLPC  H13A21633   1.907   0.296   6.303  0.2327  0.4425 -0.8389
  188SLPC  H13B21634   2.006   0.201   6.198 -0.3039  1.8918 -0.6891
  188SLPC  H13C21635   1.941   0.125   6.334  0.7711 -0.4929 -0.7251
  188SLPC   C1421636   2.191   0.347   6.303 -0.3385 -0.3271  0.3489
  188SLPC  H14A21637   2.292   0.364   6.337 -1.3829  3.1772  2.1305
  188SLPC  H14B21638   2.195   0.318   6.199  0.4007  0.0179  0.2781
  188SLPC  H14C21639   2.135   0.439   6.315 -1.8591 -1.3786  1.9679
  188SLPC   C1521640   2.184   0.119   6.388  0.7028  0.0876  0.4312
  188SLPC  H15A21641   2.207   0.088   6.287 -0.5036  2.2472 -0.5804
  188SLPC  H15B21642   2.276   0.137   6.442  0.9215  0.4105 -0.0346
  188SLPC  H15C21643   2.124   0.043   6.434 -0.0962  0.0938 -0.5646
  188SLPC   C1221644   2.070   0.307   6.519  0.3655  0.2139  0.3789
  188SLPC  H12A21645   2.157   0.329   6.579 -0.6378  2.0894  1.2172
  188SLPC  H12B21646   2.020   0.229   6.574  1.2996 -0.8049 -0.1726
  188SLPC   C1121647   1.977   0.431   6.526 -0.5111 -0.0954 -1.0475
  188SLPC  H11A21648   2.018   0.517   6.468  0.5459 -0.6751 -1.1785
  188SLPC  H11B21649   1.971   0.454   6.635  3.0619  2.9732 -1.2583
  188SLPC     P21650   1.722   0.436   6.563 -0.3608  0.1363  0.1018
  188SLPC   O1321651   1.599   0.461   6.487  0.4641  0.3796  0.5289
  188SLPC   O1421652   1.709   0.327   6.664 -0.6800  0.2962 -0.5810
  188SLPC   O1221653   1.850   0.410   6.470 -0.4294  0.3771  0.7532
  188SLPC   O1121654   1.763   0.569   6.634 -0.4556  0.2280 -0.7874
  188SLPC    C121655   1.692   0.638   6.734  0.3297 -0.0460 -0.0742
  188SLPC    HA21656   1.667   0.740   6.697 -0.1608 -1.2062 -3.2687
  188SLPC    HB21657   1.600   0.584   6.761  1.0761 -1.8480 -0.9835
  188SLPC    C221658   1.766   0.640   6.874  0.1847  0.5559  0.5865
  188SLPC    HS21659   1.695   0.683   6.949 -0.8632  2.1853 -1.2322
  188SLPC   O2121660   1.894   0.707   6.875  0.2492 -0.0044  0.0503
  188SLPC   C2121661   1.892   0.838   6.850 -0.0782 -0.5845  0.1548
  188SLPC   O2221662   1.798   0.915   6.841  0.1020  0.2102 -0.4434
  188SLPC   C2221663   2.039   0.886   6.844  0.5704  0.8160  0.0411
  188SLPC   H2R21664   2.098   0.836   6.765  2.6328 -1.4047  2.7846
  188SLPC   H2S21665   2.025   0.991   6.810 -1.9539  0.3758 -0.5077
  188SLPC    C321666   1.793   0.498   6.934  0.1083 -0.4003  0.2709
  188SLPC    HX21667   1.871   0.432   6.890  1.6350 -0.9728  3.5384
  188SLPC    HY21668   1.697   0.445   6.913  0.6821 -1.3299 -0.0588
  188SLPC   O3121669   1.806   0.506   7.084  0.2196  0.1380  1.1124
  188SLPC   C3121670   1.926   0.526   7.120 -0.0005 -0.5103  0.2504
  188SLPC   O3221671   2.029   0.529   7.046 -0.2251  0.7657 -0.8056
  188SLPC   C3221672   1.924   0.537   7.267  0.3100 -0.1276 -0.6543
  188SLPC   H2X21673   1.881   0.445   7.312 -0.7144  0.4430 -0.4345
  188SLPC   H2Y21674   1.853   0.619   7.291 -0.5655 -0.6912 -1.2501
  188SLPC   C2321675   2.113   0.885   6.977 -0.0299  0.3686  0.0351
  188SLPC   H3R21676   2.221   0.894   6.952 -0.2944  1.8805 -0.7069
  188SLPC   H3S21677   2.088   0.792   7.032  1.0874 -0.6032 -1.0480
  188SLPC   C2421678   2.069   1.000   7.069  1.0105  0.4060 -0.3529
  188SLPC   H4R21679   1.958   0.997   7.071  1.0344 -1.3902  0.4819
  188SLPC   H4S21680   2.092   1.100   7.028 -1.0981  1.1645  0.2420
  188SLPC   C2521681   2.128   0.991   7.208 -0.0468 -0.6646 -0.5237
  188SLPC   H5R21682   2.239   1.004   7.206 -0.3415  3.6016  1.2634
  188SLPC   H5S21683   2.113   0.890   7.251  3.1534 -2.2833 -2.7159
  188SLPC   C2621684   2.074   1.090   7.314 -0.1089 -0.1759  0.5915
  188SLPC   H6R21685   1.968   1.070   7.340 -0.7122  2.6801  0.6109
  188SLPC   H6S21686   2.073   1.193   7.274 -1.0690 -0.3209  0.2382
  188SLPC   C2721687   2.157   1.091   7.443  0.1696  0.1588  0.6817
  188SLPC   H7R21688   2.256   1.139   7.426  2.2508 -3.2666  2.1027
  188SLPC   H7S21689   2.182   0.984   7.461  0.8671 -0.3804 -2.7672
  188SLPC   C2821690   2.084   1.170   7.553  0.1415  0.0798  0.8027
  188SLPC   H8R21691   1.988   1.117   7.569 -0.3939  0.9017  0.4253
  188SLPC   H8S21692   2.057   1.267   7.505 -0.2836 -0.7593 -0.7361
  188SLPC   C2921693   2.160   1.173   7.682 -0.9377 -1.0130 -0.7315
  188SLPC   H9R21694   2.238   1.250   7.694 -2.1440  0.1110  0.1235
  188SLPC  C21021695   2.135   1.096   7.790  0.4126  0.0975 -0.5090
  188SLPC  H10R21696   2.209   1.114   7.869 -0.3532 -1.5925  0.6583
  188SLPC  C21121697   2.033   0.987   7.800  0.8918 -0.5538  0.1830
  188SLPC  H11R21698   1.965   0.979   7.713  1.7632 -0.9331 -0.4842
  188SLPC  H11S21699   1.966   1.003   7.887  1.1292 -2.4437  0.7762
  188SLPC  C21221700   2.109   0.861   7.810 -0.0847  0.0526 -0.8275
  188SLPC  H12R21701   2.131   0.810   7.715 -0.2409 -2.3899  0.3692
  188SLPC  C21321702   2.141   0.794   7.924 -0.1972  0.0278 -0.4266
  188SLPC  H13R21703   2.212   0.711   7.924  1.6496  1.4584 -3.2698
  188SLPC  C21421704   2.112   0.844   8.065  0.3236 -0.3235 -0.6230
  188SLPC  H14R21705   2.047   0.935   8.073 -1.0151 -1.1705 -1.3546
  188SLPC  H14S21706   2.205   0.880   8.113  0.8966 -0.0586 -1.8955
  188SLPC  C21521707   2.060   0.741   8.165  0.0963  0.1746  0.0969
  188SLPC  H15R21708   2.126   0.654   8.182 -0.5430  0.0698  2.2701
  188SLPC  H15S21709   1.970   0.691   8.122 -0.7593  0.9777  0.9040
  188SLPC  C21621710   2.026   0.800   8.301  0.2025  0.2389  0.5395
  188SLPC  H16R21711   1.952   0.882   8.288 -1.8820 -1.5883  0.2751
  188SLPC  H16S21712   2.122   0.849   8.327 -1.0448  2.6954  0.7387
  188SLPC  C21721713   1.987   0.693   8.407  0.8792 -0.3561 -0.5960
  188SLPC  H17R21714   2.073   0.625   8.420  0.3749 -1.1753 -1.4698
  188SLPC  H17S21715   1.897   0.644   8.365  0.0116  1.4008 -0.8671
  188SLPC  C21821716   1.934   0.759   8.534 -0.3866 -0.4935 -0.3111
  188SLPC  H18R21717   1.847   0.824   8.514 -0.3115 -0.9850 -2.4701
  188SLPC  H18S21718   2.010   0.821   8.588 -1.6590  2.0053 -1.2328
  188SLPC  H18T21719   1.912   0.687   8.616  0.3305 -1.7524 -1.2024
  188SLPC   C3321720   2.072   0.569   7.312 -0.2425  0.0156 -0.3127
  188SLPC   H3X21721   2.104   0.661   7.260 -1.3461 -0.3279 -1.6906
  188SLPC   H3Y21722   2.152   0.496   7.285 -0.0579  0.2139 -0.2958
  188SLPC   C3421723   2.075   0.591   7.465  0.5173 -0.4046  0.4394
  188SLPC   H4X21724   2.034   0.689   7.495 -0.6332 -1.3168  1.9266
  188SLPC   H4Y21725   2.185   0.597   7.485  0.6988  0.8412 -0.7652
  188SLPC   C3521726   2.018   0.478   7.547  0.0285  0.2811  0.0780
  188SLPC   H5X21727   2.074   0.386   7.520  0.6388  0.8511 -0.6254
  188SLPC   H5Y21728   1.909   0.474   7.524 -0.5219  1.1640  2.2570
  188SLPC   C3621729   2.017   0.497   7.697 -0.1034  0.6220  0.1079
  188SLPC   H6X21730   1.984   0.600   7.723  0.7458  0.4316  2.1781
  188SLPC   H6Y21731   2.121   0.492   7.736  0.2399 -1.4849 -0.9810
  188SLPC   C3721732   1.938   0.390   7.778  0.1136 -1.5136 -0.3997
  188SLPC   H7X21733   1.972   0.287   7.757  0.2394 -1.2298 -1.6836
  188SLPC   H7Y21734   1.837   0.389   7.732  0.9553  1.8393 -2.7371
  188SLPC   C3821735   1.929   0.417   7.932  0.0587 -0.0114 -0.0107
  188SLPC   H8X21736   1.877   0.514   7.949  0.4493  0.3325 -0.7529
  188SLPC   H8Y21737   2.028   0.413   7.982  1.0462  2.5195 -1.5776
  188SLPC   C3921738   1.845   0.297   7.985  0.4070  0.3097  0.3914
  188SLPC   H9X21739   1.909   0.210   7.958  0.6921 -0.1329  2.3097
  188SLPC   H9Y21740   1.748   0.292   7.932 -0.5930  1.1347  2.0539
  188SLPC  C31021741   1.811   0.290   8.137  0.2273  0.3009  1.1365
  188SLPC  H10X21742   1.790   0.188   8.175 -1.4426 -0.0667 -0.6762
  188SLPC  H10Y21743   1.715   0.339   8.162 -0.7514 -0.6013 -0.6353
  188SLPC  C31121744   1.917   0.341   8.229 -0.2373  0.3849 -0.1846
  188SLPC  H11X21745   1.943   0.443   8.193 -0.6432  0.3167 -0.6752
  188SLPC  H11Y21746   2.008   0.276   8.232  0.9421  1.8684 -1.7263
  188SLPC  C31221747   1.857   0.346   8.375  0.0436 -0.4563  0.4924
  188SLPC  H12X21748   1.761   0.401   8.373 -0.2846 -1.0120  0.6852
  188SLPC  H12Y21749   1.925   0.414   8.430  1.7632 -1.3621 -0.4007
  188SLPC  C31321750   1.860   0.208   8.448 -0.2504 -0.4016  0.2021
  188SLPC  H13X21751   1.965   0.173   8.457 -0.6254 -1.8099 -0.6288
  188SLPC  H13Y21752   1.804   0.131   8.391  1.1149 -1.4671  0.2436
  188SLPC  C31421753   1.807   0.228   8.590 -0.5850  0.3436 -0.3149
  188SLPC  H14X21754   1.857   0.311   8.645  0.2071 -1.0491  1.1581
  188SLPC  H14Y21755   1.827   0.130   8.637 -1.5617  1.5096  2.7609
  188SLPC  C31521756   1.656   0.258   8.592 -0.9345  0.4811  0.3277
  188SLPC  H15X21757   1.596   0.175   8.549  1.1272 -0.5359 -0.7562
  188SLPC  H15Y21758   1.639   0.357   8.544 -1.4314  0.0585 -0.3871
  188SLPC  C31621759   1.613   0.294   8.737  0.0773  0.0478  0.5840
  188SLPC  H16X21760   1.511   0.337   8.733 -0.2495 -0.6517  1.2427
  188SLPC  H16Y21761   1.671   0.384   8.764 -1.8574  0.7777  2.5468
  188SLPC  C31721762   1.625   0.175   8.837  0.2921  0.2740  0.6709
  188SLPC  H17X21763   1.727   0.132   8.829  0.1513 -0.1292  1.0265
  188SLPC  H17Y21764   1.556   0.091   8.812 -0.5317  1.1197  0.0518
  188SLPC  C31821765   1.582   0.219   8.974 -0.4341  0.1595 -0.0625
  188SLPC  H18X21766   1.645   0.297   9.021  0.5362  0.0535 -1.1166
  188SLPC  H18Y21767   1.581   0.131   9.042  2.1582  0.0747 -0.0518
  188SLPC  H18Z21768   1.478   0.259   8.976 -0.1664  0.8358  0.6135
  189SLPC     N21769   5.390   0.568   6.510  0.6743 -0.1755 -0.8929
  189SLPC   C1321770   5.513   0.572   6.436 -0.2098 -0.7380  0.0014
  189SLPC  H13A21771   5.491   0.647   6.361  2.2837  0.6534  0.5415
  189SLPC  H13B21772   5.600   0.595   6.496  0.1586 -3.6590  0.7331
  189SLPC  H13C21773   5.530   0.477   6.389  2.2343 -1.2166  1.6354
  189SLPC   C1421774   5.376   0.430   6.577  0.1792  0.4052 -0.1306
  189SLPC  H14A21775   5.470   0.398   6.622  0.5176 -0.5031 -1.4370
  189SLPC  H14B21776   5.303   0.447   6.655  0.4932  1.4589 -0.0451
  189SLPC  H14C21777   5.351   0.348   6.512 -0.3129  0.2375  0.2682
  189SLPC   C1521778   5.267   0.596   6.418 -0.1413 -0.1798 -0.1459
  189SLPC  H15A21779   5.272   0.697   6.380 -4.6879  0.1937 -0.2111
  189SLPC  H15B21780   5.258   0.524   6.338  1.4970 -0.3045 -0.2561
  189SLPC  H15C21781   5.171   0.598   6.468 -1.0989  0.9010 -1.9212
  189SLPC   C1221782   5.387   0.677   6.612 -0.5590  0.0798  0.6293
  189SLPC  H12A21783   5.453   0.647   6.692 -1.1846  1.6529  1.8074
  189SLPC  H12B21784   5.289   0.682   6.658 -0.8392  0.3012  0.0227
  189SLPC   C1121785   5.426   0.819   6.571 -0.3608 -0.3634 -0.5078
  189SLPC  H11A21786   5.519   0.816   6.510  0.6386 -2.0176  0.9994
  189SLPC  H11B21787   5.449   0.881   6.661 -0.0683 -1.4596  0.1845
  189SLPC     P21788   5.204   0.949   6.568  0.4356 -0.1001  0.2796
  189SLPC   O1321789   5.252   1.082   6.606  0.5872 -0.2183 -0.2301
  189SLPC   O1421790   5.074   0.934   6.488 -0.6188  0.4259  0.4488
  189SLPC   O1221791   5.316   0.880   6.488 -0.3089 -0.2086 -0.3974
  189SLPC   O1121792   5.183   0.859   6.699 -0.2518  0.8503  0.6158
  189SLPC    C121793   5.220   0.890   6.837  0.6801  0.0263 -0.2286
  189SLPC    HA21794   5.255   0.801   6.894  2.2527  2.2808  2.6191
  189SLPC    HB21795   5.317   0.946   6.842  1.3603 -1.1436 -0.0243
  189SLPC    C221796   5.116   0.968   6.931  0.6465  0.0174  0.5134
  189SLPC    HS21797   5.109   1.073   6.894  0.4100 -0.0770  0.2845
  189SLPC   O2121798   5.169   0.961   7.066  0.1459 -0.5339  0.1847
  189SLPC   C2121799   5.124   1.047   7.153 -0.1669 -0.1553  0.1470
  189SLPC   O2221800   5.071   1.155   7.121 -0.1746  0.7282  0.4445
  189SLPC   C2221801   5.145   0.995   7.293 -0.1470  0.7286  0.0876
  189SLPC   H2R21802   5.251   0.966   7.312  0.3457  0.7725 -2.3436
  189SLPC   H2S21803   5.117   1.080   7.359  0.9020  0.0534  1.4474
  189SLPC    C321804   4.970   0.909   6.939 -1.2037  0.3841  1.2452
  189SLPC    HX21805   4.984   0.808   6.983  2.6787 -0.5896 -1.7189
  189SLPC    HY21806   4.928   0.891   6.838 -1.6781  0.7546  1.3727
  189SLPC   O3121807   4.883   0.999   7.003  0.5676  0.2003 -0.5517
  189SLPC   C3121808   4.849   1.104   6.920 -0.0689  0.3017 -0.3597
  189SLPC   O3221809   4.873   1.112   6.801 -0.3171  0.0476 -0.7655
  189SLPC   C3221810   4.773   1.200   6.996  0.2796 -0.4589  0.4242
  189SLPC   H2X21811   4.693   1.238   6.929  1.2915  0.1236 -0.5013
  189SLPC   H2Y21812   4.840   1.282   7.031  0.3981 -0.8910  1.2273
  189SLPC   C2321813   5.051   0.875   7.332 -0.5008  0.3196  0.3663
  189SLPC   H3R21814   5.095   0.781   7.294 -0.9502  0.8278 -1.5620
  189SLPC   H3S21815   4.953   0.884   7.279 -0.9328  2.1404  1.3838
  189SLPC   C2421816   5.010   0.867   7.481 -0.3113  0.7505 -0.1646
  189SLPC   H4R21817   4.976   0.764   7.503  0.5195  0.1144 -1.7004
  189SLPC   H4S21818   4.914   0.915   7.508  0.9828  2.3611  1.8875
  189SLPC   C2521819   5.109   0.931   7.583 -0.5884  0.1789 -0.0713
  189SLPC   H5R21820   5.069   0.933   7.687 -0.9958 -0.1727 -0.2176
  189SLPC   H5S21821   5.146   1.032   7.555  0.1517 -0.1101 -0.1641
  189SLPC   C2621822   5.235   0.835   7.601 -0.7230  0.0578  0.4505
  189SLPC   H6R21823   5.249   0.819   7.492  1.9631  0.2680  0.7023
  189SLPC   H6S21824   5.215   0.738   7.651  1.9682 -0.4317  0.7277
  189SLPC   C2721825   5.353   0.911   7.657  0.0871 -0.1743  0.4298
  189SLPC   H7R21826   5.357   1.018   7.628  3.2543 -0.0737  0.8630
  189SLPC   H7S21827   5.442   0.867   7.607  0.6763  2.1433 -0.7074
  189SLPC   C2821828   5.373   0.908   7.807 -0.3338  0.1886 -0.2520
  189SLPC   H8R21829   5.465   0.967   7.829 -1.9966  2.0295  2.4515
  189SLPC   H8S21830   5.388   0.807   7.850 -0.5474 -0.1698 -1.0224
  189SLPC   C2921831   5.269   0.974   7.897 -0.0478 -0.0873  0.3648
  189SLPC   H9R21832   5.260   1.084   7.892 -0.1052 -0.1151 -0.1891
  189SLPC  C21021833   5.170   0.915   7.974 -0.9519 -0.4047 -0.0555
  189SLPC  H10R21834   5.113   0.980   8.043  0.1706  0.6770 -0.1159
  189SLPC  C21121835   5.157   0.764   7.990  0.3328 -0.4341  0.0726
  189SLPC  H11R21836   5.204   0.696   7.917 -4.7296 -3.2654 -1.0376
  189SLPC  H11S21837   5.049   0.746   7.967  0.5858 -0.8728 -0.7905
  189SLPC  C21221838   5.184   0.724   8.131 -0.9667 -0.4475  0.4208
  189SLPC  H12R21839   5.283   0.680   8.150  0.1462  1.7545  0.0557
  189SLPC  C21321840   5.104   0.738   8.240 -0.1065  0.6557  0.1053
  189SLPC  H13R21841   5.154   0.718   8.336 -0.0486  1.6066  0.2784
  189SLPC  C21421842   4.965   0.798   8.244  0.0787 -0.0132  0.2927
  189SLPC  H14R21843   4.921   0.811   8.143 -0.6575 -0.1060  0.5932
  189SLPC  H14S21844   4.974   0.894   8.298 -0.1744 -0.8562  1.8813
  189SLPC  C21521845   4.853   0.706   8.306  0.1950  0.4027  0.3313
  189SLPC  H15R21846   4.844   0.698   8.417 -0.6016 -3.1773  0.1084
  189SLPC  H15S21847   4.868   0.601   8.275  1.0752  0.6375 -0.0687
  189SLPC  C21621848   4.714   0.747   8.254  0.0452  0.6825 -0.9510
  189SLPC  H16R21849   4.711   0.748   8.143 -3.5385 -0.3195 -0.9750
  189SLPC  H16S21850   4.696   0.848   8.298  1.6393  0.3810  0.5177
  189SLPC  C21721851   4.611   0.639   8.285 -0.2560 -0.2603  0.4436
  189SLPC  H17R21852   4.625   0.613   8.392  0.2773  0.9204  0.6773
  189SLPC  H17S21853   4.632   0.544   8.230 -0.3271  1.0124 -1.8992
  189SLPC  C21821854   4.464   0.683   8.271  0.1016 -0.1553 -0.8435
  189SLPC  H18R21855   4.452   0.761   8.349 -0.8639  0.2192 -1.3474
  189SLPC  H18S21856   4.395   0.602   8.302 -1.6376  1.9830  1.2850
  189SLPC  H18T21857   4.444   0.727   8.171 -0.3776 -3.0116 -2.1006
  189SLPC   C3321858   4.714   1.141   7.124  0.1714 -0.0842  0.6965
  189SLPC   H3X21859   4.791   1.089   7.185 -0.5756 -2.8096 -0.5019
  189SLPC   H3Y21860   4.641   1.068   7.083  1.6330 -1.2587  0.0843
  189SLPC   C3421861   4.637   1.245   7.201  0.3275  0.0349  0.4785
  189SLPC   H4X21862   4.552   1.280   7.138  0.9238 -1.2816 -1.1507
  189SLPC   H4Y21863   4.709   1.326   7.225 -0.9118  1.7485 -1.2658
  189SLPC   C3521864   4.569   1.188   7.315 -0.3534 -0.2386  0.2000
  189SLPC   H5X21865   4.653   1.180   7.388  0.0654  1.7731  0.0099
  189SLPC   H5Y21866   4.546   1.084   7.287  1.9467 -0.5470 -0.7518
  189SLPC   C3621867   4.456   1.265   7.382  0.1149 -0.8905 -0.5084
  189SLPC   H6X21868   4.422   1.203   7.467  2.5261 -0.5419  0.8083
  189SLPC   H6Y21869   4.370   1.282   7.314  0.4444 -2.4801 -1.3807
  189SLPC   C3721870   4.518   1.394   7.433 -0.2549 -0.0582  0.0488
  189SLPC   H7X21871   4.571   1.454   7.357  0.8706 -0.9267  0.1145
  189SLPC   H7Y21872   4.597   1.365   7.505 -0.2348  3.5090  1.6805
  189SLPC   C3821873   4.436   1.488   7.526  0.0677  0.2682  0.9705
  189SLPC   H8X21874   4.357   1.538   7.466 -0.1835 -0.4590  0.6775
  189SLPC   H8Y21875   4.496   1.572   7.566 -0.1959  0.2204  1.4753
  189SLPC   C3921876   4.377   1.421   7.653 -0.8849  0.0206  0.3635
  189SLPC   H9X21877   4.416   1.319   7.668 -0.2102  0.2256  0.0547
  189SLPC   H9Y21878   4.267   1.411   7.652 -0.7471 -1.9039  0.6244
  189SLPC  C31021879   4.414   1.503   7.778 -0.1232 -0.1947 -1.2706
  189SLPC  H10X21880   4.368   1.604   7.771  2.1632  0.8243 -2.7526
  189SLPC  H10Y21881   4.522   1.527   7.789 -0.5252  0.9314  0.8945
  189SLPC  C31121882   4.370   1.430   7.918  0.7397  0.0570  0.8159
  189SLPC  H11X21883   4.436   1.341   7.915 -0.0489 -0.5374  0.6980
  189SLPC  H11Y21884   4.265   1.400   7.895  0.0330  2.0387  1.2579
  189SLPC  C31221885   4.381   1.503   8.043 -0.7950 -0.3816 -0.3778
  189SLPC  H12X21886   4.318   1.594   8.059 -0.2414 -0.4286  2.6663
  189SLPC  H12Y21887   4.480   1.551   8.059 -0.5358 -1.4341  1.5552
  189SLPC  C31321888   4.363   1.402   8.163 -0.3635  0.4064  0.4762
  189SLPC  H13X21889   4.444   1.326   8.148 -1.5848 -0.7262 -0.5727
  189SLPC  H13Y21890   4.262   1.357   8.162 -0.9437  1.6916 -0.1751
  189SLPC  C31421891   4.383   1.471   8.298  0.6527  0.2619 -0.0586
  189SLPC  H14X21892   4.318   1.559   8.317  0.6294  0.2796 -0.2229
  189SLPC  H14Y21893   4.483   1.512   8.324  0.8300  0.1650 -0.5783
  189SLPC  C31521894   4.331   1.374   8.406 -0.0170  1.2197  0.1786
  189SLPC  H15X21895   4.384   1.277   8.408 -1.6182  0.2555 -1.4197
  189SLPC  H15Y21896   4.223   1.349   8.399  0.0651  0.2879  1.7309
  189SLPC  C31621897   4.343   1.428   8.552 -0.2341  0.5889  0.6416
  189SLPC  H16X21898   4.289   1.525   8.558 -0.5439  0.4212  0.5364
  189SLPC  H16Y21899   4.452   1.445   8.569  0.0366 -1.8413  1.6662
  189SLPC  C31721900   4.311   1.327   8.661 -0.6228 -0.2257 -0.2439
  189SLPC  H17X21901   4.380   1.241   8.645 -0.7440 -0.7941  1.8877
  189SLPC  H17Y21902   4.209   1.284   8.663 -1.1371  0.9189 -1.0897
  189SLPC  C31821903   4.345   1.385   8.799  0.1368 -0.1178 -0.6794
  189SLPC  H18X21904   4.263   1.437   8.853 -1.4559 -1.2743 -1.8955
  189SLPC  H18Y21905   4.420   1.465   8.778  0.0808  0.3091  0.6861
  189SLPC  H18Z21906   4.378   1.302   8.865 -1.8915  0.7232  1.5021
  190SLPC     N21907   4.470   5.221   6.372 -0.3158 -0.1550  0.1163
  190SLPC   C1321908   4.569   5.109   6.379 -0.1608 -0.3969 -0.1870
  190SLPC  H13A21909   4.551   5.051   6.290 -0.5965 -0.1116 -0.2912
  190SLPC  H13B21910   4.665   5.150   6.406 -1.4149  2.8619 -0.1831
  190SLPC  H13C21911   4.551   5.037   6.457 -2.6400  0.0628 -0.2562
  190SLPC   C1421912   4.334   5.163   6.389 -0.4314 -0.3421  0.3758
  190SLPC  H14A21913   4.269   5.249   6.390 -0.0828  0.0446 -2.0490
  190SLPC  H14B21914   4.303   5.094   6.312  0.5944 -0.3181 -0.0819
  190SLPC  H14C21915   4.322   5.116   6.485 -0.7630 -1.0483 -0.0053
  190SLPC   C1521916   4.478   5.297   6.245 -0.4479 -0.2995  0.4661
  190SLPC  H15A21917   4.453   5.232   6.163 -0.3056 -0.8127  0.8202
  190SLPC  H15B21918   4.418   5.387   6.253  1.3508  1.0397 -0.3533
  190SLPC  H15C21919   4.576   5.341   6.234 -0.6839  1.2496  3.3962
  190SLPC   C1221920   4.485   5.317   6.490 -0.2651 -0.1572 -0.0392
  190SLPC  H12A21921   4.576   5.372   6.468 -0.5571  1.2157  1.9442
  190SLPC  H12B21922   4.510   5.247   6.568  0.7584  0.8815  0.5881
  190SLPC   C1121923   4.378   5.411   6.526 -0.2555  0.5147  0.4542
  190SLPC  H11A21924   4.392   5.441   6.632  0.7970  0.8476  0.2398
  190SLPC  H11B21925   4.283   5.356   6.514  0.7637 -0.9672 -1.4151
  190SLPC     P21926   4.475   5.635   6.450  0.0907 -0.2510 -0.1616
  190SLPC   O1321927   4.610   5.588   6.496  0.0862  0.3998 -0.0231
  190SLPC   O1421928   4.470   5.691   6.315  0.3439 -0.2812  0.0077
  190SLPC   O1221929   4.368   5.522   6.449 -0.1418  0.6448  0.2875
  190SLPC   O1121930   4.415   5.745   6.552  0.4835  0.5666 -0.0664
  190SLPC    C121931   4.389   5.732   6.692  0.5346  0.3671 -0.0843
  190SLPC    HA21932   4.289   5.774   6.713 -0.2153 -1.2028 -0.3852
  190SLPC    HB21933   4.393   5.623   6.717  0.6998  0.3010 -0.3932
  190SLPC    C221934   4.497   5.805   6.780  0.3304  0.1600  0.0410
  190SLPC    HS21935   4.590   5.746   6.766  1.0089  0.8086  1.5057
  190SLPC   O2121936   4.449   5.806   6.919  0.1577 -0.6237 -0.4541
  190SLPC   C2121937   4.457   5.700   6.992 -0.0805 -0.1288 -0.1656
  190SLPC   O2221938   4.516   5.596   6.967  0.0881  0.2833 -0.1079
  190SLPC   C2221939   4.391   5.723   7.123 -0.1640  0.1459 -0.3036
  190SLPC   H2R21940   4.330   5.816   7.113  2.0702  1.7273  0.0825
  190SLPC   H2S21941   4.323   5.637   7.142 -0.5240  0.3333 -0.7331
  190SLPC    C321942   4.504   5.958   6.747 -0.0811 -0.5782  0.6260
  190SLPC    HX21943   4.414   6.016   6.776 -0.3583 -0.4982 -0.3518
  190SLPC    HY21944   4.508   5.972   6.637 -1.6172 -0.4279  0.5726
  190SLPC   O3121945   4.612   6.025   6.811  0.6510  0.0436 -0.4452
  190SLPC   C3121946   4.610   6.156   6.808  0.0452 -0.2959 -0.2877
  190SLPC   O3221947   4.556   6.224   6.727 -0.1087 -1.1411  0.2777
  190SLPC   C3221948   4.679   6.212   6.934 -0.3298  0.5306  0.4281
  190SLPC   H2X21949   4.657   6.321   6.934 -0.3082  0.5408  1.4302
  190SLPC   H2Y21950   4.788   6.207   6.912  0.3510  3.1130  2.6809
  190SLPC   C2321951   4.499   5.745   7.234  0.1659 -0.3522  0.0189
  190SLPC   H3R21952   4.597   5.767   7.187  1.0542  0.1966  2.0485
  190SLPC   H3S21953   4.499   5.654   7.297  1.5310  0.2850  0.9783
  190SLPC   C2421954   4.460   5.857   7.326  0.0904 -0.1252  0.4190
  190SLPC   H4R21955   4.450   5.951   7.269  2.2325  0.9235  1.6293
  190SLPC   H4S21956   4.546   5.874   7.395  1.0862  1.9088 -1.2333
  190SLPC   C2521957   4.330   5.844   7.406 -0.9041  0.5327  0.7510
  190SLPC   H5R21958   4.337   5.744   7.453  1.8121  0.1937 -0.2244
  190SLPC   H5S21959   4.237   5.852   7.347 -0.3455  1.5083 -0.0260
  190SLPC   C2621960   4.318   5.961   7.514 -0.2815  0.3146 -0.3410
  190SLPC   H6R21961   4.309   6.051   7.450 -1.1722  0.6260  0.1976
  190SLPC   H6S21962   4.414   5.960   7.569 -0.1157  0.0387 -0.6340
  190SLPC   C2721963   4.204   5.939   7.618 -0.2017  0.4653  0.2558
  190SLPC   H7R21964   4.114   5.945   7.552 -1.0907 -1.0208  1.2803
  190SLPC   H7S21965   4.192   6.027   7.684  0.6362  0.3149  0.6181
  190SLPC   C2821966   4.194   5.805   7.698  0.0993  0.1080 -0.1201
  190SLPC   H8R21967   4.206   5.720   7.628  1.7388 -1.0955  1.5304
  190SLPC   H8S21968   4.091   5.798   7.740  0.4816  2.6199  1.3854
  190SLPC   C2921969   4.308   5.799   7.801 -0.0347  0.5161 -0.0425
  190SLPC   H9R21970   4.409   5.802   7.755 -0.1882 -2.4387 -0.7442
  190SLPC  C21021971   4.292   5.789   7.936 -1.1352  0.3404  0.1049
  190SLPC  H10R21972   4.385   5.780   7.993 -0.7519  0.5716 -0.4787
  190SLPC  C21121973   4.174   5.780   8.021 -1.0148 -0.5749 -0.1487
  190SLPC  H11R21974   4.188   5.699   8.097 -1.9166 -0.1589  0.4856
  190SLPC  H11S21975   4.089   5.756   7.954 -1.6726  0.7079  0.1971
  190SLPC  C21221976   4.134   5.899   8.099  0.0169 -0.2689 -0.0891
  190SLPC  H12R21977   4.098   5.979   8.033 -2.1240 -1.7240 -0.8173
  190SLPC  C21321978   4.158   5.922   8.231  0.6619 -0.0369  0.2619
  190SLPC  H13R21979   4.134   6.020   8.273 -1.0059  0.2518 -1.2180
  190SLPC  C21421980   4.236   5.822   8.312  0.9733  0.1623 -0.4130
  190SLPC  H14R21981   4.322   5.863   8.369  0.4131 -1.8278  2.0735
  190SLPC  H14S21982   4.288   5.745   8.251  0.3509  0.1831 -0.9842
  190SLPC  C21521983   4.157   5.758   8.430 -0.0287 -0.4056  0.6354
  190SLPC  H15R21984   4.216   5.669   8.462 -2.1995 -1.6363  1.4131
  190SLPC  H15S21985   4.058   5.715   8.403 -1.1625  0.8976  2.4558
  190SLPC  C21621986   4.154   5.850   8.556 -0.0001  0.4070 -0.5459
  190SLPC  H16R21987   4.077   5.924   8.526 -0.2736  1.2037  1.9018
  190SLPC  H16S21988   4.245   5.914   8.561  0.0312  0.8324 -4.0553
  190SLPC  C21721989   4.103   5.796   8.683 -0.0845 -0.2539  0.1342
  190SLPC  H17R21990   4.156   5.701   8.706 -1.4334 -1.1559 -0.3353
  190SLPC  H17S21991   3.999   5.758   8.683 -0.5775  0.7003 -3.5404
  190SLPC  C21821992   4.123   5.895   8.796 -0.8801  0.3420  0.2267
  190SLPC  H18R21993   4.055   5.981   8.776  0.5459  1.2661 -0.9241
  190SLPC  H18S21994   4.228   5.933   8.790 -1.4222  1.8306 -0.5175
  190SLPC  H18T21995   4.099   5.853   8.896  0.8927 -1.9869 -0.2605
  190SLPC   C3321996   4.644   6.135   7.067 -1.3013 -0.0921  0.2611
  190SLPC   H3X21997   4.671   6.028   7.053 -2.8449 -0.5488  0.6249
  190SLPC   H3Y21998   4.540   6.146   7.103 -2.0858 -3.5727 -0.5997
  190SLPC   C3421999   4.741   6.186   7.173 -0.2319 -0.0479 -0.4252
  190SLPC   H4X22000   4.721   6.295   7.181  2.5206  0.4758  0.1306
  190SLPC   H4Y22001   4.845   6.181   7.136 -0.2858  2.1443 -0.9969
  190SLPC   C3522002   4.707   6.130   7.310 -0.3870 -0.0878 -0.0006
  190SLPC   H5X22003   4.748   6.028   7.324 -0.2889  0.1854  2.0313
  190SLPC   H5Y22004   4.596   6.118   7.314 -0.2945 -1.5881 -1.0432
  190SLPC   C3622005   4.766   6.226   7.417  0.4127 -0.3146  0.3833
  190SLPC   H6X22006   4.714   6.324   7.413  3.1431  1.2118 -1.6408
  190SLPC   H6Y22007   4.874   6.238   7.394  0.0237  0.6029 -1.1389
  190SLPC   C3722008   4.745   6.154   7.545 -0.4213  0.1321  0.7657
  190SLPC   H7X22009   4.812   6.065   7.540  0.7832  1.0599 -0.4254
  190SLPC   H7Y22010   4.644   6.107   7.546  0.1463 -1.1525  0.5766
  190SLPC   C3822011   4.781   6.233   7.662  0.2144  0.5103  0.0957
  190SLPC   H8X22012   4.739   6.334   7.639 -2.3031 -0.1197  1.5778
  190SLPC   H8Y22013   4.889   6.240   7.686  0.6164 -1.0017 -1.1525
  190SLPC   C3922014   4.711   6.184   7.786 -0.0875 -0.6557 -0.0742
  190SLPC   H9X22015   4.601   6.192   7.775  0.0174 -1.5701 -2.3639
  190SLPC   H9Y22016   4.743   6.257   7.863  0.1587  0.2354 -0.9986
  190SLPC  C31022017   4.750   6.039   7.817 -0.2642  0.0899  0.2346
  190SLPC  H10X22018   4.856   6.027   7.785 -0.6626 -0.6952 -0.8579
  190SLPC  H10Y22019   4.685   5.971   7.757 -1.9070  3.6477 -2.3759
  190SLPC  C31122020   4.736   6.000   7.963  0.1997  0.3812 -0.0191
  190SLPC  H11X22021   4.813   6.047   8.027  0.3677 -0.6171  0.5242
  190SLPC  H11Y22022   4.740   5.889   7.970 -0.8007  0.4385  1.9591
  190SLPC  C31222023   4.594   6.034   8.013 -0.1203  0.2254  0.3402
  190SLPC  H12X22024   4.523   5.977   7.950 -0.9950  0.3859  1.1571
  190SLPC  H12Y22025   4.579   6.144   8.005  0.0132  0.2239  0.0801
  190SLPC  C31322026   4.571   5.991   8.159  0.1345 -1.0494  0.5906
  190SLPC  H13X22027   4.598   5.883   8.168  1.7210 -0.6024  1.5652
  190SLPC  H13Y22028   4.463   6.008   8.178 -0.1433  0.4865 -1.8984
  190SLPC  C31422029   4.650   6.077   8.265  0.2177  0.1776  0.4171
  190SLPC  H14X22030   4.626   6.184   8.250  2.6435  0.9111  1.2526
  190SLPC  H14Y22031   4.761   6.080   8.252  0.1775  3.2984  0.0568
  190SLPC  C31522032   4.623   6.026   8.407  0.5420 -0.1028 -0.4764
  190SLPC  H15X22033   4.711   6.047   8.471 -0.1155  2.6709 -0.3611
  190SLPC  H15Y22034   4.611   5.916   8.397 -0.0889 -0.2332  1.3306
  190SLPC  C31622035   4.493   6.084   8.475 -0.4216 -0.7770 -0.3130
  190SLPC  H16X22036   4.474   6.037   8.573  0.8843  0.2566  0.4710
  190SLPC  H16Y22037   4.404   6.059   8.413 -0.0964 -1.6477 -0.4354
  190SLPC  C31722038   4.504   6.234   8.508 -0.3417  1.4847 -0.4283
  190SLPC  H17X22039   4.548   6.287   8.421  1.3738 -0.3276 -0.7520
  190SLPC  H17Y22040   4.588   6.251   8.579 -0.1333 -2.0895  0.3908
  190SLPC  C31822041   4.378   6.301   8.541  0.3489 -0.3435 -0.5680
  190SLPC  H18X22042   4.349   6.279   8.646  1.6844  0.5200  0.0049
  190SLPC  H18Y22043   4.301   6.275   8.465  1.8039  0.2521 -2.3099
  190SLPC  H18Z22044   4.387   6.411   8.528  2.8693 -0.2515  1.2046
  191SLPC     N22045   3.102   1.756   5.906  0.4339  0.2030  0.2300
  191SLPC   C1322046   2.991   1.852   5.899 -0.5641 -0.3413  0.5806
  191SLPC  H13A22047   3.014   1.940   5.957  0.6347  1.6133 -2.5950
  191SLPC  H13B22048   2.968   1.890   5.801 -0.6770  0.1222  0.7828
  191SLPC  H13C22049   2.896   1.813   5.933 -1.4406  0.2910 -1.0147
  191SLPC   C1422050   3.230   1.824   5.863 -0.2491 -0.6589 -0.0164
  191SLPC  H14A22051   3.299   1.743   5.840  0.9075  0.1772  0.4128
  191SLPC  H14B22052   3.223   1.883   5.773  3.1672 -1.1139 -0.7340
  191SLPC  H14C22053   3.270   1.876   5.949  0.7903 -1.8319  0.2522
  191SLPC   C1522054   3.061   1.643   5.819 -0.6504 -0.2242  0.0568
  191SLPC  H15A22055   3.061   1.680   5.717  1.8807 -1.1827 -0.3713
  191SLPC  H15B22056   3.138   1.570   5.800  0.0832  1.1691 -3.0075
  191SLPC  H15C22057   2.970   1.591   5.845 -0.5600  1.0115  3.2989
  191SLPC   C1222058   3.112   1.696   6.049  0.5472 -0.1388 -0.0632
  191SLPC  H12A22059   3.198   1.630   6.045 -0.7025 -1.8542  0.3235
  191SLPC  H12B22060   3.031   1.629   6.071  0.9478 -1.8243 -3.2407
  191SLPC   C1122061   3.126   1.795   6.169  0.2623 -0.4314  0.1924
  191SLPC  H11A22062   3.122   1.728   6.258  0.9181 -0.8116 -0.0627
  191SLPC  H11B22063   3.037   1.861   6.177 -0.3122 -1.3349  2.0643
  191SLPC     P22064   3.379   1.830   6.224  0.1070 -0.6598  0.3083
  191SLPC   O1322065   3.402   1.681   6.226 -0.2651  0.3214 -0.3690
  191SLPC   O1422066   3.483   1.912   6.158  0.1256  0.2435 -0.3469
  191SLPC   O1222067   3.243   1.873   6.154 -0.3580  0.5445  0.0703
  191SLPC   O1122068   3.356   1.870   6.380 -0.1504 -0.0660  0.3242
  191SLPC    C122069   3.348   2.001   6.423  0.4535 -0.0427 -0.3040
  191SLPC    HA22070   3.445   2.047   6.450  1.0713 -0.6525 -1.3960
  191SLPC    HB22071   3.319   2.064   6.336  1.6798 -1.2581 -1.6416
  191SLPC    C222072   3.244   2.014   6.540  0.1041 -1.0520 -0.3273
  191SLPC    HS22073   3.231   2.122   6.562  1.1928 -0.9653 -0.0473
  191SLPC   O2122074   3.278   1.937   6.660  0.0563  0.1027 -0.4604
  191SLPC   C2122075   3.384   1.970   6.731 -0.1556  0.4409  0.2387
  191SLPC   O2222076   3.454   2.066   6.709 -0.1617  0.0754 -0.0580
  191SLPC   C2222077   3.414   1.858   6.820  0.3769 -0.5922  0.2646
  191SLPC   H2R22078   3.333   1.877   6.894 -1.0911  2.8867 -1.9642
  191SLPC   H2S22079   3.405   1.760   6.768  0.5535 -0.9305  0.8637
  191SLPC    C322080   3.100   1.966   6.491 -0.4913  0.5624  0.5449
  191SLPC    HX22081   3.118   1.857   6.481  1.3383  0.7010  1.9046
  191SLPC    HY22082   3.060   2.017   6.401  1.6361  1.3179 -0.0225
  191SLPC   O3122083   3.002   1.992   6.594  0.2590  0.3363  0.2948
  191SLPC   C3122084   2.914   1.904   6.628 -0.2767 -0.1947 -0.2501
  191SLPC   O3222085   2.896   1.795   6.573 -0.2107  0.8959  0.1091
  191SLPC   C3222086   2.835   1.955   6.751 -0.2618  0.6198 -0.3494
  191SLPC   H2X22087   2.769   2.036   6.714 -0.2841  0.1759 -1.3243
  191SLPC   H2Y22088   2.912   1.986   6.825  0.2389  0.0254 -0.6086
  191SLPC   C2322089   3.551   1.862   6.891  0.0060  0.9759  0.2394
  191SLPC   H3R22090   3.545   1.933   6.977 -1.9119  0.9954  0.1322
  191SLPC   H3S22091   3.637   1.904   6.834 -0.5407 -0.6906 -1.9310
  191SLPC   C2422092   3.587   1.723   6.943 -0.5951 -0.1488 -0.0412
  191SLPC   H4R22093   3.576   1.656   6.855 -1.6865  0.2898 -0.2573
  191SLPC   H4S22094   3.505   1.688   7.009 -1.1333  0.1485 -0.5444
  191SLPC   C2522095   3.730   1.714   7.008  0.4452  0.3151 -0.0619
  191SLPC   H5R22096   3.732   1.781   7.097  2.1533 -0.3156  0.4092
  191SLPC   H5S22097   3.808   1.755   6.940 -0.8014  0.0141 -1.7374
  191SLPC   C2622098   3.762   1.564   7.037 -0.3245  0.4801 -0.0870
  191SLPC   H6R22099   3.765   1.508   6.941  1.8298 -1.7735  1.1683
  191SLPC   H6S22100   3.681   1.529   7.103 -1.0019 -0.0167 -1.1520
  191SLPC   C2722101   3.891   1.542   7.120  0.2482 -0.1377  0.1602
  191SLPC   H7R22102   3.872   1.569   7.226  1.7048 -0.9804  0.6595
  191SLPC   H7S22103   3.966   1.612   7.078 -0.8078  0.6831 -0.4347
  191SLPC   C2822104   3.934   1.395   7.116  0.6275  0.3141  0.2969
  191SLPC   H8R22105   3.958   1.369   7.010  0.8786 -0.2151  0.4790
  191SLPC   H8S22106   3.856   1.321   7.145 -0.7420  0.6373 -2.2648
  191SLPC   C2922107   4.049   1.376   7.213  0.5822 -0.6239  0.0522
  191SLPC   H9R22108   4.143   1.391   7.158  0.3059  0.7787 -0.0954
  191SLPC  C21022109   4.044   1.355   7.350 -0.3012 -0.1813  0.2009
  191SLPC  H10R22110   4.139   1.354   7.406 -0.0640 -0.6294 -0.2049
  191SLPC  C21122111   3.913   1.337   7.423 -0.1364 -0.8989  0.1333
  191SLPC  H11R22112   3.906   1.237   7.471  0.4907 -0.5042  1.0838
  191SLPC  H11S22113   3.822   1.336   7.360 -0.2647 -2.4523  0.2957
  191SLPC  C21222114   3.889   1.449   7.521 -0.2153  0.3172 -1.2586
  191SLPC  H12R22115   3.931   1.548   7.502  0.3970  0.6719  1.4549
  191SLPC  C21322116   3.825   1.442   7.642 -0.5757  0.4379  0.1327
  191SLPC  H13R22117   3.815   1.521   7.717  1.8394  0.0525  0.9548
  191SLPC  C21422118   3.765   1.310   7.697 -0.6715 -0.1692 -0.0134
  191SLPC  H14R22119   3.724   1.245   7.617  0.8800  0.5735 -1.4545
  191SLPC  H14S22120   3.679   1.342   7.760 -0.4200 -1.2054  0.8971
  191SLPC  C21522121   3.870   1.227   7.777  0.1830 -0.1349  0.0394
  191SLPC  H15R22122   3.938   1.179   7.704  0.4710 -1.4079  1.0917
  191SLPC  H15S22123   3.820   1.142   7.829 -3.7367 -0.5675 -3.9007
  191SLPC  C21622124   3.957   1.310   7.876 -0.7093  0.2653  0.0547
  191SLPC  H16R22125   4.026   1.372   7.815 -1.4914  0.2074 -0.9215
  191SLPC  H16S22126   4.023   1.236   7.926 -1.7303  1.1991  3.0067
  191SLPC  C21722127   3.888   1.375   8.002  0.2680 -0.2648  0.3378
  191SLPC  H17R22128   3.823   1.297   8.048  0.4439 -1.8616 -1.9395
  191SLPC  H17S22129   3.817   1.455   7.972  0.6917  1.4818  3.6031
  191SLPC  C21822130   3.990   1.426   8.100  0.5355  0.2734 -0.5605
  191SLPC  H18R22131   4.065   1.484   8.043  0.6115 -0.4705 -1.2363
  191SLPC  H18S22132   4.034   1.345   8.162  0.6606  1.5975  1.1747
  191SLPC  H18T22133   3.940   1.496   8.170 -0.1708  0.2523 -1.0292
  191SLPC   C3322134   2.731   1.846   6.804 -0.4529  0.6663  0.1510
  191SLPC   H3X22135   2.792   1.771   6.859 -0.4530 -2.6918 -3.8770
  191SLPC   H3Y22136   2.684   1.794   6.718  0.9666 -1.8399  0.7838
  191SLPC   C3422137   2.618   1.890   6.890 -0.0644  0.8570  0.1290
  191SLPC   H4X22138   2.543   1.808   6.902  1.5123 -0.4445  1.7790
  191SLPC   H4Y22139   2.567   1.977   6.845  1.2147  1.1398 -0.8026
  191SLPC   C3522140   2.670   1.926   7.031 -0.2122 -0.1569  0.2812
  191SLPC   H5X22141   2.673   2.036   7.041  2.7286 -0.1295  0.1566
  191SLPC   H5Y22142   2.773   1.887   7.048 -1.2129 -1.9202  3.1009
  191SLPC   C3622143   2.589   1.862   7.147 -0.1161  0.1124  0.1707
  191SLPC   H6X22144   2.656   1.887   7.231 -0.0870 -1.2604  0.5844
  191SLPC   H6Y22145   2.574   1.752   7.139  0.5068  0.0392 -0.0426
  191SLPC   C3722146   2.451   1.921   7.168 -0.0014  0.3294  0.1582
  191SLPC   H7X22147   2.383   1.893   7.085 -0.4971  1.9022 -0.0137
  191SLPC   H7Y22148   2.442   2.031   7.155 -0.9748  0.1044 -1.2562
  191SLPC   C3822149   2.380   1.887   7.300  0.0988  0.9548  0.1780
  191SLPC   H8X22150   2.386   1.776   7.308  2.3036  1.0140  0.1453
  191SLPC   H8Y22151   2.273   1.908   7.281 -0.4342 -2.6019 -1.6201
  191SLPC   C3922152   2.429   1.946   7.425  0.4775  1.1997  0.1229
  191SLPC   H9X22153   2.400   2.053   7.425 -0.8681  0.8684  1.1433
  191SLPC   H9Y22154   2.539   1.935   7.433  0.6194  0.5806 -1.9892
  191SLPC  C31022155   2.358   1.888   7.555  0.0182  0.4053  1.0341
  191SLPC  H10X22156   2.381   1.779   7.554  0.6013  0.5305  0.2575
  191SLPC  H10Y22157   2.247   1.901   7.557 -0.1634 -0.9007  0.5768
  191SLPC  C31122158   2.409   1.962   7.682 -0.2665 -0.0265 -0.9564
  191SLPC  H11X22159   2.371   2.066   7.693  0.6482  0.2225  0.0276
  191SLPC  H11Y22160   2.517   1.986   7.673 -0.5432  2.7859  1.6111
  191SLPC  C31222161   2.389   1.875   7.811  0.1431  0.2657 -0.5285
  191SLPC  H12X22162   2.427   1.772   7.798 -1.3672 -0.2751 -0.8690
  191SLPC  H12Y22163   2.279   1.868   7.827  0.2911  2.0095  1.7366
  191SLPC  C31322164   2.448   1.932   7.940  0.1931  0.0482 -0.1660
  191SLPC  H13X22165   2.399   2.025   7.976  5.4691  3.5672 -1.1103
  191SLPC  H13Y22166   2.552   1.963   7.921 -0.1707  0.4944 -1.5448
  191SLPC  C31422167   2.457   1.834   8.058 -0.4925 -0.5235 -0.2627
  191SLPC  H14X22168   2.499   1.738   8.019 -1.0624 -0.8370 -0.1219
  191SLPC  H14Y22169   2.357   1.810   8.102 -0.6085 -0.4548 -0.4878
  191SLPC  C31522170   2.564   1.890   8.164  0.0137  0.6565  0.9110
  191SLPC  H15X22171   2.530   1.992   8.192 -0.6454  0.9971 -0.9616
  191SLPC  H15Y22172   2.658   1.895   8.104  0.0207  0.2112  0.8835
  191SLPC  C31622173   2.567   1.801   8.284 -0.2023  0.3829 -0.7288
  191SLPC  H16X22174   2.610   1.704   8.251  0.9268  1.4836 -2.6711
  191SLPC  H16Y22175   2.463   1.780   8.315  0.1768 -2.5037 -1.1354
  191SLPC  C31722176   2.662   1.865   8.400  0.0452  0.2215 -0.6401
  191SLPC  H17X22177   2.635   1.963   8.445 -1.2636  0.5931 -2.1587
  191SLPC  H17Y22178   2.760   1.883   8.350 -0.2520  0.2257 -1.2260
  191SLPC  C31822179   2.678   1.767   8.521 -0.1613  0.2956 -0.5154
  191SLPC  H18X22180   2.769   1.800   8.575  0.1129 -1.1090 -0.0736
  191SLPC  H18Y22181   2.707   1.665   8.487  1.2070  0.3264  0.4816
  191SLPC  H18Z22182   2.586   1.766   8.584 -1.8954  2.1239 -2.8508
  192SLPC     N22183   2.459   2.026   6.455  0.0178 -0.5612  0.2122
  192SLPC   C1322184   2.577   2.085   6.386 -0.1745 -1.1568 -0.1485
  192SLPC  H13A22185   2.655   2.090   6.460 -1.6029 -0.7793  1.4046
  192SLPC  H13B22186   2.610   2.024   6.303 -0.6371 -0.3979 -0.8936
  192SLPC  H13C22187   2.547   2.181   6.347  0.0522 -1.5638 -1.3679
  192SLPC   C1422188   2.501   1.893   6.512 -0.3790 -0.1855  0.6473
  192SLPC  H14A22189   2.589   1.862   6.457 -0.4689 -0.7931  0.8453
  192SLPC  H14B22190   2.534   1.915   6.612 -0.6996  2.3179  0.2746
  192SLPC  H14C22191   2.424   1.818   6.516 -0.3767 -0.1249  2.2316
  192SLPC   C1522192   2.350   2.017   6.361 -0.7868 -0.0871 -0.0690
  192SLPC  H15A22193   2.366   1.944   6.283  1.0135  0.4974 -0.3029
  192SLPC  H15B22194   2.259   1.986   6.409  0.0848 -2.3210  0.2756
  192SLPC  H15C22195   2.331   2.112   6.313  0.2137 -0.4071 -1.1451
  192SLPC   C1222196   2.414   2.110   6.564 -1.3200 -0.8680 -0.8215
  192SLPC  H12A22197   2.351   2.186   6.522 -0.2414  1.7271  1.8939
  192SLPC  H12B22198   2.494   2.163   6.614 -3.3657 -0.4478  2.3146
  192SLPC   C1122199   2.331   2.046   6.675 -0.4134 -0.3775 -1.2146
  192SLPC  H11A22200   2.316   2.115   6.761  1.3153 -0.2852 -0.9571
  192SLPC  H11B22201   2.389   1.969   6.730  0.6706  2.0689  1.2558
  192SLPC     P22202   2.079   2.063   6.611 -0.2393 -0.0613  0.1143
  192SLPC   O1322203   2.101   2.200   6.564 -0.1816 -0.0328  0.3829
  192SLPC   O1422204   1.988   1.981   6.529  0.4772 -0.0117 -0.8175
  192SLPC   O1222205   2.214   1.988   6.613  0.0340 -0.3407  0.0612
  192SLPC   O1122206   2.030   2.062   6.758  0.0886 -0.8240  0.4073
  192SLPC    C122207   1.949   2.159   6.815 -0.2364 -0.6547 -0.4986
  192SLPC    HA22208   1.868   2.187   6.744  0.3885 -0.0835 -1.0073
  192SLPC    HB22209   1.891   2.109   6.895 -0.2304 -0.4861 -0.3885
  192SLPC    C222210   2.023   2.289   6.857  0.5723  0.0690  0.5791
  192SLPC    HS22211   2.068   2.329   6.763  0.2986 -0.3578  0.2637
  192SLPC   O2122212   2.129   2.262   6.951 -0.0549  0.6713 -0.5553
  192SLPC   C2122213   2.211   2.360   6.983  0.5870  0.0006 -0.0973
  192SLPC   O2222214   2.208   2.471   6.931  0.4410  0.4964 -0.3639
  192SLPC   C2222215   2.305   2.311   7.089 -0.2454  0.2402 -0.1336
  192SLPC   H2R22216   2.236   2.240   7.140  0.9090  0.4554  1.8500
  192SLPC   H2S22217   2.391   2.249   7.053 -0.7587 -1.3601  1.2575
  192SLPC    C322218   1.923   2.401   6.915  0.2041  0.3622 -0.1109
  192SLPC    HX22219   1.845   2.387   6.836 -0.9139 -1.6379  1.2682
  192SLPC    HY22220   1.969   2.502   6.905  2.2074 -0.2287  2.3189
  192SLPC   O3122221   1.866   2.375   7.044  0.3460  0.1773 -0.7309
  192SLPC   C3122222   1.922   2.449   7.140 -0.1608  1.0048  0.8669
  192SLPC   O3222223   2.014   2.527   7.132  0.1097  0.2872 -0.0495
  192SLPC   C3222224   1.857   2.412   7.266  0.0118  0.0084  0.0051
  192SLPC   H2X22225   1.869   2.302   7.277 -0.0149 -0.1126 -1.0427
  192SLPC   H2Y22226   1.750   2.431   7.245  0.1902 -0.4942 -1.5290
  192SLPC   C2322227   2.352   2.415   7.196 -0.0850  0.7707 -0.2062
  192SLPC   H3R22228   2.287   2.504   7.186  1.6323  2.2461  1.0558
  192SLPC   H3S22229   2.459   2.441   7.184  0.8616 -2.8685 -0.7696
  192SLPC   C2422230   2.339   2.357   7.338 -0.0411 -0.1689 -0.8990
  192SLPC   H4R22231   2.393   2.260   7.338 -2.6415 -1.7313  0.2628
  192SLPC   H4S22232   2.233   2.332   7.359  0.2356 -1.2950 -0.7690
  192SLPC   C2522233   2.388   2.457   7.442 -0.6049  0.4767  0.2618
  192SLPC   H5R22234   2.328   2.550   7.446  0.7734  1.4642 -0.8470
  192SLPC   H5S22235   2.493   2.482   7.415 -0.9122 -1.1915 -3.0197
  192SLPC   C2622236   2.407   2.390   7.577  0.5791 -0.0448  0.1812
  192SLPC   H6R22237   2.494   2.322   7.567  0.0884 -0.8939  1.4672
  192SLPC   H6S22238   2.307   2.346   7.599  0.7647  0.3209  1.8664
  192SLPC   C2722239   2.438   2.487   7.694  0.1441  0.7208 -0.3893
  192SLPC   H7R22240   2.356   2.560   7.705 -0.0652  0.3923  0.3269
  192SLPC   H7S22241   2.534   2.535   7.665  0.5497 -0.5315 -1.1971
  192SLPC   C2822242   2.457   2.412   7.831  0.1952 -0.7260 -0.0060
  192SLPC   H8R22243   2.549   2.351   7.817  0.6403  0.0447 -0.5786
  192SLPC   H8S22244   2.373   2.341   7.843  1.4334 -2.2451  0.0365
  192SLPC   C2922245   2.490   2.512   7.942  0.2139 -0.0562  0.1553
  192SLPC   H9R22246   2.569   2.585   7.919 -0.7401  1.2800  0.9784
  192SLPC  C21022247   2.440   2.528   8.061 -0.0774  0.5981 -0.0192
  192SLPC  H10R22248   2.475   2.603   8.134 -2.6138  1.4287  0.4762
  192SLPC  C21122249   2.336   2.436   8.119 -0.4340  0.3375  0.1582
  192SLPC  H11R22250   2.377   2.342   8.162 -0.9757  0.0686  0.0967
  192SLPC  H11S22251   2.265   2.405   8.039  1.4593 -0.0465 -1.4484
  192SLPC  C21222252   2.271   2.514   8.229 -0.3638 -0.4817  0.3370
  192SLPC  H12R22253   2.189   2.575   8.187 -0.7161 -1.3042 -0.1941
  192SLPC  C21322254   2.283   2.509   8.361 -0.4325 -0.0266 -0.6442
  192SLPC  H13R22255   2.217   2.577   8.416  0.5734  0.9183 -0.5595
  192SLPC  C21422256   2.366   2.418   8.449  0.3301 -0.6249 -0.1773
  192SLPC  H14R22257   2.395   2.325   8.396 -2.2286 -1.8661  0.4525
  192SLPC  H14S22258   2.299   2.385   8.531  2.8760 -4.6340  0.6089
  192SLPC  C21522259   2.495   2.478   8.512  0.5500  0.0685  0.3938
  192SLPC  H15R22260   2.552   2.514   8.424 -0.6030 -0.3994 -0.5815
  192SLPC  H15S22261   2.551   2.400   8.567  2.2589 -0.4650 -1.9494
  192SLPC  C21622262   2.488   2.602   8.601 -0.2012  0.0651 -0.5273
  192SLPC  H16R22263   2.410   2.679   8.582 -0.3784  0.7833  2.5518
  192SLPC  H16S22264   2.581   2.662   8.591 -0.7712  1.1255  0.2896
  192SLPC  C21722265   2.471   2.566   8.755 -0.5991 -0.5798 -0.4863
  192SLPC  H17R22266   2.556   2.498   8.772 -1.3828 -1.4717 -0.0229
  192SLPC  H17S22267   2.480   2.661   8.812  2.8396  0.2391 -2.1387
  192SLPC  C21822268   2.339   2.492   8.785 -0.0027  0.0603  0.8377
  192SLPC  H18R22269   2.316   2.503   8.893 -0.2382 -2.4764  1.1026
  192SLPC  H18S22270   2.347   2.382   8.771 -1.6580 -0.0066  0.2511
  192SLPC  H18T22271   2.257   2.539   8.727  1.9531  1.2200 -1.1601
  192SLPC   C3322272   1.921   2.504   7.374  0.1444  0.4100 -0.2592
  192SLPC   H3X22273   1.861   2.598   7.379 -1.6641 -0.7093  0.1261
  192SLPC   H3Y22274   2.027   2.526   7.352  0.2700  1.2519  1.0712
  192SLPC   C3422275   1.938   2.433   7.505  0.3207  0.0663 -0.9821
  192SLPC   H4X22276   2.013   2.351   7.501  1.0405  0.4795  1.7278
  192SLPC   H4Y22277   1.839   2.391   7.532  0.3371 -0.0527 -1.1092
  192SLPC   C3522278   1.987   2.516   7.622  0.4526 -0.3953  0.7822
  192SLPC   H5X22279   1.904   2.586   7.646 -1.1583 -2.1800  0.6632
  192SLPC   H5Y22280   2.077   2.571   7.586  0.9254 -1.2467  0.6470
  192SLPC   C3622281   2.026   2.452   7.755 -0.3556 -0.1594 -0.1405
  192SLPC   H6X22282   2.038   2.535   7.829 -1.8040  0.6320 -0.7521
  192SLPC   H6Y22283   2.116   2.388   7.748  0.4922  1.0543 -0.6378
  192SLPC   C3722284   1.924   2.361   7.813  1.1018 -0.6912 -0.3121
  192SLPC   H7X22285   1.861   2.310   7.738  2.9258 -2.8638 -0.4846
  192SLPC   H7Y22286   1.850   2.429   7.860 -0.5440 -1.1550 -2.1260
  192SLPC   C3822287   1.989   2.259   7.908  0.7428  0.2792 -0.5258
  192SLPC   H8X22288   2.055   2.328   7.966  0.7519  0.8309 -1.1769
  192SLPC   H8Y22289   2.051   2.186   7.852 -3.1834 -1.3967 -3.0837
  192SLPC   C3922290   1.887   2.186   8.002  0.2090  1.0448  0.0854
  192SLPC   H9X22291   1.795   2.162   7.944  1.2437  0.5381 -1.4076
  192SLPC   H9Y22292   1.854   2.256   8.082 -1.2215  0.1924  0.2785
  192SLPC  C31022293   1.950   2.064   8.068  0.2474  0.1446  0.1709
  192SLPC  H10X22294   1.981   1.997   7.984  1.2337  0.4673  0.2657
  192SLPC  H10Y22295   1.862   2.007   8.106  0.4581 -0.4379 -0.1938
  192SLPC  C31122296   2.067   2.095   8.158  0.6071  1.0425 -0.1465
  192SLPC  H11X22297   2.046   2.180   8.226  0.8199 -0.6765  2.1929
  192SLPC  H11Y22298   2.148   2.131   8.091  0.4562 -0.2777 -1.0766
  192SLPC  C31222299   2.095   1.964   8.242 -0.3589 -0.5505  0.3707
  192SLPC  H12X22300   2.108   1.893   8.157  0.1624  1.1509 -1.0399
  192SLPC  H12Y22301   2.007   1.942   8.305 -0.2743  0.7864  0.9821
  192SLPC  C31322302   2.219   1.965   8.330  0.3640  0.1603 -0.5060
  192SLPC  H13X22303   2.239   2.064   8.376  1.2318 -1.6214  3.4450
  192SLPC  H13Y22304   2.310   1.934   8.274  0.6775 -2.1162  1.1130
  192SLPC  C31422305   2.206   1.876   8.453 -0.4270 -0.1402  0.1289
  192SLPC  H14X22306   2.139   1.934   8.520  0.9235  1.8484 -0.1379
  192SLPC  H14Y22307   2.306   1.876   8.500 -0.0233 -1.2975 -0.6945
  192SLPC  C31522308   2.166   1.731   8.427 -0.6994 -0.4189  0.3214
  192SLPC  H15X22309   2.242   1.684   8.360 -0.4215 -2.0193  1.6862
  192SLPC  H15Y22310   2.066   1.729   8.380 -1.4490 -0.0073  1.8504
  192SLPC  C31622311   2.164   1.667   8.563 -0.4305  0.0913 -0.0316
  192SLPC  H16X22312   2.101   1.720   8.637 -0.2813 -0.6885  0.6687
  192SLPC  H16Y22313   2.265   1.655   8.608  0.4208 -0.3127 -1.9393
  192SLPC  C31722314   2.112   1.519   8.556 -0.7226 -0.1867  0.4775
  192SLPC  H17X22315   2.183   1.454   8.500 -1.3468  1.4231 -2.3875
  192SLPC  H17Y22316   2.017   1.530   8.499 -0.7701  1.6504  0.8460
  192SLPC  C31822317   2.078   1.469   8.695  0.0400  0.4845 -0.9413
  192SLPC  H18X22318   2.169   1.448   8.755 -0.6453 -1.5582 -0.5264
  192SLPC  H18Y22319   2.012   1.380   8.689 -0.9735  0.9547  1.8427
  192SLPC  H18Z22320   2.015   1.543   8.748 -0.3693 -0.8926  0.6060
  193SOD    SOD22321   2.508   5.706   6.185 -0.2623 -0.4210 -0.4668
  194SOD    SOD22322   2.662   0.027  12.956 -0.7138  0.1002 -0.1649
  195SOD    SOD22323   5.984   0.111  14.466 -0.6015  0.1500  0.1875
  196SOD    SOD22324   4.074   3.248  12.965  0.3330 -0.0010  0.2423
  197SOD    SOD22325   4.059   1.679   1.837  0.4282 -0.7541  0.0126
  198SOD    SOD22326   6.368   3.700   6.621 -0.1914 -0.2979  0.4400
  199SOD    SOD22327   0.276   6.545   0.364 -0.4301 -0.4809  0.0865
  200SOD    SOD22328   3.206   0.310  10.831  0.0728  0.0120  0.2275
  201SOD    SOD22329   3.886   2.121  16.988  0.1603  0.3536 -0.5085
  202SOD    SOD22330   2.188   3.562  14.356 -0.1587 -0.1280  0.0809
  203SOD    SOD22331   6.619   5.592   0.196  0.5054  0.0874 -0.2709
  204SOD    SOD22332   1.198   0.737   0.684  0.1181  0.5217  0.0294
  205SOD    SOD22333   5.544   2.593  14.175  0.0916  0.1257  0.2019
  206SOD    SOD22334   3.393   4.078   5.127 -0.2269  0.4814 -0.2280
  207SOD    SOD22335   2.477   4.614   0.273 -0.0315 -0.2964  0.1085
  208SOD    SOD22336   5.587   1.374  13.418 -0.3902 -0.2315 -0.3520
  209SOD    SOD22337   5.494   6.548   6.020 -0.2862  0.1499  0.0651
  210SOD    SOD22338   6.675   5.816  14.340 -0.1781 -0.3368 -0.0468
  211SOD    SOD22339   5.817   2.162  11.565  0.7260  0.2541 -0.3536
  212SOD    SOD22340   0.232   5.657  11.262 -0.2030  0.2593 -0.4479
  213SOD    SOD22341   1.744   4.027  11.084  0.1827  0.4157 -0.2973
  214SOD    SOD22342   5.805   6.554   3.348  0.1853  0.1745  0.0433
  215SOD    SOD22343   5.328   0.802  12.239  0.0761 -0.1710 -0.0395
  216SOD    SOD22344   3.785   6.495   2.370  0.0331 -0.0332  0.4033
  217SOD    SOD22345   0.236   5.772  12.144  0.3253  0.8822  0.5217
  218SOD    SOD22346   0.538   2.457   3.446 -0.4984  0.3360 -0.3705
  219SOD    SOD22347   5.978   0.871  15.172  0.2742 -0.1435  0.0965
  220SOD    SOD22348   6.375   5.116  12.234 -0.3998 -0.2252  0.1021
  221SOD    SOD22349   6.026   6.656   4.142 -0.0689 -0.0084  0.1566
  222SOD    SOD22350   2.622   4.059  17.264 -0.1101 -0.0445 -0.3589
  223SOD    SOD22351   5.151   3.923  16.092  0.2962 -0.0335 -0.1872
  224SOD    SOD22352   3.311   2.786   5.626 -0.2704  0.3485 -0.4160
  225SOD    SOD22353   3.935   0.648  13.983 -0.2514  0.0271 -0.2428
  226SOD    SOD22354   1.465   6.622  12.821  0.6647  0.4007 -0.3005
  227SOD    SOD22355   1.690   0.144  16.329  0.0341  0.4561  0.1547
  228SOD    SOD22356   3.293   2.446   0.997  0.1608  0.2277 -0.7209
  229SOD    SOD22357   1.383   1.834  12.011  0.2870  0.2831 -0.0692
  230SOD    SOD22358   3.588   0.772  16.745 -0.2997 -0.1647  0.0986
  231SOD    SOD22359   1.141   0.841  10.837  0.5714  0.0712 -0.2255
  232SOD    SOD22360   2.577   6.397   1.497 -0.3323 -0.3524  0.1291
  233SOD    SOD22361   6.620   0.571  16.408 -0.2265  0.2813 -0.1147
  234SOD    SOD22362   4.338   6.687  12.295 -0.0677  0.3518  0.2120
  235SOD    SOD22363   1.293   2.335  15.267 -0.2989  0.0550 -0.2577
  236SOD    SOD22364   0.946   3.328   2.890 -0.0506 -0.1738  0.1639
  237SOD    SOD22365   1.615   1.371   6.526 -0.1922 -0.1303  0.0375
  238SOD    SOD22366   5.401   2.107  14.016 -0.5684 -0.0781 -0.1985
  239SOD    SOD22367   3.749   4.591  15.983  0.1348  0.0720  0.3853
  240SOD    SOD22368   4.150   3.043  15.366 -0.0185 -0.6283 -0.0188
  241SOD    SOD22369   4.811   3.402  11.713 -0.3633 -0.1112 -0.2379
  242SOD    SOD22370   4.922   6.203  16.199  0.3455  0.2243  0.0434
  243SOD    SOD22371   3.231   2.057   4.045 -0.6060  0.5342  0.1855
  244SOD    SOD22372   2.533   1.862   4.803  0.0265 -0.3351 -0.3406
  245SOD    SOD22373   0.827   4.456   2.989  0.0004 -0.5000 -0.2622
  246SOD    SOD22374   5.837   0.075  13.495  0.3123  0.5388  0.0663
  247SOD    SOD22375   0.495   2.218  16.636 -0.2070  0.5727  0.4749
  248SOD    SOD22376   6.738   2.369  10.839  0.2897  0.2167 -0.5092
  249SOD    SOD22377   5.621   4.864   3.207  0.1723 -0.0330 -0.6168
  250SOD    SOD22378   6.409   5.437  15.256 -0.0746  0.1542  0.0626
  251SOD    SOD22379   0.965   5.132  11.363  0.4860 -0.5839  0.0244
  252SOD    SOD22380   1.344   5.904  16.716  0.1561  0.2904  0.3899
  253SOD    SOD22381   5.516   2.466  12.616 -0.1588 -0.1577 -0.0483
  254SOD    SOD22382   4.915   1.537  12.742  0.0354  0.4129  0.0098
  255SOD    SOD22383   6.343   1.803  11.694 -0.3021  0.0234  0.3421
  256SOD    SOD22384   0.160   5.312   6.665  0.0829  0.1945  0.1021
  257SOD    SOD22385   0.685   5.942   5.632 -0.2147  0.2676  0.1950
  258SOD    SOD22386   6.667   3.992   6.095  0.0895  0.4640 -0.0161
  259SOD    SOD22387   1.644   3.273  12.988 -0.1838  0.1620 -0.3344
  260SOD    SOD22388   5.300   3.297   6.007  0.9701 -0.0655 -0.4575
  261SOD    SOD22389   3.862   1.354  13.370 -0.0090  0.6112 -0.2527
  262SOD    SOD22390   1.826   3.684   1.468 -0.0946  0.2204  0.4274
  263SOD    SOD22391   3.519   4.211   6.285  0.4268  0.1728 -0.1834
  264SOD    SOD22392   3.876   4.000  14.851  0.4469  0.2902  0.8818
  265SOD    SOD22393   4.825   2.639   3.810  0.2850  0.2063 -0.1300
  266CLA    CLA22394   3.433   2.338  16.372 -0.0161 -0.0702 -0.1067
  267CLA    CLA22395   3.684   0.230  17.103 -0.0398  0.1043  0.5313
  268CLA    CLA22396   0.205   0.789  14.675  0.2968  0.3804  0.0458
  269CLA    CLA22397   3.614   1.338  16.091 -0.2959  0.2205  0.0952
  270CLA    CLA22398   2.296   6.364  16.956  0.4031 -0.1167  0.0176
  271CLA    CLA22399   2.461   4.242   0.702 -0.0765  0.4204 -0.0905
  272CLA    CLA22400   0.517   6.354  14.234 -0.1277  0.0485  0.1967
  273CLA    CLA22401   5.559   0.859   2.456 -0.0627  0.2768  0.1494
  274CLA    CLA22402   2.089   0.178  16.208  0.0525  0.2156  0.0444
  275CLA    CLA22403   2.611   3.598  17.477  0.0332 -0.1239 -0.1331
  276CLA    CLA22404   3.439   1.455  17.001 -0.1124 -0.0182 -0.1292
  277CLA    CLA22405   1.152   1.809  14.526  0.2565  0.4241 -0.0172
  278CLA    CLA22406   0.534   1.996  12.966 -0.0712  0.2194  0.2157
  279CLA    CLA22407   3.511   1.923  12.842 -0.0390 -0.0052  0.4400
  280CLA    CLA22408   1.620   6.035  14.676  0.0004  0.2878  0.0165
  281CLA    CLA22409   6.209   2.192  14.527 -0.0167 -0.3002 -0.1149
  282CLA    CLA22410   2.958   3.488   2.002  0.0846  0.1271  0.1260
  283CLA    CLA22411   5.366   4.211  13.062 -0.2144 -0.2596  0.0206
  284CLA    CLA22412   5.621   1.155  12.065 -0.0159  0.0221  0.2678
  285CLA    CLA22413   1.686   6.126  12.912  0.0827 -0.3466 -0.4767
  286CLA    CLA22414   5.966   1.026  17.492 -0.0445  0.2199  0.0181
  287CLA    CLA22415   5.464   4.285   5.657 -0.1896  0.5045  0.4219
  288CLA    CLA22416   5.661   5.621  12.750  0.1199 -0.0413 -0.0307
  289CLA    CLA22417   0.770   4.334   0.479  0.3233 -0.2184  0.0421
  290CLA    CLA22418   6.536   0.420  13.373 -0.0448  0.0376  0.1096
  291CLA    CLA22419   0.003   2.725   1.543 -0.3440  0.4666  0.2311
  292CLA    CLA22420   3.128   0.796  12.730 -0.0478 -0.1684  0.2087
  293CLA    CLA22421   3.193   1.155   3.554 -0.1806 -0.0343  0.1975
  294CLA    CLA22422   4.394   2.943  11.891  0.5191  0.0159  0.0051
  295CLA    CLA22423   2.946   2.002  13.966  0.0308 -0.1290  0.1957
  296CLA    CLA22424   5.174   2.626  13.432  0.2587 -0.0673  0.2107
  297CLA    CLA22425   6.382   2.202   3.246 -0.4149 -0.0381 -0.0704
  298CLA    CLA22426   3.318   4.410  16.051  0.0170  0.6324 -0.1777
  299CLA    CLA22427   6.042   5.214   5.622 -0.2404 -0.0012  0.2216
  300CLA    CLA22428   4.879   4.309  16.399  0.1771  0.0054  0.1053
  301CLA    CLA22429   6.530   3.010  17.337 -0.0780 -0.1127 -0.0204
  302CLA    CLA22430   3.393   5.151   5.588  0.0565  0.1871 -0.2687
  303CLA    CLA22431   4.012   0.039  15.807  0.1555 -0.3113 -0.2150
  304CLA    CLA22432   3.989   6.500  13.510 -0.3907  0.1174  0.2704
  305CLA    CLA22433   6.712   5.455  14.876 -0.2312  0.3424  0.0101
  306CLA    CLA22434   1.167   3.591   4.659 -0.0053 -0.4141 -0.3410
  307CLA    CLA22435   2.067   0.376  11.816 -0.1774  0.1517  0.2892
  308CLA    CLA22436   6.331   5.468  12.838 -0.1918 -0.3711 -0.0162
  309CLA    CLA22437   5.030   0.193  16.322 -0.2826 -0.0986  0.7400
  310CLA    CLA22438   3.891   4.476  14.833 -0.0950  0.1508 -0.0518
  311CLA    CLA22439   2.244   3.264  13.296  0.0121  0.0918  0.1684
  312CLA    CLA22440   5.048   0.192   1.389  0.0406 -0.0471 -0.3374
  313CLA    CLA22441   6.604   4.811   4.552 -0.0233 -0.2712  0.0495
  314CLA    CLA22442   4.733   2.672  14.331  0.1058 -0.1816  0.2620
  315CLA    CLA22443   4.000   3.039   1.607 -0.0842 -0.0143 -0.1773
  316CLA    CLA22444   1.941   6.372   4.226 -0.2256  0.0552  0.1639
  317CLA    CLA22445   6.224   5.044  15.653  0.2914  0.2894  0.2241
  318CLA    CLA22446   5.737   1.123  15.666 -0.0685 -0.5695 -0.2645
  319TIP3   OH222447   1.684   6.196   2.778  0.8527  0.2761 -0.1114
  319TIP3    H122448   1.692   6.116   2.728  0.7199  0.1622  0.0487
  319TIP3    H222449   1.764   6.245   2.759  0.9872  0.0522 -0.1143
  320TIP3   OH222450   5.506   0.171  14.303 -0.1108 -0.0126  0.3977
  320TIP3    H122451   5.463   0.086  14.292 -0.7891  0.5197 -1.4301
  320TIP3    H222452   5.501   0.212  14.217  0.4834  1.7644  1.1570
  321TIP3   OH222453   1.420   0.151  12.551  0.0579 -0.6217 -0.4287
  321TIP3    H122454   1.385   0.187  12.469  0.0946  1.9759  0.5854
  321TIP3    H222455   1.496   0.099  12.525  0.4747  0.7082 -2.0123
  322TIP3   OH222456   0.601   2.654  12.708  0.3314  0.1096  0.1956
  322TIP3    H122457   0.583   2.739  12.748  2.1314  0.2461  0.8539
  322TIP3    H222458   0.516   2.611  12.701 -0.1557 -0.1843  4.8542
  323TIP3   OH222459   4.034   6.370   1.673 -0.1965  0.5497 -0.5168
  323TIP3    H122460   3.983   6.359   1.593  1.2821 -0.2534 -1.3845
  323TIP3    H222461   4.010   6.294   1.727  0.9783 -0.5173 -1.4491
  324TIP3   OH222462   0.520   0.639  14.733 -0.1018  0.3536 -0.3994
  324TIP3    H122463   0.427   0.637  14.710 -0.3839 -0.5950  0.7112
  324TIP3    H222464   0.524   0.691  14.814  0.4807  1.2656 -0.9997
  325TIP3   OH222465   1.656   1.492   4.105  0.2392 -0.6971  0.5945
  325TIP3    H122466   1.620   1.480   4.193  2.1883 -2.7115  1.2218
  325TIP3    H222467   1.676   1.403   4.075  1.5853  0.0833 -0.9846
  326TIP3   OH222468   4.760   2.449   3.670 -0.7403 -0.4094  0.3700
  326TIP3    H122469   4.812   2.370   3.657  0.2734  0.2395  0.3434
  326TIP3    H222470   4.729   2.473   3.583  0.4750  0.2208  0.0892
  327TIP3   OH222471   3.442   5.294   3.626  0.1772  0.1727 -0.2180
  327TIP3    H122472   3.433   5.375   3.677  0.2393 -0.3782  0.7067
  327TIP3    H222473   3.534   5.270   3.636  0.1339 -0.0657 -0.3938
  328TIP3   OH222474   5.485   5.356   3.691 -0.4430  0.1906 -0.6068
  328TIP3    H122475   5.514   5.406   3.614 -1.4016  0.0526 -1.0684
  328TIP3    H222476   5.430   5.417   3.740 -1.7740 -0.4443 -1.2709
  329TIP3   OH222477   6.437   1.185  14.517  0.3399 -0.2062 -0.2745
  329TIP3    H122478   6.439   1.164  14.610 -1.8835 -1.1903 -0.3824
  329TIP3    H222479   6.488   1.265  14.509 -1.2519  1.1675  2.1620
  330TIP3   OH222480   0.728   0.631   4.203  0.6249 -0.3009 -0.1324
  330TIP3    H122481   0.819   0.627   4.235  0.3726  0.7004  0.7771
  330TIP3    H222482   0.702   0.539   4.196  1.5185 -0.5975  0.1748
  331TIP3   OH222483   4.971   3.825   5.739 -1.1823  0.2114 -0.2594
  331TIP3    H122484   5.053   3.845   5.694 -0.3663 -2.4987 -0.1155
  331TIP3    H222485   4.997   3.804   5.829 -2.0530 -0.5874 -0.1849
  332TIP3   OH222486   4.108   3.650   7.267 -0.3031 -0.3152  0.4906
  332TIP3    H122487   4.191   3.696   7.273 -0.8223  1.4580 -3.0938
  332TIP3    H222488   4.044   3.718   7.243 -2.2801 -2.0086  0.6182
  333TIP3   OH222489   1.086   4.997  15.745 -0.3873  0.2047 -0.5215
  333TIP3    H122490   1.048   5.063  15.687 -2.5870 -0.9717 -0.5232
  333TIP3    H222491   1.013   4.967  15.800  1.3142  0.3355  2.0146
  334TIP3   OH222492   3.036   0.853  11.662  0.0713  0.4961 -0.0645
  334TIP3    H122493   2.954   0.900  11.646 -0.7598 -0.3422  1.5912
  334TIP3    H222494   3.092   0.916  11.707 -0.3824  0.4754  0.5345
  335TIP3   OH222495   0.198   4.212  16.386  0.5509 -0.4476  0.0584
  335TIP3    H122496   0.237   4.279  16.329  2.4868 -0.1713  1.5832
  335TIP3    H222497   0.165   4.145  16.326  0.9443  0.6368 -1.4195
  336TIP3   OH222498   5.148   4.646   4.998 -0.1619 -0.1778  0.1286
  336TIP3    H122499   5.192   4.635   4.913  0.2290 -0.8592  0.4066
  336TIP3    H222500   5.075   4.583   4.995  0.0698 -0.4630  0.4360
  337TIP3   OH222501   6.708   5.549  13.968 -0.0716  0.3493  0.3464
  337TIP3    H122502   6.799   5.519  13.958 -0.0791  0.6057 -0.5919
  337TIP3    H222503   6.663   5.513  13.892 -0.7241  0.3617  0.7245
  338TIP3   OH222504   1.210   2.233  16.268  0.2743 -0.0114 -0.3439
  338TIP3    H122505   1.143   2.270  16.210  0.3873 -1.2709 -1.3213
  338TIP3    H222506   1.293   2.265  16.232  0.5089 -2.6272 -2.3723
  339TIP3   OH222507   2.181   6.703  13.150 -0.2895  0.0780 -0.3517
  339TIP3    H122508   2.104   6.680  13.203  0.4877  0.0393  0.7994
  339TIP3    H222509   2.239   6.748  13.211  1.7963 -2.2867 -0.4375
  340TIP3   OH222510   4.026   0.316  15.122  0.5002 -0.2213 -0.6371
  340TIP3    H122511   4.003   0.391  15.068  1.2959 -0.3692 -1.2042
  340TIP3    H222512   3.963   0.318  15.194  1.4532  1.8715  0.1949
  341TIP3   OH222513   4.781   0.850  11.290  0.4572 -0.2269 -0.7114
  341TIP3    H122514   4.812   0.836  11.201 -0.0456 -1.1183 -0.7597
  341TIP3    H222515   4.735   0.934  11.287 -0.1896 -0.5985 -1.4748
  342TIP3   OH222516   2.485   1.565   4.868 -0.5862  0.4326  0.6090
  342TIP3    H122517   2.552   1.524   4.922  1.0383  1.7644 -0.3070
  342TIP3    H222518   2.474   1.506   4.793 -0.3458  0.2771  0.6962
  343TIP3   OH222519   2.629   0.056  16.128 -0.2115 -0.1205  0.2643
  343TIP3    H122520   2.631  -0.036  16.156 -0.2032 -0.3947 -0.6079
  343TIP3    H222521   2.537   0.071  16.104 -0.3935  0.3595  1.2171
  344TIP3   OH222522   2.089   5.064   3.522 -0.4937  0.2277  0.9048
  344TIP3    H122523   2.009   5.071   3.469 -0.7747  0.5259  1.3610
  344TIP3    H222524   2.062   5.013   3.598 -0.2173  0.2196  0.9955
  345TIP3   OH222525   2.738   5.344  16.821 -0.2100  0.0919 -0.4539
  345TIP3    H122526   2.718   5.401  16.747  0.9702 -0.2536 -1.0709
  345TIP3    H222527   2.675   5.370  16.889 -0.0576  1.7438 -0.8934
  346TIP3   OH222528   3.916   5.280  16.595 -0.1391  0.1122 -0.3920
  346TIP3    H122529   3.834   5.330  16.604 -0.1525  0.4246 -1.9458
  346TIP3    H222530   3.895   5.193  16.627 -0.9574  0.3137 -0.3588
  347TIP3   OH222531   6.353   3.571  17.401  0.1084  0.3690  0.2725
  347TIP3    H122532   6.441   3.543  17.376 -0.0975  0.8849 -1.1032
  347TIP3    H222533   6.336   3.524  17.483  2.3107  1.5361  1.5152
  348TIP3   OH222534   0.950   2.333   6.066  0.0833 -0.6062 -0.3759
  348TIP3    H122535   0.937   2.243   6.095 -1.0253 -1.3232 -2.7880
  348TIP3    H222536   0.875   2.380   6.101 -0.3717 -1.0819 -0.6876
  349TIP3   OH222537   6.320   2.402  14.962 -0.3943 -0.0275 -0.2767
  349TIP3    H122538   6.346   2.314  14.936 -1.8700 -0.5030 -0.1874
  349TIP3    H222539   6.297   2.395  15.054  1.1009  0.8443  0.2038
  350TIP3   OH222540   0.844   6.054   0.086 -0.2409 -0.3771  0.1309
  350TIP3    H122541   0.786   5.988   0.047  0.3278 -0.3951 -0.6974
  350TIP3    H222542   0.873   6.014   0.168 -1.1172 -0.5094  0.3976
  351TIP3   OH222543   2.865   0.112  15.736  0.5882  0.5493  0.3631
  351TIP3    H122544   2.883   0.048  15.667 -1.9067 -1.1970  1.1758
  351TIP3    H222545   2.938   0.102  15.797  0.8088 -0.7658 -0.0817
  352TIP3   OH222546   3.530   5.273   4.588  0.0258 -0.3104 -0.6075
  352TIP3    H122547   3.519   5.191   4.636 -0.4857  0.2316  0.2126
  352TIP3    H222548   3.563   5.335   4.653 -1.5173  0.6702 -0.7201
  353TIP3   OH222549   1.961   0.121  16.699 -0.6898 -0.0073 -0.2547
  353TIP3    H122550   2.032   0.056  16.694  0.2215  0.8770  0.6614
  353TIP3    H222551   1.946   0.134  16.793 -0.0059  1.9640 -0.3648
  354TIP3   OH222552   4.060   6.422  12.598  0.1114 -0.3023  0.3311
  354TIP3    H122553   4.110   6.388  12.673 -1.0356 -1.1438  0.7429
  354TIP3    H222554   4.025   6.344  12.555 -2.7237  0.2795  1.3847
  355TIP3   OH222555   2.041   3.441   5.323  0.4791 -0.9375 -0.5362
  355TIP3    H122556   2.023   3.350   5.297 -1.5113 -0.8615  0.3936
  355TIP3    H222557   2.078   3.481   5.244  2.0680 -2.6912 -0.7654
  356TIP3   OH222558   4.410   2.245  12.973  0.1317  0.4722  0.1656
  356TIP3    H122559   4.445   2.191  12.902  1.5401 -0.0657  1.2175
  356TIP3    H222560   4.329   2.281  12.938 -0.0299 -1.0471 -1.1451
  357TIP3   OH222561   5.996   5.147   3.203  0.1437  0.0563 -0.3806
  357TIP3    H122562   6.089   5.169   3.204 -0.3589  2.4075  0.2728
  357TIP3    H222563   5.961   5.186   3.283 -1.0245 -2.9072  0.6800
  358TIP3   OH222564   1.194   2.598  17.006  0.4918  0.1533 -0.4496
  358TIP3    H122565   1.234   2.609  16.920  1.0657 -0.6245 -0.2953
  358TIP3    H222566   1.168   2.506  17.009 -0.6028  0.4613 -0.2387
  359TIP3   OH222567   2.310   1.664  17.593 -0.0375  0.1901  0.4248
  359TIP3    H122568   2.312   1.713  17.675 -0.0033 -1.5206  1.4896
  359TIP3    H222569   2.393   1.616  17.591 -0.8800 -1.3258  0.4008
  360TIP3   OH222570   1.350   5.258  10.721  0.5964  0.5413  0.1702
  360TIP3    H122571   1.298   5.178  10.734 -0.7095  1.5137  1.3259
  360TIP3    H222572   1.319   5.294  10.638 -0.6585  1.1192  0.8551
  361TIP3   OH222573   3.346   1.015   2.274 -0.1764  0.7061  0.1813
  361TIP3    H122574   3.350   0.967   2.356  0.5435  1.3824  0.5524
  361TIP3    H222575   3.347   0.947   2.206  0.0535  0.1754  0.7089
  362TIP3   OH222576   5.464   3.747   6.432  0.1790 -0.2539 -0.3337
  362TIP3    H122577   5.535   3.743   6.496  0.6836 -0.7994 -0.9055
  362TIP3    H222578   5.506   3.779   6.352 -0.1455 -0.8666 -0.7598
  363TIP3   OH222579   2.827   2.126  10.818  0.1634  0.0038  0.2617
  363TIP3    H122580   2.919   2.129  10.792 -0.4907 -0.4659 -2.4210
  363TIP3    H222581   2.801   2.035  10.801 -1.3017  0.6379 -1.0740
  364TIP3   OH222582   0.778   2.584   0.853  0.7078  0.3704 -0.2236
  364TIP3    H122583   0.836   2.616   0.784  0.4449  1.1523 -0.0884
  364TIP3    H222584   0.732   2.510   0.813 -0.0139  1.2922 -1.1549
  365TIP3   OH222585   4.319   4.915   3.492  0.3332 -0.0616  0.3139
  365TIP3    H122586   4.350   4.941   3.406 -1.5010  0.5985 -0.2105
  365TIP3    H222587   4.371   4.838   3.515  2.7082  1.3041 -0.1478
  366TIP3   OH222588   6.325   0.231   0.696  0.5591  0.0203 -0.2172
  366TIP3    H122589   6.307   0.304   0.637  4.0216  0.7895 -0.5752
  366TIP3    H222590   6.295   0.153   0.648  0.5610  0.8837 -1.6743
  367TIP3   OH222591   4.644   6.733   3.809  0.1161  0.2058 -1.0995
  367TIP3    H122592   4.702   6.679   3.862  0.1636 -0.6751 -2.0297
  367TIP3    H222593   4.556   6.711   3.841  0.1796  0.1233 -0.9791
  368TIP3   OH222594   0.751   0.988  12.274 -0.0079 -0.6575  0.2795
  368TIP3    H122595   0.736   1.059  12.212 -2.0905  0.3702  1.8581
  368TIP3    H222596   0.799   1.029  12.346 -0.7850 -0.9537  0.9798
  369TIP3   OH222597   6.104   6.537  17.176 -0.1710 -0.2200 -0.0995
  369TIP3    H122598   6.143   6.624  17.166 -1.2747  0.3051 -0.0395
  369TIP3    H222599   6.129   6.489  17.097 -1.4117  0.9049 -1.2083
  370TIP3   OH222600   4.823   3.150  15.497 -0.2431 -0.4231  0.0472
  370TIP3    H122601   4.775   3.232  15.484 -2.1798 -1.5472 -0.2420
  370TIP3    H222602   4.844   3.149  15.591 -0.9938 -0.0061  0.2282
  371TIP3   OH222603   3.657   2.081  12.343 -0.1800 -0.8011 -0.2370
  371TIP3    H122604   3.735   2.026  12.342  0.2610 -0.2001 -0.0772
  371TIP3    H222605   3.691   2.171  12.335 -0.9072 -0.5809 -1.1382
  372TIP3   OH222606   0.687   1.582  17.562 -0.0359  0.4980 -0.4614
  372TIP3    H122607   0.610   1.566  17.617 -0.3849 -1.9565 -1.5163
  372TIP3    H222608   0.762   1.569  17.621 -0.3857 -2.6422 -0.4945
  373TIP3   OH222609   3.666   0.144   4.766  0.1847 -0.2371  0.0341
  373TIP3    H122610   3.655   0.150   4.671  1.6371 -1.1876 -0.2267
  373TIP3    H222611   3.685   0.051   4.782  1.5092  0.1777  1.0497
  374TIP3   OH222612   0.026   5.323   1.731  0.4671  0.3478  0.3819
  374TIP3    H122613   0.038   5.296   1.640  0.7368 -2.1387  1.0823
  374TIP3    H222614   0.113   5.349   1.760  0.3682  1.2076 -0.0620
  375TIP3   OH222615   3.782   2.125  16.759 -0.3059  0.7849 -0.0594
  375TIP3    H122616   3.694   2.088  16.753  0.0762 -0.3390  0.9800
  375TIP3    H222617   3.840   2.051  16.744  0.4735  1.1810  0.9568
  376TIP3   OH222618   0.732   4.791  15.265 -0.1307  0.0622  0.0322
  376TIP3    H122619   0.788   4.772  15.340 -1.8439 -0.0994  1.3207
  376TIP3    H222620   0.793   4.813  15.194  1.5301 -0.0526  1.3784
  377TIP3   OH222621   0.976   0.722   3.718 -0.3231 -0.1885 -0.5417
  377TIP3    H122622   0.896   0.694   3.673 -0.2392 -2.3088  0.4775
  377TIP3    H222623   0.956   0.811   3.748 -2.5930 -0.8793  0.2526
  378TIP3   OH222624   0.231   3.263   0.920 -0.1038 -0.1158 -0.6137
  378TIP3    H122625   0.270   3.232   1.002  1.3414  0.2370 -1.1432
  378TIP3    H222626   0.196   3.184   0.878 -0.6867 -0.3257  0.2370
  379TIP3   OH222627   2.430   1.515   3.154  0.4665  0.0419 -0.6677
  379TIP3    H122628   2.345   1.534   3.192  0.1768  0.9748 -1.6985
  379TIP3    H222629   2.493   1.551   3.217  0.0877 -0.3506 -0.0607
  380TIP3   OH222630   4.539   5.445  12.390  0.6811  0.5008 -0.2910
  380TIP3    H122631   4.560   5.415  12.302 -1.6667  0.5168 -0.9098
  380TIP3    H222632   4.598   5.519  12.405  0.8056  0.7910 -2.0366
  381TIP3   OH222633   6.252   0.018   4.613 -0.2462 -0.0461  0.0749
  381TIP3    H122634   6.344   0.030   4.590 -0.8646  0.0390 -2.6685
  381TIP3    H222635   6.235  -0.074   4.595 -0.9816  0.2186 -0.6232
  382TIP3   OH222636   6.647   3.477  12.525 -0.3516  0.1008  0.1249
  382TIP3    H122637   6.554   3.465  12.508 -0.9380  2.7787  1.0130
  382TIP3    H222638   6.688   3.471  12.438 -1.3677 -0.7197 -0.3213
  383TIP3   OH222639   2.033   6.295  12.343  0.0086  0.1443 -0.0071
  383TIP3    H122640   1.947   6.257  12.359 -0.6452  1.0348 -1.2736
  383TIP3    H222641   2.048   6.284  12.250  0.2376  2.0226 -0.2465
  384TIP3   OH222642   4.514   5.839   0.753 -0.0144 -0.5975 -0.6864
  384TIP3    H122643   4.483   5.929   0.738  0.0181 -0.4732 -0.0213
  384TIP3    H222644   4.603   5.838   0.718  1.1536  0.4996  1.9726
  385TIP3   OH222645   5.683   1.324  16.067 -0.1451  0.2578 -0.6186
  385TIP3    H122646   5.702   1.373  15.987  0.5836 -0.4727 -0.9021
  385TIP3    H222647   5.727   1.374  16.136 -0.8907  0.9664 -0.6264
  386TIP3   OH222648   1.698   0.318   2.218 -0.7135 -0.5536 -0.4553
  386TIP3    H122649   1.742   0.314   2.303 -3.1560  0.5404  0.9615
  386TIP3    H222650   1.756   0.271   2.159  2.2398  0.6406  1.2843
  387TIP3   OH222651   3.857   0.091  15.359  0.0923 -0.3102  0.3198
  387TIP3    H122652   3.818   0.082  15.446 -0.6078 -1.5233 -0.0945
  387TIP3    H222653   3.823   0.174  15.326  0.7139  0.3788  1.3658
  388TIP3   OH222654   4.975   1.229   4.376  0.2104  0.6956 -0.0336
  388TIP3    H122655   4.969   1.308   4.428  2.1033  1.1845 -0.5018
  388TIP3    H222656   5.036   1.172   4.424 -0.0381  0.0991 -0.4049
  389TIP3   OH222657   1.272   6.228  14.766 -0.1207  0.1752 -0.5436
  389TIP3    H122658   1.273   6.307  14.712  1.9230  0.0883 -0.7088
  389TIP3    H222659   1.250   6.259  14.854 -0.7776  0.6982 -0.8785
  390TIP3   OH222660   5.483   5.100   6.273 -0.2013  0.6678 -0.3080
  390TIP3    H122661   5.506   5.140   6.189 -1.7201  1.1303 -0.5468
  390TIP3    H222662   5.398   5.139   6.295 -1.0398 -1.3136  0.2019
  391TIP3   OH222663   5.703   1.058   2.891 -0.2140 -1.1475  0.3566
  391TIP3    H122664   5.782   1.038   2.841 -1.0300  0.5572 -1.7571
  391TIP3    H222665   5.641   0.990   2.867  0.0127 -1.4451  0.6015
  392TIP3   OH222666   1.505   2.368   5.153 -0.5907 -0.4718  0.8203
  392TIP3    H122667   1.513   2.450   5.103 -3.5289 -0.4157  0.2305
  392TIP3    H222668   1.556   2.305   5.102  0.0849  0.5449  0.1792
  393TIP3   OH222669   2.729   5.611   1.488 -0.1487  0.0088  0.3664
  393TIP3    H122670   2.650   5.647   1.529  1.0103  1.6180  1.2812
  393TIP3    H222671   2.726   5.646   1.398 -0.5206 -0.0366  0.3569
  394TIP3   OH222672   2.019   3.442  14.197  0.4013 -0.0247 -0.3084
  394TIP3    H122673   2.020   3.347  14.183 -0.8701 -0.2177  0.6180
  394TIP3    H222674   1.975   3.477  14.119 -1.1553 -0.4579  0.3257
  395TIP3   OH222675   1.575   3.363   1.317 -0.0259  0.3151  0.6174
  395TIP3    H122676   1.504   3.369   1.382 -0.4678  1.3820  0.0671
  395TIP3    H222677   1.533   3.327   1.239  0.3104 -0.1472  0.6478
  396TIP3   OH222678   4.628   2.288  14.124  0.5649 -0.0142 -0.5054
  396TIP3    H122679   4.589   2.376  14.121  0.2547  0.0294  2.2625
  396TIP3    H222680   4.654   2.271  14.034 -1.0236  2.1656 -1.4805
  397TIP3   OH222681   3.181   5.557  14.627  0.1109 -0.4402 -0.0493
  397TIP3    H122682   3.130   5.504  14.565 -1.7487 -0.6599  1.5792
  397TIP3    H222683   3.236   5.494  14.673 -0.0031 -0.5607 -0.0771
  398TIP3   OH222684   3.425   1.938  13.536 -0.8469 -0.3331 -0.5798
  398TIP3    H122685   3.354   1.998  13.514 -0.2136  0.8042  0.3384
  398TIP3    H222686   3.432   1.880  13.461 -1.7012  0.5370 -1.3560
  399TIP3   OH222687   5.985   5.326  13.759  0.2561 -0.5149 -0.1152
  399TIP3    H122688   5.951   5.342  13.671  0.3103 -0.9250 -0.2114
  399TIP3    H222689   6.004   5.413  13.794 -0.9181 -0.2728 -0.0438
  400TIP3   OH222690   0.123   2.779   2.529  0.1581  0.5075 -0.0443
  400TIP3    H122691   0.034   2.814   2.527  0.3890  1.0893 -0.0815
  400TIP3    H222692   0.126   2.728   2.610 -0.1389  0.6639  0.0679
  401TIP3   OH222693   0.592   1.282   1.414  0.1323  0.1176 -0.7185
  401TIP3    H122694   0.530   1.257   1.482 -0.5676  1.4802 -0.8294
  401TIP3    H222695   0.550   1.257   1.332  0.1510  0.1718 -0.7451
  402TIP3   OH222696   4.734   6.189  14.786  0.2686 -0.3896 -0.3542
  402TIP3    H122697   4.715   6.222  14.698  0.0315 -0.4686 -0.3330
  402TIP3    H222698   4.827   6.165  14.783  0.3598 -0.0309 -0.4676
  403TIP3   OH222699   1.647   4.721   0.444  0.2844 -0.3586  0.1569
  403TIP3    H122700   1.688   4.667   0.376 -1.0305  0.5131 -1.4340
  403TIP3    H222701   1.608   4.658   0.504  1.7387 -1.1648  0.2881
  404TIP3   OH222702   0.378   6.080   3.713  0.8539  0.0229  0.0141
  404TIP3    H122703   0.423   6.008   3.668 -0.1302 -0.6162  0.0223
  404TIP3    H222704   0.287   6.073   3.685  0.3552  0.0474  1.5523
  405TIP3   OH222705   5.335   4.689   3.794 -0.0620  0.2211 -0.2783
  405TIP3    H122706   5.297   4.775   3.809  2.0449  1.3187 -0.8620
  405TIP3    H222707   5.291   4.657   3.715  2.4922  3.0017 -3.0916
  406TIP3   OH222708   1.743   4.271   0.862  0.2597  0.1163  0.4491
  406TIP3    H122709   1.793   4.335   0.812 -0.7160  1.8725  1.5668
  406TIP3    H222710   1.656   4.311   0.870 -0.7697 -1.9631  0.1283
  407TIP3   OH222711   5.648   1.882   2.584  0.1388  0.2282  0.5428
  407TIP3    H122712   5.690   1.900   2.500 -1.4140  0.8296 -0.1452
  407TIP3    H222713   5.685   1.799   2.613  1.0022  0.2245 -0.5303
  408TIP3   OH222714   5.864   0.965  13.669 -0.5626 -0.1114 -0.2013
  408TIP3    H122715   5.873   0.872  13.687  1.1755  0.0400 -0.1229
  408TIP3    H222716   5.898   1.008  13.748 -0.5526  0.5748 -0.5703
  409TIP3   OH222717   0.597   4.570   6.705  0.7063  0.7110  0.1265
  409TIP3    H122718   0.568   4.617   6.626  1.4703 -0.1574 -0.6967
  409TIP3    H222719   0.615   4.639   6.769  0.5087  1.4606 -0.6132
  410TIP3   OH222720   6.084   2.438   3.134  0.2664 -0.8582 -0.1310
  410TIP3    H122721   6.064   2.456   3.043  0.9573  0.4445 -0.0534
  410TIP3    H222722   6.148   2.505   3.158  1.1886 -2.0501  0.9020
  411TIP3   OH222723   4.355   1.606   5.379 -0.4515  0.7233  0.2523
  411TIP3    H122724   4.438   1.558   5.375  0.1421  1.4384  2.4489
  411TIP3    H222725   4.377   1.694   5.348 -0.5439  0.7366  0.2253
  412TIP3   OH222726   2.327   3.620   2.485  0.1449  0.1756  0.4090
  412TIP3    H122727   2.310   3.705   2.526  2.0185 -0.0200  1.7747
  412TIP3    H222728   2.331   3.559   2.559 -2.7353 -1.4880 -0.6407
  413TIP3   OH222729   3.004   3.409   1.703  0.1403 -0.0549 -0.3236
  413TIP3    H122730   2.981   3.435   1.792 -0.1299 -0.0978 -0.3784
  413TIP3    H222731   3.097   3.430   1.694  0.1386  0.0564 -0.0710
  414TIP3   OH222732   1.082   6.223   0.116  0.0631  0.1852  0.0567
  414TIP3    H122733   1.079   6.256   0.026  0.4341  0.8390  0.2815
  414TIP3    H222734   1.012   6.158   0.119 -1.7071  2.0156  0.0259
  415TIP3   OH222735   1.083   4.682   3.571 -0.1118  0.0233  0.2585
  415TIP3    H122736   1.120   4.656   3.486 -0.9088  0.1395 -0.1328
  415TIP3    H222737   1.159   4.691   3.628  0.6890  2.1261 -1.0113
  416TIP3   OH222738   4.948   2.832   3.115 -0.4211  0.0946  0.1075
  416TIP3    H122739   4.988   2.908   3.073 -1.2616 -0.4856 -1.8864
  416TIP3    H222740   4.860   2.828   3.079 -0.8752 -1.0173  1.2522
  417TIP3   OH222741   4.929   0.385  16.074  0.2808 -0.6392  0.0139
  417TIP3    H122742   4.991   0.375  16.001 -0.9402 -0.7832 -1.0247
  417TIP3    H222743   4.969   0.337  16.146  2.6079  1.3186  0.1667
  418TIP3   OH222744   4.908   2.495   2.619  0.3591  0.2067  0.7192
  418TIP3    H122745   4.884   2.427   2.557  2.6404 -0.1009  0.0750
  418TIP3    H222746   4.871   2.465   2.702 -2.6999  0.5999 -0.3744
  419TIP3   OH222747   3.077   3.885   0.922 -0.0683 -0.0281  0.1192
  419TIP3    H122748   3.138   3.926   0.861  1.8489 -2.4834  0.2203
  419TIP3    H222749   2.995   3.878   0.872  0.9995 -0.5552 -1.6612
  420TIP3   OH222750   0.353   1.272   4.058 -0.2057  0.4032  0.1693
  420TIP3    H122751   0.429   1.323   4.087 -1.1192  1.6286  0.4718
  420TIP3    H222752   0.326   1.314   3.976 -0.9959  0.4291  0.4376
  421TIP3   OH222753   3.124   2.097   6.081  0.3517 -0.1268 -0.2132
  421TIP3    H122754   3.030   2.098   6.099  0.0570  0.6874 -1.6395
  421TIP3    H222755   3.155   2.013   6.116 -1.0169 -0.6770 -0.2772
  422TIP3   OH222756   5.413   5.688   4.288 -0.5277  0.1834 -0.5131
  422TIP3    H122757   5.336   5.632   4.292 -0.4672  0.1671  1.8772
  422TIP3    H222758   5.378   5.777   4.303 -0.0582  0.0882  1.3712
  423TIP3   OH222759   1.260   0.229  16.071  0.3429 -0.6601 -0.3535
  423TIP3    H122760   1.272   0.292  15.999  2.1919 -0.4072  0.1439
  423TIP3    H222761   1.287   0.145  16.034 -0.7078 -0.9190 -0.5642
  424TIP3   OH222762   4.107   5.968   4.463  0.0028  0.2216 -0.7093
  424TIP3    H122763   4.040   5.922   4.412  2.0015 -1.1224 -2.2229
  424TIP3    H222764   4.174   5.992   4.400  0.8656  1.7914  0.7315
  425TIP3   OH222765   3.595   4.527  16.143 -0.0925  0.0628 -0.0462
  425TIP3    H122766   3.520   4.479  16.108  2.3203 -1.6491 -3.4444
  425TIP3    H222767   3.630   4.469  16.211  1.4688 -2.1721 -2.5641
  426TIP3   OH222768   6.557   1.536  15.443  0.3666  0.3940 -0.3110
  426TIP3    H122769   6.596   1.542  15.356  2.0330 -3.8812 -0.1136
  426TIP3    H222770   6.475   1.489  15.429 -0.0930  1.0018  0.2927
  427TIP3   OH222771   5.023   1.281   3.682 -0.3454  0.0786 -0.2759
  427TIP3    H122772   5.097   1.285   3.743 -0.4798 -0.2063 -0.0872
  427TIP3    H222773   5.023   1.365   3.637 -0.5443  0.4900  0.4739
  428TIP3   OH222774   6.302   3.522  14.572 -0.1062  0.2981 -0.3741
  428TIP3    H122775   6.364   3.486  14.636 -0.9898 -0.1452  0.2392
  428TIP3    H222776   6.355   3.533  14.493  0.3916 -1.6452 -0.3763
  429TIP3   OH222777   2.326   6.210  10.763 -0.9637  0.0943  0.1064
  429TIP3    H122778   2.307   6.225  10.855  0.4873  1.0682  0.2744
  429TIP3    H222779   2.321   6.115  10.752 -2.6595  0.0555  0.8050
  430TIP3   OH222780   0.440   0.060   1.162  0.9396  0.3776  0.0654
  430TIP3    H122781   0.461   0.036   1.072  1.2780  0.5727  0.0934
  430TIP3    H222782   0.402  -0.020   1.199 -0.3419  0.6473 -0.6021
  431TIP3   OH222783   1.225   2.550   4.268 -0.5495 -0.2200 -0.1125
  431TIP3    H122784   1.159   2.481   4.259  0.3891 -1.3030  1.0437
  431TIP3    H222785   1.266   2.534   4.353  0.3736  1.1689 -0.2636
  432TIP3   OH222786   5.146   5.101   4.390 -0.3765 -0.3467  0.3684
  432TIP3    H122787   5.241   5.104   4.379 -0.5615  0.4326 -1.2078
  432TIP3    H222788   5.126   5.177   4.445 -0.1952  0.1829 -0.2832
  433TIP3   OH222789   5.849   1.224   1.641  0.2780 -0.1621 -0.0155
  433TIP3    H122790   5.798   1.292   1.685 -0.2106 -0.3421 -0.2936
  433TIP3    H222791   5.878   1.166   1.711 -0.3187 -0.3312  0.0929
  434TIP3   OH222792   1.456   3.370   3.298 -0.2902 -0.2017 -0.5211
  434TIP3    H122793   1.535   3.380   3.246  0.9631 -1.9870  0.8845
  434TIP3    H222794   1.467   3.431   3.372 -1.1370  0.8934 -1.2676
  435TIP3   OH222795   0.564   2.489  13.639  0.2896  0.0187  0.3784
  435TIP3    H122796   0.537   2.465  13.727  1.3521 -0.7545  0.5097
  435TIP3    H222797   0.488   2.471  13.584  0.4499 -1.9716  0.7616
  436TIP3   OH222798   4.264   2.903   0.190  0.0395 -0.2296  0.2382
  436TIP3    H122799   4.184   2.851   0.202 -1.4050  1.7366 -0.3154
  436TIP3    H222800   4.322   2.847   0.139 -1.9205 -0.8694 -1.4004
  437TIP3   OH222801   1.402   3.163  15.684 -0.1700  0.6870  0.8268
  437TIP3    H122802   1.473   3.104  15.658  1.1533  1.7269  1.8669
  437TIP3    H222803   1.393   3.223  15.610 -0.5357  0.0519  0.3527
  438TIP3   OH222804   1.106   3.280  13.541 -0.0018 -0.2216  0.0034
  438TIP3    H122805   1.092   3.198  13.589 -0.2286 -0.7263 -0.8972
  438TIP3    H222806   1.131   3.252  13.452 -0.6752  0.6828 -0.4850
  439TIP3   OH222807   4.388   4.224  14.246  0.7004 -0.3889  0.4926
  439TIP3    H122808   4.411   4.132  14.235  4.0278  0.6127 -3.3009
  439TIP3    H222809   4.468   4.265  14.277 -0.2494  1.4602  0.6193
  440TIP3   OH222810   2.407   4.804   6.681 -0.6810 -0.4399  0.4269
  440TIP3    H122811   2.320   4.809   6.721 -0.5784  0.4418  0.5563
  440TIP3    H222812   2.434   4.895   6.671 -0.4829 -0.6501 -1.1817
  441TIP3   OH222813   1.049   0.566  12.048 -0.3388 -0.7216  0.0961
  441TIP3    H122814   0.989   0.555  12.123 -0.5029  0.3189  0.1385
  441TIP3    H222815   0.991   0.584  11.974 -0.2103 -2.3362 -0.4298
  442TIP3   OH222816   2.852   0.487  12.319  0.0193 -0.8258 -0.3783
  442TIP3    H122817   2.780   0.531  12.364  1.0124 -0.7392  1.1777
  442TIP3    H222818   2.927   0.496  12.378  1.9840  1.0942 -2.9033
  443TIP3   OH222819   0.836   0.507  12.282  0.3425 -0.1594 -0.3681
  443TIP3    H122820   0.787   0.465  12.211  0.2946 -1.6233  0.4957
  443TIP3    H222821   0.770   0.558  12.329 -0.0093 -0.6552 -0.3053
  444TIP3   OH222822   3.226   2.608  10.663  0.3933  0.5591  0.5736
  444TIP3    H122823   3.284   2.576  10.593  1.4473  0.3691  1.5113
  444TIP3    H222824   3.286   2.638  10.731 -0.5974  2.4114  0.6811
  445TIP3   OH222825   5.991   5.197  16.029  0.2980  0.2079 -0.2925
  445TIP3    H122826   5.967   5.189  15.937  2.9012  2.1254 -1.2804
  445TIP3    H222827   5.931   5.264  16.064 -0.4238 -0.2224 -0.6920
  446TIP3   OH222828   3.134   1.444   4.239  0.0482  0.5413  0.1974
  446TIP3    H122829   3.111   1.500   4.312 -1.2691  0.1480  0.1146
  446TIP3    H222830   3.134   1.355   4.276  1.5056  0.5092  0.1907
  447TIP3   OH222831   4.019   1.609  16.198 -0.1047 -0.2184 -0.4202
  447TIP3    H122832   3.965   1.685  16.220 -0.0924 -0.1225 -0.7175
  447TIP3    H222833   3.979   1.537  16.247 -1.0586 -0.3340 -1.3180
  448TIP3   OH222834   1.285   0.509  15.986 -0.2353  0.3546  0.0672
  448TIP3    H122835   1.217   0.530  15.921  1.1306  1.9462 -0.9423
  448TIP3    H222836   1.322   0.594  16.009  1.5407 -0.4883  0.4480
  449TIP3   OH222837   5.494   3.008  15.219 -0.2462 -0.4953  0.5150
  449TIP3    H122838   5.455   3.047  15.297 -2.2596  0.8478 -1.0523
  449TIP3    H222839   5.529   3.083  15.170  0.7212 -1.2776 -0.0134
  450TIP3   OH222840   6.142   3.070   2.139  0.0131  0.3639  0.2415
  450TIP3    H122841   6.116   3.159   2.114 -1.6375  0.2423  1.3284
  450TIP3    H222842   6.061   3.019   2.131  0.6272 -0.7516  0.9414
  451TIP3   OH222843   6.711   5.231  16.034  0.1601  0.4338 -0.6854
  451TIP3    H122844   6.724   5.185  15.951  1.4584  0.0248 -0.2884
  451TIP3    H222845   6.636   5.288  16.018  0.0155 -0.0641 -1.9540
  452TIP3   OH222846   0.782   5.259  14.394 -0.0235  0.1370  0.4596
  452TIP3    H122847   0.831   5.335  14.424 -2.2596  1.6104  0.6545
  452TIP3    H222848   0.710   5.251  14.457 -2.7932  1.1127 -2.3602
  453TIP3   OH222849   4.809   2.223   6.029  0.0994 -0.0323  0.3539
  453TIP3    H122850   4.831   2.314   6.050  0.9485 -0.1211 -0.0859
  453TIP3    H222851   4.886   2.173   6.058 -0.7915 -0.7463  1.5625
  454TIP3   OH222852   3.685   2.098   6.623 -0.0082 -0.2660  0.5029
  454TIP3    H122853   3.661   2.155   6.550 -0.2291  0.7014  1.3036
  454TIP3    H222854   3.610   2.100   6.682 -0.3547 -2.0783  0.1595
  455TIP3   OH222855   0.861   1.748  14.429 -0.2863  0.8080 -0.3274
  455TIP3    H122856   0.947   1.744  14.472 -1.0223  0.0020  1.1370
  455TIP3    H222857   0.880   1.731  14.337  1.0620  0.0595  0.0537
  456TIP3   OH222858   3.759   4.561  14.244 -0.0603  0.5405  0.0270
  456TIP3    H122859   3.761   4.654  14.267 -0.4685  0.9769 -1.5830
  456TIP3    H222860   3.838   4.548  14.192 -0.6268  0.2949 -0.7903
  457TIP3   OH222861   0.093   1.500   4.746  0.3228 -0.7118 -0.6305
  457TIP3    H122862   0.005   1.496   4.708  0.1966 -0.4348 -0.3694
  457TIP3    H222863   0.106   1.593   4.767  0.0713 -0.9636  0.7400
  458TIP3   OH222864   1.484   2.270  15.372 -0.4466  0.3389  0.1809
  458TIP3    H122865   1.502   2.359  15.402 -0.6540  0.3737  0.2020
  458TIP3    H222866   1.555   2.251  15.311 -0.5026  0.5872  0.0333
  459TIP3   OH222867   3.895   0.483  11.757 -0.4656  0.5105  0.0219
  459TIP3    H122868   3.921   0.497  11.666 -0.0969  0.3162  0.0959
  459TIP3    H222869   3.906   0.568  11.798  2.8806 -0.1287  0.7546
  460TIP3   OH222870   0.172   6.140   2.743  0.5027  0.2949 -0.3538
  460TIP3    H122871   0.107   6.098   2.801  1.2409  1.3154  1.2730
  460TIP3    H222872   0.240   6.074   2.733  0.9314  0.5049  0.9471
  461TIP3   OH222873   3.217   3.745  15.592 -0.3542  0.4586 -0.1470
  461TIP3    H122874   3.285   3.798  15.634 -1.1347  1.4303 -0.0467
  461TIP3    H222875   3.261   3.664  15.568  1.1336  1.4890 -1.0983
  462TIP3   OH222876   5.701   0.287  15.605  0.4717 -0.2002  0.2442
  462TIP3    H122877   5.648   0.219  15.563 -2.1076  0.4320  2.2091
  462TIP3    H222878   5.768   0.309  15.540  1.2099 -4.2727 -0.6137
  463TIP3   OH222879   2.615   2.935  13.805  0.0249  0.2099  0.0511
  463TIP3    H122880   2.707   2.949  13.779  0.9218 -1.5102  2.0220
  463TIP3    H222881   2.609   2.972  13.893 -0.8711 -0.6565  0.3744
  464TIP3   OH222882   1.850   1.785  11.977 -0.2344 -0.1158  0.1230
  464TIP3    H122883   1.841   1.689  11.981  1.9904 -0.3802  0.1301
  464TIP3    H222884   1.914   1.806  12.045 -1.2042  1.4955  0.5916
  465TIP3   OH222885   5.523   6.522  14.476 -0.6395 -1.0998  0.2661
  465TIP3    H122886   5.570   6.441  14.457 -0.7295 -0.8269 -1.2394
  465TIP3    H222887   5.486   6.509  14.564 -0.0534 -2.3883  0.3376
  466TIP3   OH222888   0.531   0.118  14.916  0.2571  1.1138 -0.1073
  466TIP3    H122889   0.487   0.088  14.836  0.6831  1.3354 -0.4298
  466TIP3    H222890   0.609   0.163  14.884  1.1524  0.0056  0.4975
  467TIP3   OH222891   3.710   5.245   3.624 -0.2647 -0.4103  0.1892
  467TIP3    H122892   3.775   5.216   3.688  0.9201  0.8076 -0.4177
  467TIP3    H222893   3.695   5.168   3.570 -1.2098 -1.4316  1.8299
  468TIP3   OH222894   3.061   1.774  14.801 -0.6022 -0.1408  0.1015
  468TIP3    H122895   3.023   1.837  14.863  0.3873  0.4565  0.1177
  468TIP3    H222896   3.141   1.816  14.770  0.0646 -1.3770  0.0858
  469TIP3   OH222897   3.070   5.614   0.632  0.7474 -0.0040 -0.7866
  469TIP3    H122898   3.027   5.659   0.560  0.2858  2.1278  0.7546
  469TIP3    H222899   3.161   5.644   0.629  0.4082  1.2298  0.3244
  470TIP3   OH222900   3.946   6.667   5.992  0.0055 -0.0482  0.5696
  470TIP3    H122901   3.964   6.626   6.077  1.4605  1.5900  1.1049
  470TIP3    H222902   4.012   6.630   5.934  2.3655  2.5203  1.4245
  471TIP3   OH222903   6.178   5.083   4.158 -0.1245  0.1643  0.2196
  471TIP3    H122904   6.145   4.997   4.131  0.7536  0.0459 -0.5158
  471TIP3    H222905   6.117   5.111   4.227 -2.3300  0.3776 -1.6898
  472TIP3   OH222906   1.566   3.041   5.630  0.3166  0.4634  0.2606
  472TIP3    H122907   1.555   3.086   5.546  0.3751 -1.4604 -0.8306
  472TIP3    H222908   1.479   3.039   5.668 -0.1158 -0.4788 -0.7444
  473TIP3   OH222909   1.619   4.663  12.780 -0.0106  0.0196 -0.3427
  473TIP3    H122910   1.542   4.607  12.777 -0.4070  0.5357  0.0697
  473TIP3    H222911   1.642   4.678  12.688 -0.9707  0.6327 -0.4941
  474TIP3   OH222912   1.466   6.477  13.841  0.8508  0.2548 -0.3107
  474TIP3    H122913   1.441   6.449  13.753 -0.5402 -0.8612  0.4036
  474TIP3    H222914   1.523   6.407  13.874  1.7886  0.9125 -0.4805
  475TIP3   OH222915   2.125   1.703   5.089  0.0008 -0.7387  0.3604
  475TIP3    H122916   2.109   1.797   5.092  0.7033 -0.5819 -0.3168
  475TIP3    H222917   2.217   1.694   5.114  0.6426 -0.9884 -1.8172
  476TIP3   OH222918   2.228   2.803  16.771  0.3881 -0.9979  0.2322
  476TIP3    H122919   2.192   2.748  16.841  0.0511 -0.1297  0.7541
  476TIP3    H222920   2.314   2.830  16.804  1.1657 -2.3204 -0.6192
  477TIP3   OH222921   0.722   6.301   0.065  0.4184 -0.3927 -0.0174
  477TIP3    H122922   0.770   6.224   0.096 -0.5730 -0.6579  0.9006
  477TIP3    H222923   0.630   6.275   0.068  0.1346  0.5225 -0.5690
  478TIP3   OH222924   2.864   0.064  12.386 -0.0266  0.0917  0.2031
  478TIP3    H122925   2.792   0.077  12.324 -0.8301 -1.0797  0.8696
  478TIP3    H222926   2.939   0.108  12.345 -0.6111 -0.4041 -1.4524
  479TIP3   OH222927   1.627   6.698   1.734  0.1157 -0.1488 -0.4242
  479TIP3    H122928   1.673   6.674   1.815 -0.0103 -2.0633 -0.8759
  479TIP3    H222929   1.616   6.793   1.741  0.4171 -0.2020  1.6384
  480TIP3   OH222930   6.093   0.881   3.713 -0.2259  0.0565  0.7025
  480TIP3    H122931   6.113   0.963   3.669  0.6296 -0.0731  0.8333
  480TIP3    H222932   6.014   0.899   3.764  1.5087  1.6732  3.0408
  481TIP3   OH222933   5.395   5.360   5.343  0.4625  0.4466  0.2418
  481TIP3    H122934   5.426   5.270   5.356 -0.1998 -0.0635 -1.3234
  481TIP3    H222935   5.306   5.360   5.380  1.2118  1.0973  2.1543
  482TIP3   OH222936   4.232   6.470   1.371  0.0304 -0.2565 -0.0836
  482TIP3    H122937   4.253   6.545   1.316  0.6351 -0.7061 -0.4730
  482TIP3    H222938   4.222   6.396   1.311  1.0886 -0.8350  0.4225
  483TIP3   OH222939   2.587   4.785   4.458 -0.2801  0.0513  0.3214
  483TIP3    H122940   2.509   4.838   4.443 -0.3517  0.1719  1.1084
  483TIP3    H222941   2.619   4.812   4.544  0.3395 -0.3598  0.2270
  484TIP3   OH222942   6.170   4.470   5.461  0.2227 -0.0274  0.3830
  484TIP3    H122943   6.196   4.485   5.552  0.9331 -0.4487  0.2538
  484TIP3    H222944   6.078   4.497   5.458  0.5426  1.1956  0.9252
  485TIP3   OH222945   3.113   2.290   5.870 -0.6191  0.9509 -0.4140
  485TIP3    H122946   3.161   2.282   5.788  0.0701  1.5483 -0.0815
  485TIP3    H222947   3.140   2.213   5.921  2.1278  2.5687  0.8196
  486TIP3   OH222948   2.340   2.626  17.409 -0.2106  0.1087  0.5162
  486TIP3    H122949   2.378   2.664  17.489  0.3224 -2.2450  1.4797
  486TIP3    H222950   2.246   2.624  17.426 -0.0909 -0.4865  1.1580
  487TIP3   OH222951   1.808   5.215  16.656 -0.3715  0.1621  0.1919
  487TIP3    H122952   1.783   5.227  16.747 -1.0651  0.8332 -0.0733
  487TIP3    H222953   1.743   5.265  16.606  0.0838 -0.0647 -0.6608
  488TIP3   OH222954   0.646   0.549   6.036 -0.0292  0.5451  0.2849
  488TIP3    H122955   0.638   0.562   6.130 -0.3272 -0.7355  0.4535
  488TIP3    H222956   0.699   0.470   6.027 -0.5886  0.2480 -0.5973
  489TIP3   OH222957   5.684   5.249  12.310  0.0247 -0.0514  0.1464
  489TIP3    H122958   5.617   5.313  12.289  0.7944  1.1555  1.2091
  489TIP3    H222959   5.707   5.266  12.401  0.1963 -1.9150  0.5053
  490TIP3   OH222960   4.819   4.034   3.799 -0.2022 -0.2315  0.3592
  490TIP3    H122961   4.824   4.034   3.703 -0.8384 -0.6071  0.3162
  490TIP3    H222962   4.845   3.945   3.824  0.8519  0.1362  0.5969
  491TIP3   OH222963   1.969   6.491   2.298  0.7995 -0.0576  1.0173
  491TIP3    H122964   2.037   6.455   2.355  0.1758 -2.6456  0.2859
  491TIP3    H222965   1.895   6.431   2.309 -0.9535  1.9602  0.8627
  492TIP3   OH222966   2.938   5.427  17.239  0.1172 -0.2878  0.1354
  492TIP3    H122967   2.873   5.496  17.233  2.8675  2.4616 -0.7162
  492TIP3    H222968   2.978   5.439  17.325 -0.3902 -1.9219  0.6459
  493TIP3   OH222969   1.457   3.601  13.518  0.1304 -0.4476 -0.0473
  493TIP3    H122970   1.457   3.692  13.489  1.5364 -0.2261  0.5730
  493TIP3    H222971   1.467   3.550  13.437  1.6148  0.0660 -0.2290
  494TIP3   OH222972   0.135   2.216  11.381 -0.1651  0.5378 -0.4988
  494TIP3    H122973   0.221   2.177  11.365  1.1476  1.9121  2.3882
  494TIP3    H222974   0.133   2.294  11.325  0.5617  0.5734 -0.4806
  495TIP3   OH222975   3.555   5.936   2.888 -0.3454  0.1913  0.0640
  495TIP3    H122976   3.477   5.972   2.846 -1.1467 -1.8669 -0.3143
  495TIP3    H222977   3.617   5.923   2.817  0.1308  1.1910  0.2706
  496TIP3   OH222978   2.856   5.210  17.047  0.4451  0.4382 -0.5914
  496TIP3    H122979   2.889   5.276  17.108 -0.5358  0.6267 -0.2373
  496TIP3    H222980   2.808   5.260  16.981 -0.9458  0.0668  0.0883
  497TIP3   OH222981   3.027   4.441  12.064  0.2362 -0.5462 -0.0445
  497TIP3    H122982   3.096   4.388  12.024 -1.0339 -2.8037  0.6017
  497TIP3    H222983   2.946   4.410  12.024 -0.6807  0.0394  1.2900
  498TIP3   OH222984   5.351   4.396  16.013 -0.0325  0.0326  0.2107
  498TIP3    H122985   5.327   4.418  16.104  0.7494 -1.3565  0.7890
  498TIP3    H222986   5.401   4.471  15.982 -2.0707  1.4681  0.1641
  499TIP3   OH222987   3.784   0.258  12.905 -0.1083  0.1450 -0.4665
  499TIP3    H122988   3.693   0.237  12.882  0.4890 -1.5559 -1.5057
  499TIP3    H222989   3.779   0.343  12.948 -1.9352  1.2252 -2.5630
  500TIP3   OH222990   3.986   4.789   0.642  0.2931 -0.2442 -0.7458
  500TIP3    H122991   3.984   4.882   0.662  0.5406 -0.1470 -1.1527
  500TIP3    H222992   4.070   4.775   0.599  1.3283 -1.1196  1.4188
  501TIP3   OH222993   2.610   3.212  16.829 -0.0125  0.1957  0.1728
  501TIP3    H122994   2.574   3.212  16.917 -1.0941  2.2682 -0.2220
  501TIP3    H222995   2.697   3.251  16.838 -0.4877  1.2747  0.2205
  502TIP3   OH222996   6.717   0.346  13.826 -0.4152 -0.1704  0.1316
  502TIP3    H122997   6.632   0.343  13.782 -1.5114 -0.7547  2.1590
  502TIP3    H222998   6.730   0.258  13.860 -1.4156  0.9665  3.9912
  503TIP3   OH222999   1.498   0.926  13.345  0.6101 -0.4923  0.3932
  503TIP3    H123000   1.502   0.919  13.440 -0.5020 -0.2848  0.4776
  503TIP3    H223001   1.412   0.890  13.323  1.2901 -1.5501 -0.6438
  504TIP3   OH223002   3.180   2.387  15.830 -0.3243  0.2688  0.0815
  504TIP3    H123003   3.236   2.462  15.850  0.2891  0.0122 -0.6459
  504TIP3    H223004   3.194   2.327  15.903  0.5360  0.1119 -0.1959
  505TIP3   OH223005   0.422   0.833   1.861  0.1563  0.5994  0.0511
  505TIP3    H123006   0.336   0.792   1.853  0.5802 -0.2792 -0.0616
  505TIP3    H223007   0.432   0.883   1.780  0.1908 -0.1424 -0.4063
  506TIP3   OH223008   1.330   1.750   2.044 -0.9884  0.3850 -0.0826
  506TIP3    H123009   1.250   1.702   2.022  0.4648 -1.7402 -1.0325
  506TIP3    H223010   1.395   1.719   1.982  0.7956  1.4975  1.1244
  507TIP3   OH223011   1.007   1.711  11.872  0.3434 -0.1305  0.0326
  507TIP3    H123012   0.942   1.647  11.901 -0.8752  0.8362 -0.4627
  507TIP3    H223013   1.005   1.707  11.777  0.4531  0.4577  0.0019
  508TIP3   OH223014   2.328   3.822   4.955  0.2715  0.7439  0.8915
  508TIP3    H123015   2.317   3.810   4.860  0.4116  0.0200  0.9561
  508TIP3    H223016   2.239   3.816   4.990  0.0757  2.1899  0.7021
  509TIP3   OH223017   6.689   5.624  13.260 -0.7529  0.8004  0.5341
  509TIP3    H123018   6.607   5.615  13.211  0.0020 -1.9565 -0.4374
  509TIP3    H223019   6.671   5.584  13.345 -0.2668 -0.5676  0.0299
  510TIP3   OH223020   2.928   1.089  15.044 -0.0993 -0.0067  0.2445
  510TIP3    H123021   2.849   1.142  15.049  0.3291  0.5862  0.8372
  510TIP3    H223022   2.976   1.124  14.968 -0.4163 -0.3951 -0.1414
  511TIP3   OH223023   3.743   0.078  15.629  0.1516  0.3859 -0.4605
  511TIP3    H123024   3.681   0.085  15.701  0.1812 -0.7166 -0.3042
  511TIP3    H223025   3.829   0.077  15.671  0.1799  0.0018 -0.5177
  512TIP3   OH223026   4.243   3.031  17.222  0.1550  0.2612  0.4467
  512TIP3    H123027   4.267   2.977  17.297  2.2853  0.9173  0.3185
  512TIP3    H223028   4.155   3.063  17.243 -0.2754 -1.4659  1.5193
  513TIP3   OH223029   1.210   0.472  11.294 -0.1566  0.0730  0.1616
  513TIP3    H123030   1.276   0.472  11.224 -0.1317  0.1261  0.1846
  513TIP3    H223031   1.256   0.433  11.369 -0.1943 -0.0169  0.1379
  514TIP3   OH223032   6.257   1.695  17.022 -0.3050 -0.2933 -0.8550
  514TIP3    H123033   6.236   1.604  17.046 -0.6446  0.0013 -0.0156
  514TIP3    H223034   6.178   1.744  17.040  0.5669  0.5654  0.8746
  515TIP3   OH223035   2.656   5.320  11.034 -0.2173 -0.0107  0.0852
  515TIP3    H123036   2.653   5.296  11.127 -0.6312 -1.8207 -0.3656
  515TIP3    H223037   2.722   5.390  11.030  0.7616 -0.7874  1.5537
  516TIP3   OH223038   5.640   1.427   5.785 -0.1166 -0.0903 -0.2711
  516TIP3    H123039   5.666   1.512   5.748  0.6639 -0.7138 -1.1970
  516TIP3    H223040   5.655   1.364   5.715  1.4163 -1.3333  1.0777
  517TIP3   OH223041   4.522   0.610  13.248  0.3894  0.5438  0.2135
  517TIP3    H123042   4.463   0.548  13.290 -0.3064  1.8665  1.2860
  517TIP3    H223043   4.578   0.556  13.192 -0.3024 -1.0087  0.9481
  518TIP3   OH223044   6.073   6.214  13.935 -0.6528 -0.5058 -1.1306
  518TIP3    H123045   6.049   6.296  13.891  1.0435  0.3314 -0.5986
  518TIP3    H223046   6.132   6.241  14.005 -0.4640 -2.1586 -0.6032
  519TIP3   OH223047   1.222   5.755   5.131  0.1615  0.0675 -1.2096
  519TIP3    H123048   1.219   5.661   5.149  1.3867 -0.4193 -3.2492
  519TIP3    H223049   1.312   5.780   5.151 -0.3437  1.0172  0.0413
  520TIP3   OH223050   2.929   4.437  15.482 -0.3856 -0.4311 -0.1210
  520TIP3    H123051   2.957   4.517  15.528  0.0849  2.2400 -4.5029
  520TIP3    H223052   2.986   4.368  15.518  1.2853  1.7847  1.8246
  521TIP3   OH223053   2.588   0.147   2.062  0.1047  0.4733 -0.1648
  521TIP3    H123054   2.614   0.113   1.976  1.7475 -0.0603  0.4826
  521TIP3    H223055   2.646   0.101   2.123 -0.9653  0.9115  1.2183
  522TIP3   OH223056   1.776   3.552   1.289 -0.6969  0.4411  0.6269
  522TIP3    H123057   1.780   3.567   1.194  1.6140  0.0074  0.5910
  522TIP3    H223058   1.713   3.480   1.299 -2.3442  1.6703 -0.3628
  523TIP3   OH223059   3.198   3.019  16.562  0.3011 -0.0711 -0.1589
  523TIP3    H123060   3.195   2.926  16.537 -1.7814 -0.2244  0.4621
  523TIP3    H223061   3.123   3.058  16.518 -1.5255  0.3288  3.0391
  524TIP3   OH223062   2.115   1.255   2.267 -0.3309 -0.0995 -0.1914
  524TIP3    H123063   2.059   1.180   2.246 -1.0072  0.5320 -0.6992
  524TIP3    H223064   2.055   1.318   2.308 -0.0264  0.6484 -0.8783
  525TIP3   OH223065   2.502   4.661  15.398  0.2583  0.0578  0.0189
  525TIP3    H123066   2.452   4.666  15.317 -0.4812  2.1441  0.5378
  525TIP3    H223067   2.475   4.578  15.437  0.6295 -0.9849 -1.8202
  526TIP3   OH223068   1.043   1.474  17.172  0.5700  0.1589  0.3582
  526TIP3    H123069   1.000   1.549  17.131 -0.3202 -1.3204 -1.5832
  526TIP3    H223070   0.985   1.451  17.245  0.5080  0.9618  0.5680
  527TIP3   OH223071   5.155   0.502  15.311 -0.1099 -0.0032 -0.2098
  527TIP3    H123072   5.210   0.581  15.307  1.9872 -1.3770 -0.2701
  527TIP3    H223073   5.137   0.480  15.220 -0.0835  0.0271 -0.2223
  528TIP3   OH223074   5.688   5.854  16.703  0.0335 -0.4907 -0.3939
  528TIP3    H123075   5.660   5.780  16.648 -0.7296 -1.6708  1.5024
  528TIP3    H223076   5.617   5.917  16.696  0.2179 -0.3484 -1.1936
  529TIP3   OH223077   5.322   3.631   5.511 -0.0805  0.1986  0.8962
  529TIP3    H123078   5.353   3.682   5.436 -0.5117  0.9487  1.2131
  529TIP3    H223079   5.256   3.572   5.473 -0.5691  0.8342  0.7285
  530TIP3   OH223080   3.903   6.215  17.382  0.0596  0.6471  0.1582
  530TIP3    H123081   3.924   6.308  17.386 -3.1282  1.5465 -1.0842
  530TIP3    H223082   3.832   6.204  17.445  0.6764 -1.0698  0.6001
  531TIP3   OH223083   0.161   0.778   2.773  0.4390 -0.1070 -0.3435
  531TIP3    H123084   0.176   0.869   2.800 -1.4779  0.2119 -0.2108
  531TIP3    H223085   0.204   0.771   2.688  1.7257  0.5246  0.2218
  532TIP3   OH223086   5.589   1.088  15.940 -0.7923 -1.2651  0.0589
  532TIP3    H123087   5.643   1.106  15.863 -1.3788 -0.3338 -0.1546
  532TIP3    H223088   5.641   1.118  16.014 -2.1234  2.6501 -0.3312
  533TIP3   OH223089   3.721   2.534   6.695  0.3325  0.1239 -0.3972
  533TIP3    H123090   3.774   2.495   6.625 -0.7040 -0.5898 -0.8196
  533TIP3    H223091   3.784   2.579   6.751  1.2513  0.2502 -1.4950
  534TIP3   OH223092   1.075   5.081   2.235 -0.0453  0.3322 -0.2448
  534TIP3    H123093   1.154   5.110   2.188  0.5639  0.0213  0.5706
  534TIP3    H223094   1.072   4.987   2.222  0.4165  0.1651  0.7425
  535TIP3   OH223095   2.841   2.232  12.131  0.2369  0.2344  0.6576
  535TIP3    H123096   2.909   2.186  12.082  0.1231 -0.7894  1.4396
  535TIP3    H223097   2.838   2.319  12.091  1.9409  0.2837  0.5435
  536TIP3   OH223098   3.000   4.993  12.104 -0.1490  0.0220 -0.2290
  536TIP3    H123099   2.921   4.947  12.076 -0.1158  0.3396 -0.8509
  536TIP3    H223100   3.030   5.040  12.026  1.2329 -0.9018 -0.2838
  537TIP3   OH223101   1.671   5.999   2.592  0.3648 -0.1225 -0.6525
  537TIP3    H123102   1.609   5.941   2.549  0.8656 -1.9352  0.9159
  537TIP3    H223103   1.752   5.988   2.542  0.2494 -0.1720 -0.8291
  538TIP3   OH223104   5.610   6.255   5.644  0.2522  0.4884 -0.0864
  538TIP3    H123105   5.673   6.316   5.605  0.7915 -0.2917 -0.4403
  538TIP3    H223106   5.664   6.187   5.684 -0.3406  0.4514  0.6628
  539TIP3   OH223107   2.803   1.819  13.037 -0.2774 -0.6055 -0.5342
  539TIP3    H123108   2.813   1.869  12.956 -1.8709 -2.3290 -1.8859
  539TIP3    H223109   2.768   1.882  13.100  2.8650  1.3025 -0.4574
  540TIP3   OH223110   6.220   4.812  16.721  0.1592 -0.3803 -0.4515
  540TIP3    H123111   6.201   4.759  16.643 -0.2992 -1.9706  0.6942
  540TIP3    H223112   6.308   4.847  16.705  0.2474 -1.0320 -1.4914
  541TIP3   OH223113   6.481   5.654  13.047 -0.3092  0.0129  0.1957
  541TIP3    H123114   6.451   5.717  12.982  0.9531  0.0980 -0.3364
  541TIP3    H223115   6.454   5.569  13.012 -2.4519  0.2290  1.1546
  542TIP3   OH223116   4.666   1.841   3.408  0.0308  0.3690 -0.4013
  542TIP3    H123117   4.678   1.907   3.476  1.4564  0.8977 -1.1308
  542TIP3    H223118   4.646   1.760   3.456  0.5616  0.8257  0.6187
  543TIP3   OH223119   4.794   3.851   6.107 -0.2476  0.3561 -0.0323
  543TIP3    H123120   4.880   3.820   6.136  0.1466  1.0773 -0.4007
  543TIP3    H223121   4.731   3.798   6.156  0.4051  0.0385  0.4748
  544TIP3   OH223122   1.721   5.412   3.242  0.5404 -0.2777  0.3892
  544TIP3    H123123   1.650   5.391   3.302 -0.5651  0.3646 -0.6470
  544TIP3    H223124   1.743   5.328   3.200 -0.7666 -0.2203 -0.4756
  545TIP3   OH223125   0.639   4.884  17.400 -0.0259 -0.2290  0.0295
  545TIP3    H123126   0.619   4.978  17.403 -0.8225 -0.3477 -1.0175
  545TIP3    H223127   0.556   4.841  17.420 -0.4375 -0.7070 -2.3691
  546TIP3   OH223128   3.563   6.375  15.885 -0.6494 -0.2212 -0.0672
  546TIP3    H123129   3.499   6.441  15.858  0.1414  0.5109 -0.2041
  546TIP3    H223130   3.567   6.383  15.981 -1.0634 -0.5539 -0.0223
  547TIP3   OH223131   0.900   2.540   1.984  0.6080  0.2338  0.4889
  547TIP3    H123132   0.814   2.576   1.961  0.3585 -0.9055 -0.4057
  547TIP3    H223133   0.923   2.585   2.066 -0.7132  0.7567  0.6000
  548TIP3   OH223134   5.404   2.577  16.447 -0.6375 -0.1764 -0.4271
  548TIP3    H123135   5.479   2.603  16.500  1.9256 -0.5274 -3.5907
  548TIP3    H223136   5.359   2.659  16.426 -0.7058  0.1239  0.7901
  549TIP3   OH223137   1.724   0.619   2.428  0.3955 -0.4426 -0.1981
  549TIP3    H123138   1.796   0.608   2.490  0.5718  0.5865 -0.1947
  549TIP3    H223139   1.765   0.612   2.342  0.1186 -2.0737 -0.2356
  550TIP3   OH223140   2.760   6.141   3.480 -0.2853  0.2943  0.2647
  550TIP3    H123141   2.833   6.193   3.446  0.1891 -0.0171  0.7867
  550TIP3    H223142   2.786   6.050   3.466  0.3717  0.1148  2.2902
  551TIP3   OH223143   4.852   2.791   0.865  0.3639  0.4994  0.1174
  551TIP3    H123144   4.779   2.807   0.806  0.4860 -0.0481 -0.1925
  551TIP3    H223145   4.930   2.802   0.810  0.4493 -2.1130 -0.4219
  552TIP3   OH223146   2.764   6.051   4.184  0.4289 -0.3232  0.0613
  552TIP3    H123147   2.758   5.976   4.125  0.6736  1.2660 -2.1470
  552TIP3    H223148   2.675   6.063   4.217  0.4112 -1.6061  0.5281
  553TIP3   OH223149   4.413   4.609   1.466  0.0898  0.5585 -0.2458
  553TIP3    H123150   4.330   4.649   1.441  1.1607  3.1038 -0.0353
  553TIP3    H223151   4.478   4.650   1.409  1.2012 -1.8024 -0.8269
  554TIP3   OH223152   1.309   4.155   0.336  0.0074  0.3954 -0.2567
  554TIP3    H123153   1.243   4.161   0.406  2.2104  1.6118  1.8649
  554TIP3    H223154   1.278   4.215   0.269 -1.6160  0.0378  0.1207
  555TIP3   OH223155   2.956   3.445   0.038  0.2227 -0.3529  0.5268
  555TIP3    H123156   3.022   3.436  -0.030 -0.5034 -0.0281 -0.2318
  555TIP3    H223157   2.893   3.376   0.021  0.4321 -0.7622  1.3416
  556TIP3   OH223158   2.462   4.972   1.528  0.1676  0.1106 -0.3637
  556TIP3    H123159   2.551   4.995   1.555 -0.1992  1.5155 -0.2368
  556TIP3    H223160   2.406   5.030   1.580 -0.6172  2.2749 -3.3158
  557TIP3   OH223161   3.567   6.377   0.112 -0.6701 -0.0322 -0.0746
  557TIP3    H123162   3.562   6.387   0.207 -0.0359  0.2432 -0.0685
  557TIP3    H223163   3.530   6.459   0.077  0.4069  0.4852 -0.0480
  558TIP3   OH223164   4.410   3.120  12.933  0.0071 -0.2128 -0.2102
  558TIP3    H123165   4.384   3.151  13.020  0.6444  1.2781 -0.5184
  558TIP3    H223166   4.504   3.133  12.930  0.0085 -0.3718 -1.0878
  559TIP3   OH223167   1.606   4.093   1.165 -0.9598 -0.4118  0.1295
  559TIP3    H123168   1.524   4.060   1.204 -1.8601  3.3778  1.8473
  559TIP3    H223169   1.674   4.061   1.224 -1.6919  0.0772  1.2800
  560TIP3   OH223170   4.894   2.197   4.685  0.1847 -0.1332  0.0868
  560TIP3    H123171   4.981   2.189   4.723  0.1808  1.3498  0.4697
  560TIP3    H223172   4.891   2.130   4.616  1.7777  0.0951 -0.2374
  561TIP3   OH223173   3.101   4.207  16.805  0.0641 -1.1065  0.1061
  561TIP3    H123174   3.173   4.149  16.830  1.0217 -0.2604 -0.6047
  561TIP3    H223175   3.104   4.209  16.709 -0.7679 -0.8799  0.0775
  562TIP3   OH223176   2.979   4.759   5.682  0.1972 -0.2914 -0.0638
  562TIP3    H123177   2.911   4.797   5.737 -0.0766  0.4493 -0.9002
  562TIP3    H223178   3.037   4.832   5.660 -1.3027  0.1299 -3.1639
  563TIP3   OH223179   3.677   0.718   0.276 -0.0967  0.0801  0.1700
  563TIP3    H123180   3.746   0.783   0.265 -0.5881  0.4312 -0.9074
  563TIP3    H223181   3.656   0.689   0.188 -1.1990 -0.1627  0.4982
  564TIP3   OH223182   6.241   3.329  11.144  0.2295 -0.2108  0.1907
  564TIP3    H123183   6.287   3.258  11.098  1.6268 -0.0761  1.3214
  564TIP3    H223184   6.148   3.312  11.127  0.6434 -0.3647 -2.3612
  565TIP3   OH223185   0.525   5.116  16.337 -0.0004  0.5344 -0.1073
  565TIP3    H123186   0.467   5.109  16.261 -1.9408  1.1598  1.2367
  565TIP3    H223187   0.470   5.151  16.407  1.9182  0.7925  1.3915
  566TIP3   OH223188   2.483   1.966   0.461  0.3305  0.2161  0.4272
  566TIP3    H123189   2.512   1.894   0.517  0.4147  0.4654  0.7053
  566TIP3    H223190   2.558   1.985   0.406 -0.3514 -1.3256 -1.1514
  567TIP3   OH223191   2.397   5.996  11.647 -0.3729 -0.5453 -0.2424
  567TIP3    H123192   2.391   5.900  11.650  0.1605 -0.5826 -0.2306
  567TIP3    H223193   2.416   6.022  11.737  1.1107 -0.5654 -0.5136
  568TIP3   OH223194   2.745   6.009  17.280  0.2417 -0.0059 -0.7769
  568TIP3    H123195   2.731   5.938  17.217 -1.1891 -0.6379  0.2134
  568TIP3    H223196   2.761   5.965  17.363  1.5059  0.8337 -0.5402
  569TIP3   OH223197   2.078   6.225  12.077  0.1454  0.4024  0.1572
  569TIP3    H123198   2.078   6.136  12.042  1.5207 -0.5371  2.3325
  569TIP3    H223199   2.116   6.278  12.007 -1.6396 -0.4942 -1.5706
  570TIP3   OH223200   5.304   5.654   1.791  0.3440 -0.0811 -1.0081
  570TIP3    H123201   5.338   5.733   1.833  0.3268 -0.5276 -0.1236
  570TIP3    H223202   5.248   5.687   1.721  0.1325  0.7029 -0.4889
  571TIP3   OH223203   2.738   6.320  12.204  1.0874 -0.7686 -0.0982
  571TIP3    H123204   2.759   6.410  12.229  0.8191 -0.7398  0.0327
  571TIP3    H223205   2.713   6.278  12.287 -0.3328 -0.5325 -0.3785
  572TIP3   OH223206   1.427   0.110  15.065 -0.0969  0.1556  0.2119
  572TIP3    H123207   1.344   0.135  15.024  0.1466  0.6414  0.0059
  572TIP3    H223208   1.494   0.150  15.010  0.3304 -1.2382 -0.3067
  573TIP3   OH223209   6.431   4.973  16.620  0.2780 -0.1286  0.1542
  573TIP3    H123210   6.505   5.018  16.663  0.5698  2.1279 -2.4220
  573TIP3    H223211   6.467   4.943  16.537 -1.1155 -1.1912 -0.0847
  574TIP3   OH223212   1.953   4.719   5.925 -1.0540 -0.2725 -0.1426
  574TIP3    H123213   1.867   4.714   5.966 -0.6855 -0.1036  0.6731
  574TIP3    H223214   1.953   4.802   5.878 -0.9892  0.2050  0.6793
  575TIP3   OH223215   2.758   2.071  17.136 -0.4017  0.0544 -0.1569
  575TIP3    H123216   2.802   2.152  17.163 -0.0404 -0.3549  0.5236
  575TIP3    H223217   2.698   2.051  17.208 -1.1252  0.1776 -0.7201
  576TIP3   OH223218   3.589   3.301  13.344  0.0056 -0.1498 -0.2942
  576TIP3    H123219   3.651   3.268  13.278 -1.0895  0.0313 -1.4554
  576TIP3    H223220   3.523   3.349  13.293 -0.0153  1.3755  1.0986
  577TIP3   OH223221   3.247   2.951   4.762 -0.2566  0.0216 -0.5852
  577TIP3    H123222   3.231   2.882   4.826 -0.7487  0.1739 -0.5376
  577TIP3    H223223   3.321   2.920   4.710  0.0509 -0.1693 -0.0382
  578TIP3   OH223224   1.456   6.390   3.986 -0.0450 -0.0126  0.4936
  578TIP3    H123225   1.526   6.371   4.048  0.6243  1.1855  0.1351
  578TIP3    H223226   1.476   6.477   3.953 -0.9478 -0.2095 -0.6482
  579TIP3   OH223227   2.798   5.734   5.529 -0.2692 -0.6738  0.0291
  579TIP3    H123228   2.795   5.710   5.436 -1.5893  2.8485 -1.0018
  579TIP3    H223229   2.708   5.754   5.552  0.2915  0.3621  1.5155
  580TIP3   OH223230   0.173   2.747  16.326 -0.5561  0.3297  0.0776
  580TIP3    H123231   0.203   2.826  16.371 -1.3927  0.7244 -0.0262
  580TIP3    H223232   0.227   2.742  16.247 -0.3338  0.6677  0.2091
  581TIP3   OH223233   4.056   5.814  15.170 -0.2125 -0.1295  0.2851
  581TIP3    H123234   4.042   5.818  15.075  2.7251  0.3223 -0.2350
  581TIP3    H223235   3.995   5.748  15.201 -1.6055  0.0691 -1.8369
  582TIP3   OH223236   2.945   6.431   1.217  0.2950 -0.4419  0.3750
  582TIP3    H123237   2.993   6.384   1.149  0.9883 -0.6366  0.9784
  582TIP3    H223238   3.007   6.497   1.249 -0.1610 -0.0865  0.5392
  583TIP3   OH223239   1.200   6.612  13.961 -0.5116 -0.0973 -0.0335
  583TIP3    H123240   1.176   6.668  14.035 -0.5490 -0.8001  0.5028
  583TIP3    H223241   1.252   6.542  14.000  1.0691  0.5123 -0.9490
  584TIP3   OH223242   2.163   5.955  13.938 -0.7002  0.0603 -0.1961
  584TIP3    H123243   2.163   5.952  14.033  0.2442  0.4094 -0.1751
  584TIP3    H223244   2.073   5.933  13.913 -0.7157 -0.9870  0.7323
  585TIP3   OH223245   1.564   1.076   3.370  0.3859  0.1783 -1.0587
  585TIP3    H123246   1.556   1.079   3.274  0.3033 -0.1370 -1.0629
  585TIP3    H223247   1.656   1.098   3.387 -0.0173  2.0847 -1.1026
  586TIP3   OH223248   5.648   5.404  14.283  0.5953  0.3943 -0.2382
  586TIP3    H123249   5.594   5.371  14.211  1.2756 -1.6633  0.1155
  586TIP3    H223250   5.624   5.348  14.358  2.8500 -0.3146  0.0260
  587TIP3   OH223251   6.706   6.563  16.789  0.0456 -0.3762 -0.1657
  587TIP3    H123252   6.727   6.610  16.870  1.4423  0.5496 -1.0251
  587TIP3    H223253   6.613   6.582  16.775  0.4846  1.9781 -0.3224
  588TIP3   OH223254   1.391   4.988   5.224  0.4213  0.8016  0.3725
  588TIP3    H123255   1.409   4.952   5.311 -0.6912  1.0713  0.7246
  588TIP3    H223256   1.452   5.061   5.216  0.9061  0.4429  0.7017
  589TIP3   OH223257   3.744   6.508  13.307 -0.3681  0.1058 -0.1073
  589TIP3    H123258   3.769   6.584  13.254  0.6951 -0.0872  0.1034
  589TIP3    H223259   3.808   6.506  13.378  0.1600 -1.4859 -0.5870
  590TIP3   OH223260   3.956   0.810  15.643 -0.1694  0.1353 -0.1563
  590TIP3    H123261   3.885   0.798  15.705  1.0766 -0.8473  1.1301
  590TIP3    H223262   3.957   0.730  15.591  0.9301 -0.5449  0.8570
  591TIP3   OH223263   5.220   1.891  15.199  0.0578 -0.8606  0.2080
  591TIP3    H123264   5.245   1.879  15.107  0.0905  1.6531 -0.2010
  591TIP3    H223265   5.302   1.889  15.247  0.1017 -1.6209  0.1026
  592TIP3   OH223266   5.087   4.514  11.947 -0.2960  0.5767 -0.2003
  592TIP3    H123267   5.153   4.481  11.887  0.6714  1.4544  0.3481
  592TIP3    H223268   5.015   4.542  11.890 -1.4219 -2.8233 -0.6721
  593TIP3   OH223269   6.227   4.118  11.130  0.0674 -0.3363  0.3325
  593TIP3    H123270   6.212   4.167  11.049  3.7079 -0.8471 -0.8308
  593TIP3    H223271   6.237   4.185  11.198 -0.8212  0.2098 -0.0717
  594TIP3   OH223272   1.183   1.923  11.902  0.4430 -0.2616  0.0979
  594TIP3    H123273   1.138   2.007  11.906 -0.4803 -0.7062 -0.5922
  594TIP3    H223274   1.113   1.858  11.916  0.7514 -0.9944 -1.5923
  595TIP3   OH223275   6.182   1.605  14.864 -0.5169  0.9762  0.1614
  595TIP3    H123276   6.263   1.604  14.813 -0.1209 -0.8348  0.7405
  595TIP3    H223277   6.124   1.663  14.815  0.3193  0.4079 -1.6006
  596TIP3   OH223278   1.040   6.274  10.927  0.2311  0.0090 -0.0383
  596TIP3    H123279   1.038   6.179  10.921 -1.5640 -0.0471  0.7324
  596TIP3    H223280   1.029   6.304  10.836 -0.4977 -0.5490 -0.1471
  597TIP3   OH223281   0.099   1.381   2.458  0.6380  0.2406  0.3065
  597TIP3    H123282   0.186   1.346   2.478 -0.3623 -1.6989  1.6258
  597TIP3    H223283   0.065   1.411   2.542  0.0333  1.0116 -0.1959
  598TIP3   OH223284   2.324   3.844   2.637  0.0912  0.0031 -0.3575
  598TIP3    H123285   2.390   3.891   2.688  0.0366  0.4873 -0.7262
  598TIP3    H223286   2.251   3.906   2.630  0.0038 -0.1507 -0.8217
  599TIP3   OH223287   4.183   3.283   5.543 -0.3992  0.3285 -0.7091
  599TIP3    H123288   4.250   3.228   5.583 -1.7009 -0.5180  0.4020
  599TIP3    H223289   4.151   3.338   5.615 -0.9884  0.6358 -1.1928
  600TIP3   OH223290   5.711   3.732   1.337 -0.2071  0.3240  0.1296
  600TIP3    H123291   5.749   3.806   1.384  0.6274 -0.7217  1.1284
  600TIP3    H223292   5.744   3.742   1.247  2.7277 -0.6708  0.9889
  601TIP3   OH223293   6.714   4.918  12.096  0.5605  0.2240 -0.0346
  601TIP3    H123294   6.628   4.949  12.068  0.9397  1.0471 -0.3143
  601TIP3    H223295   6.760   4.898  12.014  0.5910 -0.3389  0.1182
  602TIP3   OH223296   1.787   1.265  17.313 -0.3327 -0.0383  0.4224
  602TIP3    H123297   1.798   1.345  17.364  0.7874 -0.9640  1.7122
  602TIP3    H223298   1.866   1.260  17.259  0.1783 -0.8787  1.2383
  603TIP3   OH223299   0.658   2.831   0.961 -0.1209 -0.0112  0.2295
  603TIP3    H123300   0.609   2.752   0.939  0.6421 -0.8085  1.3219
  603TIP3    H223301   0.741   2.822   0.915 -0.5652  0.8630 -0.7993
  604TIP3   OH223302   6.478   2.426  11.271 -0.5610  0.6387 -0.0010
  604TIP3    H123303   6.481   2.347  11.325  1.5184  0.2111 -0.6452
  604TIP3    H223304   6.385   2.451  11.270 -1.2048 -1.4856  0.6528
  605TIP3   OH223305   5.908   1.469  12.260  0.3304 -0.2160 -0.2387
  605TIP3    H123306   5.843   1.492  12.194  0.1631 -1.3107 -0.4822
  605TIP3    H223307   5.903   1.373  12.265  1.1238 -0.2233  0.5602
  606TIP3   OH223308   3.003   5.922  17.683 -0.7044  0.7323  0.2215
  606TIP3    H123309   3.042   5.980  17.748  0.2461  1.5307 -1.0268
  606TIP3    H223310   2.938   5.976  17.638 -1.9710 -0.0586  1.0401
  607TIP3   OH223311   5.455   5.206  14.566 -0.0565  0.2176 -0.1740
  607TIP3    H123312   5.493   5.118  14.574 -0.7021  0.0049  0.8561
  607TIP3    H223313   5.386   5.207  14.632  0.0179  1.5474 -0.1013
  608TIP3   OH223314   4.393   4.516   0.740  0.2160  0.0031 -0.2518
  608TIP3    H123315   4.314   4.469   0.770 -1.0927  1.9195 -0.4931
  608TIP3    H223316   4.375   4.608   0.761  1.4955  0.7571 -2.2026
  609TIP3   OH223317   3.405   5.117   2.956 -0.4855  0.0088  0.1904
  609TIP3    H123318   3.322   5.094   2.998 -0.2198  1.2162  1.4764
  609TIP3    H223319   3.401   5.077   2.869 -1.2780 -2.2038  1.1802
  610TIP3   OH223320   6.319   0.160   2.263 -0.2401 -0.3337 -0.0535
  610TIP3    H123321   6.230   0.128   2.272 -0.2075 -0.6764 -0.9449
  610TIP3    H223322   6.330   0.220   2.337 -0.5803 -1.7120  1.1684
  611TIP3   OH223323   4.146   0.606  13.927 -0.6520  0.3935  0.2552
  611TIP3    H123324   4.186   0.655  13.855  1.3271 -0.2502  0.8624
  611TIP3    H223325   4.220   0.574  13.978 -1.9526 -1.2489  1.1960
  612TIP3   OH223326   5.317   5.872  12.652  0.5016  0.2611  0.0152
  612TIP3    H123327   5.282   5.792  12.692  2.0173 -0.4438 -0.0005
  612TIP3    H223328   5.336   5.847  12.561  0.3140  0.8610 -0.1972
  613TIP3   OH223329   1.993   4.894  12.386  0.0052 -0.1795 -0.5271
  613TIP3    H123330   2.000   4.927  12.296  1.6675  1.2026  0.0654
  613TIP3    H223331   1.920   4.832  12.383  0.4996 -0.7305 -2.9917
  614TIP3   OH223332   1.421   1.747   4.514  0.1366  0.7650  0.3188
  614TIP3    H123333   1.331   1.776   4.498  0.4829  1.3273 -0.7236
  614TIP3    H223334   1.444   1.785   4.599 -0.1316  1.8126 -0.0649
  615TIP3   OH223335   4.891   5.373  14.614  0.1619  0.5094  0.3700
  615TIP3    H123336   4.854   5.358  14.701 -0.1960  1.3617  0.3712
  615TIP3    H223337   4.861   5.298  14.562 -0.8329  0.7259  0.6045
  616TIP3   OH223338   3.746   5.336   5.794  0.1954 -0.1958 -0.2184
  616TIP3    H123339   3.784   5.400   5.855  1.3081 -1.3622  0.3593
  616TIP3    H223340   3.694   5.278   5.850 -1.7373  0.8110 -0.8781
  617TIP3   OH223341   6.103   2.696   2.357  0.5129  0.0110  0.0366
  617TIP3    H123342   6.021   2.689   2.405  0.6156  1.2772  0.4379
  617TIP3    H223343   6.095   2.633   2.285 -1.0724  0.5753 -0.3130
  618TIP3   OH223344   4.953   4.778  17.299 -0.3909  0.2598 -0.1192
  618TIP3    H123345   4.977   4.686  17.301 -2.5963 -0.3627  0.3674
  618TIP3    H223346   4.914   4.791  17.212 -0.1406  0.7261 -0.1658
  619TIP3   OH223347   3.651   1.702  12.433 -0.5021 -0.0220  0.2434
  619TIP3    H123348   3.674   1.769  12.497 -0.0393  1.1292 -1.0663
  619TIP3    H223349   3.560   1.722  12.409 -1.2072 -1.4016  1.6377
  620TIP3   OH223350   0.018   0.930  15.332  0.3316  0.1983 -0.2581
  620TIP3    H123351  -0.033   0.938  15.412 -0.6661  0.4369 -0.9003
  620TIP3    H223352   0.077   1.005  15.334  2.3933 -1.3604  1.6467
  621TIP3   OH223353   6.095   1.851  16.573  0.1825  0.6258 -0.0267
  621TIP3    H123354   6.041   1.795  16.518 -0.0430  0.2353  0.5739
  621TIP3    H223355   6.167   1.795  16.602 -0.5217  0.3669  1.2968
  622TIP3   OH223356   5.132   0.637  12.188 -0.4517  0.0112 -0.0206
  622TIP3    H123357   5.146   0.544  12.207 -1.1068 -0.2979 -0.9667
  622TIP3    H223358   5.042   0.654  12.217  0.3868  0.9352  2.2131
  623TIP3   OH223359   2.309   4.502  13.523  0.4672  0.2038 -0.0701
  623TIP3    H123360   2.297   4.408  13.533 -0.3965  0.4705  1.8569
  623TIP3    H223361   2.393   4.520  13.565  0.8788  0.2216 -0.9020
  624TIP3   OH223362   2.297   2.489   0.077  0.0911  0.0809 -0.5538
  624TIP3    H123363   2.319   2.576   0.045  0.0487  0.1747 -0.3276
  624TIP3    H223364   2.232   2.504   0.146 -1.0034 -0.2191 -1.4974
  625TIP3   OH223365   0.279   5.544  14.180 -0.3580 -0.3717 -0.3281
  625TIP3    H123366   0.338   5.490  14.232  0.2391  0.0006 -0.6038
  625TIP3    H223367   0.337   5.608  14.138 -0.6039 -1.4702 -2.5029
  626TIP3   OH223368   0.741   5.601  17.330  0.1976 -0.1550  0.4147
  626TIP3    H123369   0.689   5.671  17.290  0.9528 -0.8055 -1.8479
  626TIP3    H223370   0.676   5.543  17.369 -0.6544  0.0475 -0.6660
  627TIP3   OH223371   2.464   6.390   0.777 -0.1635  0.1923  0.1987
  627TIP3    H123372   2.518   6.345   0.712 -1.0968  0.7402 -0.9816
  627TIP3    H223373   2.437   6.471   0.734  0.2553  1.1945  1.7470
  628TIP3   OH223374   3.952   3.309   0.311 -0.1880  0.2279 -0.5115
  628TIP3    H123375   3.999   3.361   0.246  2.1495  0.0670  0.9167
  628TIP3    H223376   4.006   3.315   0.390 -0.4071 -3.2909  0.0902
  629TIP3   OH223377   3.091   6.666  17.267 -0.4561 -0.2451  0.6761
  629TIP3    H123378   3.074   6.662  17.172  1.8903  1.6189  0.0927
  629TIP3    H223379   3.058   6.583  17.300 -1.8979 -0.7120 -1.6602
  630TIP3   OH223380   0.058   4.621   1.842  0.0055 -0.4796  0.1545
  630TIP3    H123381   0.027   4.556   1.779 -2.5046  0.1654  0.6380
  630TIP3    H223382  -0.005   4.619   1.913  0.4702  1.7064  0.7209
  631TIP3   OH223383   5.899   2.500   1.380  0.0448 -0.4564  0.3372
  631TIP3    H123384   5.984   2.521   1.340  0.5633 -0.2533  1.5057
  631TIP3    H223385   5.869   2.583   1.416 -0.1523 -0.7511  0.8520
  632TIP3   OH223386   1.420   3.968   2.360  0.5100  0.0254 -0.3286
  632TIP3    H123387   1.355   3.909   2.399 -0.7486  0.8496 -1.0743
  632TIP3    H223388   1.402   3.964   2.266  1.7434  0.0632 -0.5725
  633TIP3   OH223389   4.867   5.785  13.995  0.5589  0.0438  0.0174
  633TIP3    H123390   4.882   5.701  13.953 -1.3172 -1.4772  2.1400
  633TIP3    H223391   4.923   5.784  14.072  0.2233  0.5566  0.2801
  634TIP3   OH223392   0.939   6.496   0.980  0.5542  0.2564 -0.4047
  634TIP3    H123393   1.008   6.431   0.968  0.8452  0.3359  0.7291
  634TIP3    H223394   0.960   6.539   1.064 -0.3026  0.9787 -0.5392
  635TIP3   OH223395   5.890   5.200  14.397  0.3234  0.2444 -0.0629
  635TIP3    H123396   5.850   5.171  14.315  0.7409 -0.7162  0.0548
  635TIP3    H223397   5.953   5.267  14.371 -0.4741  0.8838 -0.3768
  636TIP3   OH223398   3.474   4.738   5.988  0.4006 -0.5591 -0.1194
  636TIP3    H123399   3.507   4.661   5.943 -0.2792  0.2238 -2.0468
  636TIP3    H223400   3.463   4.804   5.919 -2.9184 -0.0379  0.7280
  637TIP3   OH223401   1.564   0.212  16.532  0.0243  0.1252  0.4601
  637TIP3    H123402   1.617   0.287  16.561  3.3971 -1.0271 -2.1177
  637TIP3    H223403   1.553   0.159  16.611 -1.4281  2.5738  2.0817
  638TIP3   OH223404   1.047   6.169  17.167  0.2524 -0.9121  0.7788
  638TIP3    H123405   1.117   6.198  17.109 -1.5425 -0.9830 -1.5633
  638TIP3    H223406   1.018   6.249  17.212  1.4134 -0.7924  1.3548
  639TIP3   OH223407   1.459   2.844   0.925 -0.9809  0.1690 -0.6881
  639TIP3    H123408   1.514   2.775   0.890 -1.0401 -0.1244 -0.2149
  639TIP3    H223409   1.378   2.800   0.953 -0.2514  0.0688  1.4459
  640TIP3   OH223410   5.258   1.425   2.080 -0.4065  0.6182 -0.0874
  640TIP3    H123411   5.309   1.420   2.160  0.8982  0.4943 -0.8930
  640TIP3    H223412   5.247   1.519   2.064 -0.7689  0.6399  0.2998
  641TIP3   OH223413   0.945   4.205  16.270 -0.3720  0.2862  0.0684
  641TIP3    H123414   0.997   4.151  16.329 -1.6361 -0.3065  0.6895
  641TIP3    H223415   0.992   4.289  16.266 -1.0690  0.9739  3.2721
  642TIP3   OH223416   0.834   1.521  16.556 -0.3255 -0.0850  0.8356
  642TIP3    H123417   0.908   1.534  16.615 -0.3100  0.0752  0.7795
  642TIP3    H223418   0.872   1.479  16.479 -0.5279 -1.3795  1.4118
  643TIP3   OH223419   1.285   5.366   5.755  0.6926 -0.8021  0.4123
  643TIP3    H123420   1.371   5.403   5.777  0.3599 -0.2397  0.8075
  643TIP3    H223421   1.270   5.393   5.665  0.0822  0.8011  0.9560
  644TIP3   OH223422   2.369   6.020  17.589  0.2144  0.1061 -0.6028
  644TIP3    H123423   2.305   6.063  17.645 -0.8124 -1.9695 -0.0726
  644TIP3    H223424   2.449   6.072  17.598 -0.8050  1.5674  0.3379
  645TIP3   OH223425   6.118   1.162  16.227 -0.0138  0.3643  0.1675
  645TIP3    H123426   6.161   1.160  16.313 -0.0610  0.1663  0.1878
  645TIP3    H223427   6.138   1.249  16.192 -0.6671  0.7470  0.7232
  646TIP3   OH223428   5.637   3.361  12.970 -0.9350  0.7290 -0.3445
  646TIP3    H123429   5.665   3.407  13.048 -1.9748 -0.3258  0.7080
  646TIP3    H223430   5.637   3.427  12.901  1.4919  1.3291  0.1693
  647TIP3   OH223431   4.721   3.309   5.955  0.3895  0.2245 -0.5033
  647TIP3    H123432   4.756   3.287   6.041 -1.2235  0.5478  0.2538
  647TIP3    H223433   4.759   3.394   5.934  0.6539  0.2192 -0.0439
  648TIP3   OH223434   0.898   3.215   5.393 -0.5388 -0.3642  0.3249
  648TIP3    H123435   0.949   3.201   5.314 -1.3551 -2.0008  0.0464
  648TIP3    H223436   0.808   3.229   5.362 -0.4836  1.4501  0.8546
  649TIP3   OH223437   5.872   4.205   0.990 -0.2419 -0.1202 -0.3459
  649TIP3    H123438   5.791   4.253   0.973 -0.9261 -1.2025 -0.2740
  649TIP3    H223439   5.941   4.257   0.948 -0.7325  1.6075  0.8721
  650TIP3   OH223440   1.282   4.757   2.325 -0.3323 -0.8870 -0.6952
  650TIP3    H123441   1.321   4.787   2.407 -1.2556  1.0206 -0.8845
  650TIP3    H223442   1.356   4.730   2.272  0.4557 -0.3318  0.0850
  651TIP3   OH223443   5.783   1.755  13.958 -0.3525  0.3772 -0.2512
  651TIP3    H123444   5.804   1.769  13.866  2.6375  0.1036  0.2681
  651TIP3    H223445   5.851   1.694  13.989 -0.1231  1.8673  2.5239
  652TIP3   OH223446   4.236   2.619  15.538  0.0849 -0.1328 -0.1467
  652TIP3    H123447   4.308   2.567  15.501 -0.0024 -0.4840  0.1684
  652TIP3    H223448   4.158   2.587  15.494 -0.0901 -0.9358  0.7189
  653TIP3   OH223449   4.695   6.517  11.588 -0.4680 -0.2293  0.1351
  653TIP3    H123450   4.605   6.515  11.556 -0.1170 -2.0510 -0.8902
  653TIP3    H223451   4.730   6.600  11.557 -1.7584  0.4840  0.4959
  654TIP3   OH223452   1.499   1.772  16.588 -0.1855  0.3801 -0.1933
  654TIP3    H123453   1.443   1.810  16.656 -0.7360  0.1425 -0.4993
  654TIP3    H223454   1.450   1.788  16.507  0.7941  1.2989 -0.6266
  655TIP3   OH223455   3.256   4.434   2.758 -0.7892  0.6274  0.8822
  655TIP3    H123456   3.265   4.339   2.767  0.9661  0.7372  0.6972
  655TIP3    H223457   3.215   4.446   2.672 -0.9180  0.0330  0.8546
  656TIP3   OH223458   5.841   4.685   0.237 -0.5321  0.5254 -0.0698
  656TIP3    H123459   5.813   4.665   0.147 -0.5721  1.2037 -0.2146
  656TIP3    H223460   5.846   4.600   0.280  1.9075 -0.0725 -1.3961
  657TIP3   OH223461   4.500   5.022   3.296 -0.0848 -0.0751 -0.3387
  657TIP3    H123462   4.514   5.116   3.305 -1.4452  0.0976  0.2366
  657TIP3    H223463   4.586   4.987   3.276  0.4892  1.2631 -0.3345
  658TIP3   OH223464   3.813   0.601  17.338  0.1317  0.4391 -0.7121
  658TIP3    H123465   3.887   0.558  17.383 -0.8766 -1.7489 -1.0261
  658TIP3    H223466   3.855   0.659  17.275  1.5784  1.4074  1.0220
  659TIP3   OH223467   0.462   6.680  14.262  0.5847 -0.2693 -0.2351
  659TIP3    H123468   0.512   6.737  14.204  1.2018 -2.8571 -2.4225
  659TIP3    H223469   0.482   6.591  14.233 -1.4770 -1.6136  2.0210
  660TIP3   OH223470   3.922   4.021  17.189  0.3664  0.4683  0.6774
  660TIP3    H123471   3.856   4.088  17.169  0.4150  0.9245  1.9608
  660TIP3    H223472   3.871   3.944  17.214  0.3015 -0.1520 -1.1819
  661TIP3   OH223473   0.920   5.719  16.875  0.0472  0.1549 -0.0811
  661TIP3    H123474   0.880   5.644  16.920  0.4679  0.4356  0.7732
  661TIP3    H223475   0.857   5.790  16.885 -0.5233 -0.1684 -1.2152
  662TIP3   OH223476   3.532   5.302  13.005  0.3552  0.3015  0.5598
  662TIP3    H123477   3.573   5.261  12.928 -1.8932 -0.6053 -0.2260
  662TIP3    H223478   3.482   5.375  12.969 -0.1735  0.2869  1.2605
  663TIP3   OH223479   6.572   5.240  12.235 -0.0753  0.2165 -0.0459
  663TIP3    H123480   6.586   5.301  12.308 -2.3763  1.1494 -0.3020
  663TIP3    H223481   6.614   5.281  12.160  0.1778  0.4729  0.2334
  664TIP3   OH223482   2.700   5.647   3.330  0.2595 -0.1407  0.4751
  664TIP3    H123483   2.731   5.680   3.245  0.3528 -0.1643  0.5000
  664TIP3    H223484   2.701   5.552   3.320  1.1275 -0.1721  0.8065
  665TIP3   OH223485   1.351   2.862   4.710  0.2905  0.3250  0.0118
  665TIP3    H123486   1.352   2.769   4.734  0.4076  0.4121  0.3618
  665TIP3    H223487   1.271   2.896   4.749 -0.8416 -0.0554 -1.8620
  666TIP3   OH223488   2.377   0.213   0.779  0.5514  0.0981 -0.0631
  666TIP3    H123489   2.447   0.211   0.714 -0.0997  0.6689 -0.7860
  666TIP3    H223490   2.408   0.276   0.844  0.4451  0.8019 -0.6865
  667TIP3   OH223491   6.704   6.651   3.904 -0.1099 -0.3805 -0.0020
  667TIP3    H123492   6.695   6.669   3.997  1.5235 -0.3342  0.1774
  667TIP3    H223493   6.740   6.731   3.867 -0.7895 -0.3826 -0.6874
  668TIP3   OH223494   1.833   0.515   5.281 -0.2428 -0.1087  0.2898
  668TIP3    H123495   1.814   0.516   5.187 -2.0026 -0.3806  0.6035
  668TIP3    H223496   1.827   0.607   5.308 -1.9338 -0.2446  0.4951
  669TIP3   OH223497   5.915   1.023  13.373  0.2176 -0.0803  0.0949
  669TIP3    H123498   5.879   1.074  13.446 -1.4880 -0.6945 -0.2765
  669TIP3    H223499   5.865   0.942  13.374 -2.2892  1.1796 -3.7777
  670TIP3   OH223500   1.697   0.755   4.364 -0.3418 -0.1154  0.0891
  670TIP3    H123501   1.608   0.760   4.399  0.2164  0.6440  1.4646
  670TIP3    H223502   1.700   0.671   4.318 -1.5009 -0.5507  0.7738
  671TIP3   OH223503   3.399   3.457  16.906  0.2010  0.1869  0.1079
  671TIP3    H123504   3.478   3.428  16.859  0.1766 -0.7789  0.6360
  671TIP3    H223505   3.430   3.476  16.994  0.1392  1.4404 -0.1264
  672TIP3   OH223506   4.061   1.269  12.399  0.3557  0.4927 -0.0373
  672TIP3    H123507   4.024   1.332  12.461 -0.4125 -0.6695  0.7422
  672TIP3    H223508   4.018   1.288  12.316 -0.3109  0.6153  0.3331
  673TIP3   OH223509   1.701   5.590  17.400 -0.9033 -0.2324  0.9208
  673TIP3    H123510   1.647   5.513  17.383 -0.8795  0.0413 -0.5649
  673TIP3    H223511   1.703   5.636  17.316 -1.3091  1.6475  1.9032
  674TIP3   OH223512   1.035   3.554   1.585  0.0305 -0.4363 -0.5338
  674TIP3    H123513   1.131   3.549   1.587  0.0658  0.1830  2.0568
  674TIP3    H223514   1.016   3.647   1.598 -0.8940 -0.8625  1.4532
  675TIP3   OH223515   2.781   6.120  14.321  0.4414  0.7083  0.2580
  675TIP3    H123516   2.693   6.083  14.309  1.1044 -0.8975  0.0631
  675TIP3    H223517   2.802   6.101  14.413  0.8599  0.4503  0.1097
  676TIP3   OH223518   4.347   2.502   5.458 -0.3001  0.1321 -0.1460
  676TIP3    H123519   4.376   2.534   5.544  1.4039 -0.2102 -0.5683
  676TIP3    H223520   4.401   2.550   5.395 -2.0834  0.9784 -1.1125
  677TIP3   OH223521   1.630   1.513   2.225  0.0868 -0.4472 -0.4617
  677TIP3    H123522   1.687   1.467   2.288  0.7268  1.3343  0.3272
  677TIP3    H223523   1.544   1.513   2.267  0.0375 -1.0482 -0.5496
  678TIP3   OH223524   5.954   1.179   3.086 -0.4774 -0.6856  0.0701
  678TIP3    H123525   5.919   1.140   3.006 -1.6021 -2.1288  1.2051
  678TIP3    H223526   5.896   1.147   3.155  0.3672  0.6514  1.4460
  679TIP3   OH223527   2.759   2.036   5.400  0.2055 -0.1316 -0.6847
  679TIP3    H123528   2.691   2.082   5.351 -0.0854 -0.9640 -1.0853
  679TIP3    H223529   2.757   1.947   5.365 -0.7682 -1.0819  1.6060
  680TIP3   OH223530   0.035   5.068   6.185  0.5551  0.5330  0.1457
  680TIP3    H123531   0.037   5.113   6.269  1.1635  0.8079 -0.0157
  680TIP3    H223532   0.027   4.975   6.208 -1.5731  0.7471  0.4661
  681TIP3   OH223533   3.025   4.925  13.472 -0.4353  0.2448  0.1575
  681TIP3    H123534   3.004   4.854  13.410  0.5578  0.6365 -0.6556
  681TIP3    H223535   3.011   4.886  13.558 -0.5489 -0.7375 -0.2890
  682TIP3   OH223536   4.403   5.183   2.292  0.0697  0.0819  0.0996
  682TIP3    H123537   4.443   5.271   2.293 -0.9959  0.7677  4.3659
  682TIP3    H223538   4.476   5.124   2.314  0.5449 -0.0111 -1.6006
  683TIP3   OH223539   0.633   1.792   6.109 -0.1405  0.0791 -0.2171
  683TIP3    H123540   0.642   1.845   6.188  0.2169 -1.3833  0.7674
  683TIP3    H223541   0.660   1.704   6.136 -0.1048 -0.4805 -1.9458
  684TIP3   OH223542   2.333   0.837   1.599 -0.0008 -0.4369  0.3674
  684TIP3    H123543   2.306   0.896   1.670 -0.3809  1.1057 -0.9939
  684TIP3    H223544   2.253   0.789   1.578 -0.2268  0.0367  0.1290
  685TIP3   OH223545   5.034   1.147   6.318  0.4088 -0.3198  0.3088
  685TIP3    H123546   5.050   1.069   6.372 -1.1195  0.5735  2.1527
  685TIP3    H223547   5.121   1.184   6.303  0.9020 -0.7497  1.9544
  686TIP3   OH223548   0.251   3.006  13.779  0.1293 -0.2237 -0.2832
  686TIP3    H123549   0.336   3.034  13.744  0.4029 -1.4187 -0.6389
  686TIP3    H223550   0.187   3.063  13.736  0.6094 -0.5003 -1.4167
  687TIP3   OH223551   4.466   3.255   4.224 -0.1223 -0.1860 -0.8109
  687TIP3    H123552   4.514   3.333   4.196  0.1792  0.4008  1.2231
  687TIP3    H223553   4.528   3.207   4.279 -0.3675 -1.8085 -1.8689
  688TIP3   OH223554   1.123   6.600  17.246 -0.1497 -0.3523  0.3124
  688TIP3    H123555   1.079   6.580  17.164  1.2298  0.2134 -0.5943
  688TIP3    H223556   1.167   6.683  17.231  0.8241 -0.6530  1.3408
  689TIP3   OH223557   3.204   5.546  12.262  0.3292 -0.3351 -0.3500
  689TIP3    H123558   3.213   5.639  12.244  1.3784 -0.0454  1.3781
  689TIP3    H223559   3.278   5.505  12.216  0.5962 -0.1455 -0.0914
  690TIP3   OH223560   2.441   0.431  13.400  0.2804 -0.0005 -0.2475
  690TIP3    H123561   2.397   0.473  13.473  3.6571  0.6366  1.6592
  690TIP3    H223562   2.470   0.504  13.344  2.0165 -0.0281  0.5360
  691TIP3   OH223563   5.434   4.652   2.448 -0.3332 -0.7395 -0.5162
  691TIP3    H123564   5.371   4.631   2.518 -0.9088  0.7160 -0.5762
  691TIP3    H223565   5.463   4.741   2.467  0.8742 -0.9705 -1.1432
  692TIP3   OH223566   2.011   2.888  12.530  0.3244  0.1209  0.5468
  692TIP3    H123567   2.007   2.930  12.444 -2.6020  0.5295  0.7774
  692TIP3    H223568   1.973   2.801  12.517 -1.4245  0.6646  1.5825
  693TIP3   OH223569   5.506   0.426  17.332 -0.1154 -0.3373  0.3191
  693TIP3    H123570   5.455   0.420  17.250  1.9323  3.0146 -1.4455
  693TIP3    H223571   5.484   0.513  17.366  3.4148  0.8317  0.0213
  694TIP3   OH223572   2.244   3.559  15.631 -0.1480 -0.4204  0.0179
  694TIP3    H123573   2.322   3.539  15.579  1.2579  2.4933  0.7681
  694TIP3    H223574   2.177   3.582  15.567 -0.6654 -3.4155 -0.6639
  695TIP3   OH223575   5.816   6.378  11.991 -0.3526 -0.1520 -0.3338
  695TIP3    H123576   5.862   6.299  11.965 -0.4163 -0.1658 -0.4052
  695TIP3    H223577   5.762   6.352  12.065  0.8438  0.1930  0.6886
  696TIP3   OH223578   5.270   5.337  13.324 -0.2672  0.0629 -0.0233
  696TIP3    H123579   5.340   5.323  13.260 -0.2598  0.5804 -0.1352
  696TIP3    H223580   5.305   5.305  13.407  0.5603  1.3783  0.1673
  697TIP3   OH223581   4.759   1.372   4.210 -0.0242  0.4797 -0.7309
  697TIP3    H123582   4.797   1.332   4.288 -2.8947 -0.2898  0.4208
  697TIP3    H223583   4.761   1.302   4.144 -0.0188  0.2481 -0.4861
  698TIP3   OH223584   5.023   1.175  15.621 -0.2033 -0.6273  0.2974
  698TIP3    H123585   4.928   1.161  15.623  0.1071 -3.0859  1.5197
  698TIP3    H223586   5.058   1.094  15.583  1.3828  0.7561 -1.3589
  699TIP3   OH223587   1.509   5.790  14.797  0.5910  0.0276  0.6573
  699TIP3    H123588   1.558   5.800  14.879 -0.8852  3.3330  1.3046
  699TIP3    H223589   1.533   5.867  14.745 -2.4571  0.8860  0.2962
  700TIP3   OH223590   3.363   4.197   6.133 -0.2045 -0.3893  0.0724
  700TIP3    H123591   3.322   4.255   6.069 -1.1307 -1.0411  0.0504
  700TIP3    H223592   3.289   4.155   6.178  0.4419 -0.8651  0.7102
  701TIP3   OH223593   6.330   2.332  15.238 -0.2710  0.5515 -0.1894
  701TIP3    H123594   6.301   2.247  15.271  1.2168  0.1119  0.0309
  701TIP3    H223595   6.292   2.395  15.299 -1.8066  0.1176 -0.6348
  702TIP3   OH223596   0.302   0.520  14.522  0.3681  0.1806  0.3705
  702TIP3    H123597   0.256   0.600  14.545  0.4262 -0.1499  1.7248
  702TIP3    H223598   0.235   0.452  14.521  0.5770 -0.0470  0.9467
  703TIP3   OH223599   5.275   0.931   3.893 -0.3080  0.2248  0.2398
  703TIP3    H123600   5.282   0.958   3.801 -2.7465  0.0938 -0.0586
  703TIP3    H223601   5.181   0.920   3.907  0.1721 -2.4375  2.0070
  704TIP3   OH223602   0.281   6.218  17.639 -0.8361  0.5845 -0.7208
  704TIP3    H123603   0.326   6.271  17.572 -0.6343  1.7069  0.2681
  704TIP3    H223604   0.350   6.163  17.676 -0.9167  0.0705 -1.3266
  705TIP3   OH223605   1.295   5.910  13.221 -0.1665 -0.0712  0.4982
  705TIP3    H123606   1.316   5.948  13.136  1.9990 -0.0449  0.9776
  705TIP3    H223607   1.250   5.980  13.268 -0.2957  0.3334 -0.2088
  706TIP3   OH223608   1.990   0.339  12.834  0.2004 -0.8621 -1.0994
  706TIP3    H123609   2.027   0.265  12.881 -0.5107 -0.8363 -0.4951
  706TIP3    H223610   1.955   0.302  12.753 -1.6146 -1.4743 -0.0752
  707TIP3   OH223611   3.052   0.284  12.905 -0.0904 -0.1511 -0.2010
  707TIP3    H123612   3.023   0.266  12.816 -0.7934 -0.0123 -0.0038
  707TIP3    H223613   3.037   0.377  12.917 -1.7893 -0.5070  0.6926
  708TIP3   OH223614   4.247   2.042   1.484  0.3196  0.2056 -0.2189
  708TIP3    H123615   4.288   2.126   1.465  0.5205  0.1995  0.1643
  708TIP3    H223616   4.259   2.031   1.579  1.1630 -0.7051 -0.4154
  709TIP3   OH223617   4.901   3.530   3.494 -0.2116  0.0118 -0.0840
  709TIP3    H123618   4.862   3.596   3.551  0.4554 -0.2730  0.7332
  709TIP3    H223619   4.831   3.503   3.435 -0.9578  0.2263  0.6979
  710TIP3   OH223620   0.401   3.308  17.595  0.1545  0.5278  0.0654
  710TIP3    H123621   0.337   3.265  17.652  0.8367 -0.4534  0.1242
  710TIP3    H223622   0.350   3.337  17.519 -0.1588 -1.5502 -0.5808
  711TIP3   OH223623   0.056   1.838  17.121 -0.1122  0.0551 -0.0731
  711TIP3    H123624   0.132   1.796  17.081 -0.2861  1.3652 -1.9291
  711TIP3    H223625  -0.019   1.784  17.094  0.0454 -0.7226  0.9967
  712TIP3   OH223626   5.730   0.977   4.168 -0.3928  0.4607  0.3249
  712TIP3    H123627   5.762   0.890   4.189  0.7038  0.7565 -0.0991
  712TIP3    H223628   5.782   1.006   4.093 -1.2704  1.1754 -0.0315
  713TIP3   OH223629   0.323   0.929  12.579 -0.0110 -0.1144  0.2885
  713TIP3    H123630   0.256   0.951  12.645  1.3330 -0.8086  1.9677
  713TIP3    H223631   0.300   0.841  12.550  0.0474 -0.2712  0.7086
  714TIP3   OH223632   1.015   3.420  11.060 -0.1422  0.1496  0.3268
  714TIP3    H123633   0.992   3.512  11.069  0.0885  0.3000 -0.4890
  714TIP3    H223634   1.090   3.420  11.000 -0.5902 -0.6069 -0.2572
  715TIP3   OH223635   0.912   2.509   4.756  0.3586  0.5069 -0.2096
  715TIP3    H123636   0.946   2.573   4.820 -0.2532  1.2834 -0.6450
  715TIP3    H223637   0.875   2.439   4.809 -1.3102  1.7482  0.3465
  716TIP3   OH223638   5.448   4.770   4.400  0.3872  0.0627  0.1625
  716TIP3    H123639   5.470   4.853   4.444  0.0143 -0.6771  1.8047
  716TIP3    H223640   5.472   4.785   4.309  0.7388  1.8352  0.5021
  717TIP3   OH223641   1.629   6.458   0.216 -0.1887  0.1677 -0.6079
  717TIP3    H123642   1.698   6.458   0.282 -0.8971  1.5207  0.1765
  717TIP3    H223643   1.639   6.374   0.171  2.5669  0.6879 -1.1563
  718TIP3   OH223644   6.345   6.487   2.179 -0.1906  0.0317  0.0695
  718TIP3    H123645   6.419   6.528   2.135  0.2158  0.0279  0.7324
  718TIP3    H223646   6.383   6.446   2.257 -0.8925  0.0560  0.4344
  719TIP3   OH223647   4.971   6.449  16.581  0.0576  1.0960  0.1238
  719TIP3    H123648   4.943   6.442  16.672  0.1193  1.4113  0.1670
  719TIP3    H223649   5.019   6.531  16.576 -0.9865  1.6887 -0.4575
  720TIP3   OH223650   5.339   0.233  13.795 -0.5743  0.0136  0.0577
  720TIP3    H123651   5.316   0.271  13.711  0.5090  0.2267 -0.1545
  720TIP3    H223652   5.314   0.141  13.787 -0.1229 -0.0533 -0.6395
  721TIP3   OH223653   0.122   0.655   2.119  0.1715  0.0943 -0.4428
  721TIP3    H123654   0.097   0.738   2.158  0.6136  0.1729 -0.3245
  721TIP3    H223655   0.088   0.660   2.029  0.7359  0.6593 -0.6293
  722TIP3   OH223656   3.752   5.027   3.244  0.0335  0.7306  0.8636
  722TIP3    H123657   3.706   5.008   3.162  1.0329 -1.5437  0.7548
  722TIP3    H223658   3.812   5.099   3.222  1.8784 -1.2523 -1.0837
  723TIP3   OH223659   3.154   0.036  12.683  0.3829  0.0440  0.0381
  723TIP3    H123660   3.211   0.091  12.630  0.9761  0.7240  1.3339
  723TIP3    H223661   3.079   0.092  12.705  0.3148 -0.1093  0.2106
  724TIP3   OH223662   4.095   3.347   1.622 -0.0892  0.6849  0.1008
  724TIP3    H123663   4.089   3.393   1.705 -1.5858  0.9538 -0.1358
  724TIP3    H223664   4.078   3.255   1.643  0.5533  0.5868  0.2242
  725TIP3   OH223665   0.416   1.297   4.397  0.4293  0.8335 -0.1389
  725TIP3    H123666   0.400   1.321   4.488 -2.6273 -1.9562  0.2655
  725TIP3    H223667   0.445   1.206   4.401 -0.5679  0.3809 -1.9430
  726TIP3   OH223668   5.263   3.998   2.841 -0.6732  0.0630 -0.1686
  726TIP3    H123669   5.291   4.085   2.812 -0.0366 -0.0364  0.1361
  726TIP3    H223670   5.283   3.941   2.767  1.7339 -0.3372  0.7104
  727TIP3   OH223671   0.610   5.344  12.574  0.3352 -0.1450  0.3680
  727TIP3    H123672   0.630   5.271  12.515  0.3535 -1.5277  1.9978
  727TIP3    H223673   0.678   5.339  12.642 -1.1651 -0.2443  1.9163
  728TIP3   OH223674   0.097   5.002   3.301 -0.1095  0.3713  0.0054
  728TIP3    H123675   0.068   5.044   3.382 -1.3665  0.8465 -0.6660
  728TIP3    H223676   0.017   4.967   3.262  0.8836 -3.0916  0.7352
  729TIP3   OH223677   0.183   2.383  15.471  0.3614 -0.3411  0.0565
  729TIP3    H123678   0.132   2.382  15.390  2.7486  1.5809 -1.6391
  729TIP3    H223679   0.122   2.414  15.538 -1.6656 -1.8812 -0.9621
  730TIP3   OH223680   3.956   5.403  16.022  0.1137  0.5581 -0.2814
  730TIP3    H123681   3.950   5.497  16.039 -1.5202  0.8046 -1.8877
  730TIP3    H223682   3.911   5.363  16.096 -2.1746  1.2782 -1.1968
  731TIP3   OH223683   2.345   3.492   0.377  0.8313 -0.5976 -0.2598
  731TIP3    H123684   2.419   3.471   0.320 -0.7102 -1.0636 -2.2067
  731TIP3    H223685   2.268   3.478   0.322 -0.7368 -0.4219  1.7786
  732TIP3   OH223686   0.658   4.285   5.328  0.2156  0.8372  0.2119
  732TIP3    H123687   0.565   4.294   5.348  0.4010 -0.4658  1.9219
  732TIP3    H223688   0.702   4.314   5.408  1.1857 -0.4494  0.1742
  733TIP3   OH223689   3.800   3.438  11.856  0.4234 -0.4136 -0.0125
  733TIP3    H123690   3.889   3.437  11.891  0.0884 -2.7798  0.9562
  733TIP3    H223691   3.751   3.492  11.918  0.9405 -0.0958  0.1281
  734TIP3   OH223692   4.573   1.568  16.369 -0.1886 -0.0448  0.4834
  734TIP3    H123693   4.599   1.489  16.417 -1.4246 -0.8872 -0.1842
  734TIP3    H223694   4.626   1.566  16.289 -1.9988 -1.6513 -0.7755
  735TIP3   OH223695   5.982   0.460   3.144  0.3707 -0.2104 -0.8141
  735TIP3    H123696   5.903   0.489   3.098  0.3272 -0.9777 -1.2467
  735TIP3    H223697   6.046   0.530   3.129  0.0539 -0.0020 -1.2329
  736TIP3   OH223698   5.597   0.183   2.815  0.5762 -0.0309  0.4245
  736TIP3    H123699   5.578   0.089   2.819 -0.0661 -0.0133 -1.3460
  736TIP3    H223700   5.519   0.225   2.851  0.3875 -0.1637  0.1786
  737TIP3   OH223701   6.685   4.119   0.647 -0.4835  0.0524 -0.0914
  737TIP3    H123702   6.612   4.058   0.658 -0.8634  0.5385  0.0852
  737TIP3    H223703   6.752   4.067   0.602 -0.1517 -0.9937  1.5346
  738TIP3   OH223704   5.408   2.630  11.928 -0.0358  0.0670 -0.3718
  738TIP3    H123705   5.465   2.683  11.983  0.0057  0.3552 -0.6968
  738TIP3    H223706   5.463   2.602  11.855  0.4727 -1.9322  0.7015
  739TIP3   OH223707   2.063   4.267   4.656  0.2730 -0.4475  0.3161
  739TIP3    H123708   2.061   4.262   4.560 -1.9146 -1.0419  0.3339
  739TIP3    H223709   2.115   4.192   4.683  1.4635  0.0926 -0.3929
  740TIP3   OH223710   2.284   5.296  17.413  0.3827  0.9010 -0.3657
  740TIP3    H123711   2.238   5.216  17.388  1.3482  0.2638 -0.1496
  740TIP3    H223712   2.249   5.317  17.499  1.6067 -0.4689  0.4999
  741TIP3   OH223713   5.676   6.034   1.223  0.0062 -0.5007  0.3221
  741TIP3    H123714   5.707   5.945   1.205 -1.5034 -0.8978 -0.5308
  741TIP3    H223715   5.745   6.091   1.191  0.2336 -1.3490 -0.7585
  742TIP3   OH223716   5.879   1.963   5.150 -0.2201  0.6817 -0.6680
  742TIP3    H123717   5.881   1.872   5.180 -1.2301  0.1530 -2.0597
  742TIP3    H223718   5.826   2.008   5.216 -0.3550  0.0967 -0.3649
  743TIP3   OH223719   2.947   5.539   5.124 -0.1201 -0.4901 -0.0564
  743TIP3    H123720   2.923   5.552   5.033 -0.4356  1.0692  0.2276
  743TIP3    H223721   2.914   5.617   5.169  3.4637  0.7279  0.7514
  744TIP3   OH223722   2.346   4.018  15.233  0.6173 -0.1436 -0.0526
  744TIP3    H123723   2.265   3.967  15.242  0.7061 -0.2110  0.3672
  744TIP3    H223724   2.414   3.963  15.270  0.4840  0.8659  1.8746
  745TIP3   OH223725   3.817   2.438  14.023  0.1481  0.3540 -0.0433
  745TIP3    H123726   3.740   2.463  13.972 -1.8016 -1.8926  1.5698
  745TIP3    H223727   3.824   2.343  14.011  1.4245  0.2111  1.5169
  746TIP3   OH223728   2.773   1.615   1.899  0.3596  0.5160 -0.1138
  746TIP3    H123729   2.721   1.536   1.889  0.0716  0.6703  0.1790
  746TIP3    H223730   2.832   1.614   1.823 -0.1057  0.3729 -0.4806
  747TIP3   OH223731   5.286   4.842  17.487 -0.4585 -0.3709  0.5815
  747TIP3    H123732   5.233   4.922  17.484 -0.9580 -0.6921  0.5861
  747TIP3    H223733   5.314   4.828  17.397 -0.4153 -0.2186  0.5719
  748TIP3   OH223734   2.862   0.736   6.315 -0.2795  0.1293 -0.2188
  748TIP3    H123735   2.908   0.769   6.392 -0.4865 -0.8308  0.3237
  748TIP3    H223736   2.796   0.803   6.297 -1.3421 -0.4085  1.4637
  749TIP3   OH223737   2.311   1.793  11.286  0.1834  0.2081 -0.2966
  749TIP3    H123738   2.277   1.715  11.241  1.4467  0.2881 -1.4368
  749TIP3    H223739   2.294   1.776  11.379  0.2666 -1.3326 -0.5361
  750TIP3   OH223740   3.673   5.731  16.786  0.9152  0.6727  0.2028
  750TIP3    H123741   3.658   5.825  16.781  0.6631  0.6448  0.3954
  750TIP3    H223742   3.638   5.696  16.704  0.6963  0.7084  0.2806
  751TIP3   OH223743   4.460   4.762  12.309 -0.2004  0.2480  0.0140
  751TIP3    H123744   4.548   4.798  12.305 -0.1989  0.1731 -1.1397
  751TIP3    H223745   4.413   4.818  12.370 -0.0053  1.8037 -1.1989
  752TIP3   OH223746   4.715   5.419   0.944 -0.0600 -0.1285 -0.0355
  752TIP3    H123747   4.730   5.485   1.011  2.6087 -1.2134  0.5686
  752TIP3    H223748   4.740   5.462   0.862  2.2135 -0.4626  0.4194
  753TIP3   OH223749   4.800   3.433   4.758 -0.3532 -0.5671 -0.0539
  753TIP3    H123750   4.755   3.379   4.823 -0.0858 -0.1951  0.4550
  753TIP3    H223751   4.752   3.419   4.677 -0.1222 -1.7900 -0.0032
  754TIP3   OH223752   4.737   3.086   1.563  0.0580 -0.1652  0.0290
  754TIP3    H123753   4.647   3.053   1.565  0.0454 -0.1609 -0.4107
  754TIP3    H223754   4.727   3.181   1.556  0.0912 -0.2588 -1.4811
  755TIP3   OH223755   1.928   5.767   5.459  0.1240 -0.3690 -0.4318
  755TIP3    H123756   1.840   5.743   5.430  0.7603 -2.5166 -0.7185
  755TIP3    H223757   1.940   5.718   5.540 -0.1716  2.5783  1.5722
  756TIP3   OH223758   4.274   5.002  16.747  0.4743  0.3182 -0.7459
  756TIP3    H123759   4.337   4.989  16.818 -1.7578  0.6811  1.4741
  756TIP3    H223760   4.258   4.915  16.713 -1.1974 -0.5549  1.9067
  757TIP3   OH223761   0.913   6.168  15.357 -0.3067  0.0277  0.0472
  757TIP3    H123762   0.890   6.090  15.408  0.1128  0.9127  1.6602
  757TIP3    H223763   0.894   6.242  15.416 -1.5414  1.2201 -1.7344
  758TIP3   OH223764   4.147   4.266  11.077  0.3574 -0.0394  0.2570
  758TIP3    H123765   4.115   4.219  11.154 -1.9277 -0.6843 -1.0141
  758TIP3    H223766   4.195   4.200  11.027  1.1839  0.1992  0.6973
  759TIP3   OH223767   4.804   5.225  12.827 -0.1501 -0.2496 -0.3019
  759TIP3    H123768   4.799   5.317  12.803  0.0999  0.3077  1.5880
  759TIP3    H223769   4.734   5.214  12.892 -0.8055 -1.6555 -1.1919
  760TIP3   OH223770   3.463   1.100   1.290 -0.5828  0.0768  0.3953
  760TIP3    H123771   3.476   1.181   1.340 -0.2549  0.7418 -0.7214
  760TIP3    H223772   3.401   1.050   1.342  0.6541  0.1912  2.0859
  761TIP3   OH223773   3.957   3.215   4.739  0.0527 -0.1588 -0.7083
  761TIP3    H123774   3.952   3.194   4.832  0.9467  2.0092 -0.1006
  761TIP3    H223775   3.906   3.295   4.729 -0.4808 -0.6489 -2.2135
  762TIP3   OH223776   4.633   1.085   6.206 -0.2015  0.0781 -0.8238
  762TIP3    H123777   4.562   1.024   6.183  0.3475 -0.6818 -0.5299
  762TIP3    H223778   4.607   1.168   6.165 -0.6239 -0.5247 -1.8089
  763TIP3   OH223779   1.546   6.685   0.899 -0.3528 -0.0177  0.2374
  763TIP3    H123780   1.519   6.720   0.814 -0.5514  1.6102  0.9405
  763TIP3    H223781   1.621   6.628   0.878 -0.1519  0.6620 -0.9856
  764TIP3   OH223782   0.767   5.748   6.974  0.5789 -0.1429 -0.5677
  764TIP3    H123783   0.758   5.716   6.885  2.9923 -0.7994 -0.6530
  764TIP3    H223784   0.774   5.843   6.965 -0.4942 -0.0828 -0.9167
  765TIP3   OH223785   5.527   6.495  15.795 -0.1171  0.2664  0.7657
  765TIP3    H123786   5.436   6.517  15.777  0.1673  1.0243  0.1785
  765TIP3    H223787   5.574   6.577  15.782  0.5961 -0.0234  1.4704
  766TIP3   OH223788   1.397   6.693   4.790 -0.7322 -0.0565  0.1508
  766TIP3    H123789   1.386   6.600   4.811  0.6516 -0.0577  0.9375
  766TIP3    H223790   1.453   6.693   4.713 -1.1577  0.1235 -0.1622
  767TIP3   OH223791   1.514   1.499   4.762  0.4821  0.3999  0.2248
  767TIP3    H123792   1.568   1.461   4.831  2.4732  0.1770 -1.3556
  767TIP3    H223793   1.509   1.592   4.784 -0.4011  0.0467  1.5806
  768TIP3   OH223794   6.188   3.867  14.218 -0.4624 -0.0518 -0.0330
  768TIP3    H123795   6.213   3.927  14.288 -1.4236  0.0013  0.2833
  768TIP3    H223796   6.242   3.894  14.143 -0.6778  1.0427  0.1874
  769TIP3   OH223797   2.625   0.681  16.829 -0.1858 -0.1897 -1.1013
  769TIP3    H123798   2.590   0.593  16.847 -0.3244  0.1467  0.3514
  769TIP3    H223799   2.563   0.718  16.765 -1.5448 -0.2672  0.1020
  770TIP3   OH223800   6.177   0.375  12.423 -0.7103 -0.1140 -0.4113
  770TIP3    H123801   6.262   0.354  12.461 -2.3454  0.4218  4.2755
  770TIP3    H223802   6.139   0.290  12.401  0.0136 -0.5826  0.0918
  771TIP3   OH223803   0.944   2.234  16.477  0.1630  0.0767 -0.5327
  771TIP3    H123804   0.924   2.301  16.542  0.3684  0.7266 -1.1272
  771TIP3    H223805   1.032   2.204  16.501 -0.0221 -0.1442 -0.1273
  772TIP3   OH223806   3.456   1.597   5.951  0.2011  1.0139 -0.2545
  772TIP3    H123807   3.461   1.501   5.947 -0.2076  0.9548  0.4139
  772TIP3    H223808   3.442   1.616   6.044  1.4035  1.7854 -0.2173
  773TIP3   OH223809   5.436   6.529   6.248  0.0511  0.0870 -0.0312
  773TIP3    H123810   5.352   6.494   6.277  0.5206 -1.4837 -0.4261
  773TIP3    H223811   5.498   6.497   6.313  0.4314  0.6675 -0.1075
  774TIP3   OH223812   0.520   5.319  16.791  0.0505  0.2901 -0.0090
  774TIP3    H123813   0.512   5.229  16.762  0.8914  0.4729 -0.8454
  774TIP3    H223814   0.610   5.344  16.768  0.0887  1.0800  0.9473
  775TIP3   OH223815   5.729   5.291  11.275  0.1343 -0.0081  0.3899
  775TIP3    H123816   5.778   5.223  11.321 -0.0825  1.2978  2.7183
  775TIP3    H223817   5.718   5.257  11.186  3.9449 -0.9928  0.1245
  776TIP3   OH223818   4.514   2.124  11.651 -0.2275 -0.1726 -0.0367
  776TIP3    H123819   4.507   2.219  11.652  0.0919 -0.1431 -0.5613
  776TIP3    H223820   4.492   2.097  11.740  2.8068  0.5989  1.0543
  777TIP3   OH223821   6.509   0.057   2.091 -0.4805  0.1030  0.2799
  777TIP3    H123822   6.441   0.104   2.140 -1.5183 -1.2791  0.2371
  777TIP3    H223823   6.463   0.022   2.014  0.2381 -0.9912  0.3229
  778TIP3   OH223824   4.652   1.648   5.816  0.2760 -0.0856 -0.8312
  778TIP3    H123825   4.744   1.670   5.796 -0.1672  0.5123 -2.4135
  778TIP3    H223826   4.657   1.591   5.893  1.9772 -0.1075 -0.9092
  779TIP3   OH223827   6.447   2.039  11.734 -0.6940 -0.2902  0.0364
  779TIP3    H123828   6.487   2.114  11.689  2.5456 -1.0371  1.4052
  779TIP3    H223829   6.424   2.073  11.821  0.4278 -0.7435  0.5259
  780TIP3   OH223830   5.184   4.390  16.272  0.2501  0.3659 -0.0861
  780TIP3    H123831   5.108   4.353  16.318  1.6139  1.1935  3.0258
  780TIP3    H223832   5.233   4.313  16.242 -1.6876 -0.1840 -2.1627
  781TIP3   OH223833   3.684   2.536   6.310  0.1115 -0.2029  0.5188
  781TIP3    H123834   3.717   2.546   6.220  2.4585 -0.4419  1.2834
  781TIP3    H223835   3.642   2.620   6.328 -1.1330 -0.4354 -1.0489
  782TIP3   OH223836   3.052   3.643   3.137 -0.6164 -0.1511  0.3490
  782TIP3    H123837   3.090   3.610   3.218 -1.4456 -2.6365 -0.1863
  782TIP3    H223838   3.110   3.611   3.068 -0.5104  1.0216 -0.1289
  783TIP3   OH223839   1.246   1.581   1.075 -0.2450  0.1428  0.0505
  783TIP3    H123840   1.180   1.512   1.083 -0.4349  0.2385 -0.6273
  783TIP3    H223841   1.290   1.563   0.992  1.6519 -0.8230  1.2195
  784TIP3   OH223842   5.534   2.146   3.238 -0.9145 -0.4323  0.0758
  784TIP3    H123843   5.597   2.216   3.220 -1.2083 -0.0100  0.6487
  784TIP3    H223844   5.562   2.111   3.323 -1.1740 -0.5570  0.1092
  785TIP3   OH223845   3.316   3.074   0.877 -0.1851 -0.2861  0.1599
  785TIP3    H123846   3.323   2.983   0.850 -2.3206 -0.7351  0.8688
  785TIP3    H223847   3.379   3.083   0.949 -0.3770 -1.3833  0.4826
  786TIP3   OH223848   5.332   4.552   2.185  0.1083 -0.0054 -0.4057
  786TIP3    H123849   5.311   4.596   2.267  0.9057  1.4365 -0.9358
  786TIP3    H223850   5.401   4.605   2.146  3.2856 -3.2444  0.2295
  787TIP3   OH223851   0.387   6.452  16.575  0.0650 -0.1643 -0.2955
  787TIP3    H123852   0.364   6.451  16.482 -0.0290  3.0692 -0.4460
  787TIP3    H223853   0.307   6.481  16.619  0.9765  1.4981  0.3544
  788TIP3   OH223854   5.112   2.258   3.935  0.2544  0.7068 -0.4570
  788TIP3    H123855   5.175   2.330   3.941  1.6411 -0.4079 -1.1102
  788TIP3    H223856   5.151   2.188   3.987 -1.0783  0.3844  0.1654
  789TIP3   OH223857   4.915   5.177   2.955  0.2751  0.1737  0.4368
  789TIP3    H123858   4.903   5.272   2.960  0.2678  0.1375  1.3969
  789TIP3    H223859   4.978   5.158   3.025 -1.0164 -0.7162  1.4019
  790TIP3   OH223860   5.715   0.873  15.122  0.2535  0.2415 -1.0057
  790TIP3    H123861   5.688   0.934  15.053 -0.2180 -1.0168 -1.9897
  790TIP3    H223862   5.703   0.786  15.083  1.1103 -0.4853  0.2676
  791TIP3   OH223863   5.987   2.657  16.627  0.0236 -0.1926 -0.1519
  791TIP3    H123864   5.967   2.700  16.710  0.1728  0.7653 -0.5957
  791TIP3    H223865   5.954   2.718  16.560  1.2428 -0.2384 -0.8172
  792TIP3   OH223866   2.030   1.248  11.707 -0.3926 -0.5419  0.1248
  792TIP3    H123867   2.086   1.184  11.750 -0.1836 -1.1302 -0.9997
  792TIP3    H223868   2.090   1.316  11.677 -0.4519 -0.4933  0.1156
  793TIP3   OH223869   6.477   5.272  14.118 -0.3972  0.0914 -0.0623
  793TIP3    H123870   6.551   5.273  14.057 -0.6405 -0.9931 -0.3887
  793TIP3    H223871   6.512   5.235  14.199 -0.6067 -0.5357 -0.2556
  794TIP3   OH223872   6.225   2.698   0.906  0.2943 -0.0742  0.1734
  794TIP3    H123873   6.180   2.768   0.859 -0.9149 -0.3185  0.9375
  794TIP3    H223874   6.306   2.739   0.937  0.2851  0.5656 -0.6306
  795TIP3   OH223875   4.216   4.451   6.276 -0.3785 -0.2978  0.1648
  795TIP3    H123876   4.163   4.529   6.260  0.2069  0.2653  0.8759
  795TIP3    H223877   4.256   4.431   6.192 -1.5576 -0.6262 -0.3392
  796TIP3   OH223878   3.389   2.659   6.965 -0.5130 -0.6439 -0.0547
  796TIP3    H123879   3.343   2.658   6.881 -0.7954 -0.9167  0.1007
  796TIP3    H223880   3.451   2.587   6.959 -1.0163 -1.1050  0.2345
  797TIP3   OH223881   3.645   1.074  11.668  0.3167 -0.1441 -0.0122
  797TIP3    H123882   3.680   1.033  11.589  0.8794 -0.1801  0.2504
  797TIP3    H223883   3.580   1.013  11.701  0.0981 -0.1404 -0.4337
  798TIP3   OH223884   3.737   5.675   4.971  0.2142  0.2391  0.2463
  798TIP3    H123885   3.669   5.725   5.016  0.0816  0.3400 -0.0671
  798TIP3    H223886   3.749   5.720   4.887  0.1105 -0.2367 -0.0252
  799TIP3   OH223887   5.773   1.152   4.842 -0.0529  0.2814 -0.0538
  799TIP3    H123888   5.765   1.182   4.932 -0.4080 -2.4284  0.9356
  799TIP3    H223889   5.860   1.182   4.814 -0.5226  2.4153  0.6249
  800TIP3   OH223890   5.107   3.667   6.779  0.5748 -0.4145  0.0692
  800TIP3    H123891   5.018   3.634   6.788  1.0387 -1.5798  0.7102
  800TIP3    H223892   5.110   3.708   6.693 -0.0662 -2.0644 -0.7774
  801TIP3   OH223893   0.006   1.659   1.211  0.2262  0.5999 -0.6460
  801TIP3    H123894  -0.001   1.742   1.259  0.1261 -0.6687  1.6818
  801TIP3    H223895  -0.081   1.644   1.175 -0.2427  0.6676  0.4319
  802TIP3   OH223896   6.420   6.354   3.795 -0.2381 -0.2102 -0.0050
  802TIP3    H123897   6.337   6.367   3.751 -0.4492 -1.3435  0.0217
  802TIP3    H223898   6.466   6.289   3.742  0.2607 -0.2461  0.4599
  803TIP3   OH223899   6.252   5.835  12.629 -0.2598  0.0604 -0.2495
  803TIP3    H123900   6.161   5.808  12.615 -1.3382  3.1415  0.0891
  803TIP3    H223901   6.262   5.914  12.577  2.7369 -0.9377 -1.4127
  804TIP3   OH223902   5.998   0.438  16.860 -0.0593  0.0335 -0.2207
  804TIP3    H123903   5.912   0.406  16.886 -0.3856 -0.3250 -1.6074
  804TIP3    H223904   6.060   0.374  16.896 -0.3446  0.3712  0.8982
  805TIP3   OH223905   5.599   2.248   0.005  0.1269  0.1073  0.8955
  805TIP3    H123906   5.525   2.308  -0.010  0.5982  0.9423  1.7800
  805TIP3    H223907   5.570   2.165  -0.032  0.1497  1.2790 -2.0666
  806TIP3   OH223908   3.332   0.122   2.344  0.0554 -0.6945  0.1204
  806TIP3    H123909   3.395   0.147   2.277  0.9252 -0.5921  0.9524
  806TIP3    H223910   3.319   0.028   2.330  0.5287 -0.7525  0.0415
  807TIP3   OH223911   0.082   3.995  15.748 -0.3531  0.2051 -0.0024
  807TIP3    H123912   0.175   3.978  15.759 -0.5568 -1.3563 -0.4650
  807TIP3    H223913   0.045   3.984  15.836 -0.1580  0.4947  0.1169
  808TIP3   OH223914   2.782   5.687  15.741 -0.2028 -0.1100  0.2425
  808TIP3    H123915   2.844   5.674  15.812 -0.0762  0.9710  0.3372
  808TIP3    H223916   2.698   5.700  15.785 -0.4792 -1.3380  0.1209
  809TIP3   OH223917   2.884   5.579   5.953  0.5198  0.0124 -0.6893
  809TIP3    H123918   2.921   5.640   6.017  0.1367 -0.3339 -0.1211
  809TIP3    H223919   2.928   5.496   5.971  0.2217 -0.1500 -0.7057
  810TIP3   OH223920   0.700   2.850  11.337  0.2094 -0.0277  0.3585
  810TIP3    H123921   0.660   2.930  11.371 -0.6159  0.5190 -1.7550
  810TIP3    H223922   0.659   2.836  11.252  2.0052 -1.4150 -0.3647
  811TIP3   OH223923   2.128   5.995  17.152  0.2269 -0.9373  0.3763
  811TIP3    H123924   2.223   5.993  17.160  0.2384  1.6318  2.2706
  811TIP3    H223925   2.105   6.087  17.166 -2.4091 -1.0345 -2.4051
  812TIP3   OH223926   2.167   5.478   1.569  0.2815  0.6873  0.1373
  812TIP3    H123927   2.157   5.463   1.663  0.4813  0.0671  0.0696
  812TIP3    H223928   2.103   5.419   1.529 -0.2818  1.4513 -0.0967
  813TIP3   OH223929   5.911   2.347   4.528  0.1613  0.4310  0.1019
  813TIP3    H123930   5.973   2.273   4.528 -0.5010 -0.1328  0.3632
  813TIP3    H223931   5.967   2.425   4.528  0.8697 -0.0572 -1.0676
  814TIP3   OH223932   5.394   6.440   6.566  0.2039 -0.1352  0.1071
  814TIP3    H123933   5.394   6.347   6.591 -2.9301 -0.0619  0.7811
  814TIP3    H223934   5.481   6.455   6.530  1.3568 -2.9340  1.4256
  815TIP3   OH223935   4.580   1.547   3.373 -0.2206  0.0562 -0.4176
  815TIP3    H123936   4.625   1.514   3.451  0.9895 -0.6941 -1.3863
  815TIP3    H223937   4.505   1.488   3.362  1.8401 -2.5219 -2.0555
  816TIP3   OH223938   0.364   0.005   0.285  0.5623  0.0370  0.2045
  816TIP3    H123939   0.434   0.071   0.285 -0.5229  1.2591 -1.2169
  816TIP3    H223940   0.293   0.046   0.235 -0.6084 -1.7627  0.3212
  817TIP3   OH223941   4.432   4.015  13.987  0.4524 -0.5193  0.4459
  817TIP3    H123942   4.482   4.015  13.905  1.1476  2.2997  0.7769
  817TIP3    H223943   4.341   4.018  13.960  0.6396 -0.5365 -0.1968
  818TIP3   OH223944   2.052   0.894  10.990 -0.4087 -0.0162 -0.0680
  818TIP3    H123945   2.006   0.818  10.954 -0.5727  0.6971 -1.4493
  818TIP3    H223946   2.131   0.901  10.936  0.8023 -0.5839  1.5722
  819TIP3   OH223947   3.447   0.159  15.720 -0.3700  0.7962  0.2135
  819TIP3    H123948   3.463   0.219  15.793 -0.2120 -0.7726  1.5546
  819TIP3    H223949   3.355   0.134  15.729 -0.3586  0.6287 -0.1351
  820TIP3   OH223950   2.535   2.421  14.356 -0.2865 -0.4776  0.2460
  820TIP3    H123951   2.507   2.394  14.444 -2.0565 -0.3106 -0.2304
  820TIP3    H223952   2.492   2.505  14.342 -0.4984 -0.7735 -0.9968
  821TIP3   OH223953   2.793   4.810   5.173  0.5249 -0.3544  0.0762
  821TIP3    H123954   2.820   4.897   5.202 -0.0410 -0.1267 -0.0507
  821TIP3    H223955   2.805   4.754   5.249  1.0279 -0.1931  0.1156
  822TIP3   OH223956   0.983   0.244  16.099 -0.5040  0.1802  0.3885
  822TIP3    H123957   0.970   0.335  16.071 -0.1396  0.5130  1.2511
  822TIP3    H223958   1.077   0.237  16.111 -0.4194 -0.6225 -0.6444
  823TIP3   OH223959   3.262   5.732  15.426 -0.2387 -0.2484 -0.4244
  823TIP3    H123960   3.299   5.649  15.395  0.2675  0.7553 -2.6535
  823TIP3    H223961   3.337   5.789  15.440 -0.5914 -0.0911  0.9988
  824TIP3   OH223962   3.254   2.222  14.010  0.2902 -0.0056  0.4245
  824TIP3    H123963   3.188   2.233  13.942 -0.5154 -4.4438  0.1636
  824TIP3    H223964   3.207   2.233  14.093 -0.5591 -1.7485  0.2173
  825TIP3   OH223965   3.189   4.703  11.489  0.5995  0.7425 -0.0567
  825TIP3    H123966   3.175   4.715  11.395  0.2240  0.4285 -0.0402
  825TIP3    H223967   3.283   4.722  11.501  0.3929  2.0039 -0.2847
  826TIP3   OH223968   2.228   3.905  13.220 -0.6512  0.2634 -0.0062
  826TIP3    H123969   2.189   3.875  13.301  2.3398 -1.2959  1.0180
  826TIP3    H223970   2.186   3.853  13.152 -2.0969  0.4804  0.6906
  827TIP3   OH223971   6.204   0.875   2.092  0.1876 -0.2993  0.4752
  827TIP3    H123972   6.131   0.933   2.113 -1.9811 -2.5784 -0.3165
  827TIP3    H223973   6.256   0.925   2.028 -0.7886  1.2826  0.8460
  828TIP3   OH223974   5.018   2.513   0.287  0.5937 -0.3559 -0.3650
  828TIP3    H123975   5.007   2.607   0.276  0.1663 -0.5226 -1.4780
  828TIP3    H223976   5.111   2.498   0.273  0.7181 -0.0685  0.1260
  829TIP3   OH223977   0.884   5.199  11.786  0.2983 -0.1180  0.1131
  829TIP3    H123978   0.965   5.246  11.805  1.7698 -1.5161 -2.2402
  829TIP3    H223979   0.818   5.242  11.840  2.1724  2.4904  0.4969
  830TIP3   OH223980   3.824   1.804   3.987 -0.3516 -0.1662  0.6781
  830TIP3    H123981   3.891   1.873   3.992  1.1445 -1.3533 -1.4190
  830TIP3    H223982   3.873   1.724   3.967 -2.3693 -1.0499 -1.1657
  831TIP3   OH223983   5.535   6.602  17.101  0.0544 -0.2015  0.2738
  831TIP3    H123984   5.524   6.627  17.009 -0.1356 -0.6941  0.1650
  831TIP3    H223985   5.473   6.531  17.115  2.2192 -2.2571 -0.0448
  832TIP3   OH223986   4.243   1.385   5.989  0.4137 -0.3439 -0.1052
  832TIP3    H123987   4.184   1.310   6.004  1.3941 -1.3199 -0.9410
  832TIP3    H223988   4.232   1.440   6.067 -2.6037  0.2419 -0.8083
  833TIP3   OH223989   2.620   4.571   3.560  0.1665  0.0870  0.2414
  833TIP3    H123990   2.620   4.636   3.490  1.0338 -0.8448 -0.6485
  833TIP3    H223991   2.710   4.568   3.591  0.3037 -1.2052 -0.2326
  834TIP3   OH223992   0.237   4.405  13.237  0.1909  0.6557  0.3136
  834TIP3    H123993   0.145   4.383  13.223  0.0529 -0.5726  2.7119
  834TIP3    H223994   0.245   4.495  13.206 -1.7562  0.6981 -0.1607
  835TIP3   OH223995   6.173   2.072  17.505 -0.3288 -0.0099 -0.0079
  835TIP3    H123996   6.115   2.115  17.442 -0.3913  1.4012  0.9468
  835TIP3    H223997   6.234   2.022  17.451  0.0596  1.6916 -1.2570
  836TIP3   OH223998   1.758   2.729   0.044  0.2958  0.1861  0.4050
  836TIP3    H123999   1.842   2.744   0.002  1.4015 -0.2533  2.3388
  836TIP3    H224000   1.715   2.815   0.044  0.3440  0.2343 -1.3532
  837TIP3   OH224001   5.306   3.760  15.205 -0.5374  0.0934 -0.7215
  837TIP3    H124002   5.299   3.779  15.111 -1.8584 -0.8949 -0.8629
  837TIP3    H224003   5.340   3.671  15.209 -2.4678 -0.6699 -0.3569
  838TIP3   OH224004   2.633   2.602  17.450 -0.4374 -0.6453  0.5382
  838TIP3    H124005   2.705   2.538  17.454 -1.2313 -1.8060 -1.7044
  838TIP3    H224006   2.555   2.552  17.475 -0.8118 -0.0873  0.4984
  839TIP3   OH224007   5.809   2.839   0.911 -0.4263 -0.0073 -0.7972
  839TIP3    H124008   5.829   2.782   0.837  0.7823 -0.4829 -0.1213
  839TIP3    H224009   5.876   2.907   0.907 -1.2386  0.8091 -0.9814
  840TIP3   OH224010   4.109   5.819   0.135  0.0907 -0.2994 -0.1274
  840TIP3    H124011   4.171   5.752   0.162  0.0173  0.0098  0.8550
  840TIP3    H224012   4.111   5.817   0.040  0.3299 -1.4667 -0.1104
  841TIP3   OH224013   1.581   2.020   1.764  0.1526 -0.3849  0.3417
  841TIP3    H124014   1.526   2.098   1.768  1.9631  0.9129  0.7279
  841TIP3    H224015   1.587   2.000   1.670  0.1694  0.2931  0.1918
  842TIP3   OH224016   3.686   1.829   3.697 -0.4405  0.0586 -0.3178
  842TIP3    H124017   3.591   1.825   3.683 -0.4048  0.0267 -0.5463
  842TIP3    H224018   3.707   1.749   3.745 -0.5007 -0.0251 -0.4312
  843TIP3   OH224019   3.284   1.900  11.357 -0.4050 -0.0865 -0.2191
  843TIP3    H124020   3.343   1.841  11.310 -1.1787 -1.4288  0.4387
  843TIP3    H224021   3.210   1.912  11.297  0.2866  1.2267 -0.8529
  844TIP3   OH224022   5.654   2.457   1.027  0.3279  0.3385 -0.1629
  844TIP3    H124023   5.712   2.532   1.041  0.0653  0.3488  0.9584
  844TIP3    H224024   5.649   2.414   1.112  0.0944 -0.6882 -0.6767
  845TIP3   OH224025   2.412   6.471  16.254 -0.4469  0.5859 -0.1606
  845TIP3    H124026   2.467   6.521  16.315  1.4673 -1.1837 -0.3083
  845TIP3    H224027   2.351   6.536  16.218 -2.1279  1.6540  4.0016
  846TIP3   OH224028   0.688   5.027  13.383  0.0616 -0.1823  0.5330
  846TIP3    H124029   0.745   5.059  13.314 -1.2479  2.3531  0.5268
  846TIP3    H224030   0.697   5.091  13.454 -2.7235  0.3588  0.5085
  847TIP3   OH224031   2.731   4.969  10.708  0.6081 -0.0301 -0.3917
  847TIP3    H124032   2.732   4.876  10.732  2.0667  0.0343 -0.0918
  847TIP3    H224033   2.647   5.001  10.740 -0.2125 -1.3891 -1.0868
  848TIP3   OH224034   2.354   5.576  17.029  0.0810  0.0424  0.8545
  848TIP3    H124035   2.357   5.613  17.117 -1.2952 -0.4015  1.1168
  848TIP3    H224036   2.326   5.649  16.974  1.0730  0.3552  0.7493
  849TIP3   OH224037   0.549   0.309  14.568 -1.1950 -0.0307  0.2791
  849TIP3    H124038   0.612   0.269  14.508  0.2006 -1.4345  2.4869
  849TIP3    H224039   0.506   0.378  14.517  3.2952  2.2158 -1.0593
  850TIP3   OH224040   1.313   2.700  16.773  0.2224 -0.0106  0.3762
  850TIP3    H124041   1.344   2.609  16.768 -1.8456 -0.8791  1.6304
  850TIP3    H224042   1.236   2.702  16.716 -1.1457  0.2367  2.1361
  851TIP3   OH224043   1.968   0.876  15.448  0.2436 -0.8018 -0.2136
  851TIP3    H124044   1.908   0.828  15.505 -2.0660  0.3306 -1.5114
  851TIP3    H224045   1.921   0.882  15.365  1.8874  0.7988 -1.0938
  852TIP3   OH224046   4.606   0.209   0.182  0.5921 -0.2947 -0.2538
  852TIP3    H124047   4.580   0.176   0.096  0.9400 -2.7005  0.4865
  852TIP3    H224048   4.525   0.213   0.232  0.3219  1.5215 -0.7609
  853TIP3   OH224049   3.209   5.802   5.617  0.3142  0.0608  0.4890
  853TIP3    H124050   3.192   5.887   5.658  2.8421  0.6333  0.5082
  853TIP3    H224051   3.191   5.738   5.685  0.2677  0.7124  1.1039
  854TIP3   OH224052   2.509   4.869   5.687  0.1330 -0.2595 -0.1992
  854TIP3    H124053   2.531   4.789   5.639 -0.4164 -0.7997  0.4125
  854TIP3    H224054   2.413   4.876   5.680  0.0196 -0.4433  0.9221
  855TIP3   OH224055   1.681   3.166   4.660  0.5750 -0.2553  0.2760
  855TIP3    H124056   1.607   3.162   4.720  0.6096 -0.9926  0.2885
  855TIP3    H224057   1.663   3.239   4.602 -0.6252 -0.9958 -0.3150
  856TIP3   OH224058   3.505   5.708   4.618 -0.5620  0.0022 -0.4948
  856TIP3    H124059   3.548   5.782   4.662 -1.1749 -0.2377  0.5394
  856TIP3    H224060   3.577   5.661   4.576  0.0349  0.3031  0.1626
  857TIP3   OH224061   5.946   3.073   0.934 -0.4671  0.3556 -0.1556
  857TIP3    H124062   5.923   3.071   1.027 -0.2174 -1.4629 -0.0898
  857TIP3    H224063   5.870   3.113   0.892 -1.6031 -0.9151  0.5997
  858TIP3   OH224064   5.022   0.464   3.501 -0.0198  0.2932  0.1853
  858TIP3    H124065   4.984   0.376   3.503  1.8815 -0.6589 -1.3625
  858TIP3    H224066   5.000   0.498   3.415 -0.6066  1.3152  0.7178
  859TIP3   OH224067   5.699   5.837   5.218  0.3012  0.0204  0.3434
  859TIP3    H124068   5.709   5.864   5.126 -0.4426 -0.1721  0.2028
  859TIP3    H224069   5.613   5.869   5.243 -0.4545 -1.8749  0.2930
  860TIP3   OH224070   2.833   5.159   6.620 -0.0476  0.2785  0.2977
  860TIP3    H124071   2.888   5.207   6.558 -0.8082 -0.1910 -0.7853
  860TIP3    H224072   2.860   5.068   6.611  0.8888  0.3764  1.8102
  861TIP3   OH224073   2.211   5.352   3.536 -0.2454 -0.6736  0.3305
  861TIP3    H124074   2.162   5.270   3.536  0.6096 -1.2143  1.6224
  861TIP3    H224075   2.303   5.326   3.532  0.0116  0.3279 -2.3122
  862TIP3   OH224076   4.421   2.271   5.641 -0.2859 -0.6370  0.1686
  862TIP3    H124077   4.336   2.304   5.611 -0.5126 -0.6564  0.7842
  862TIP3    H224078   4.484   2.310   5.581 -0.6336  0.2322  0.3576
  863TIP3   OH224079   6.527   5.948   3.220  0.2852  0.3663 -0.1738
  863TIP3    H124080   6.562   6.024   3.265 -0.3581  0.0066  0.9760
  863TIP3    H224081   6.588   5.877   3.239  0.7409  0.5102 -1.0232
  864TIP3   OH224082   5.367   1.484   5.622  0.3178 -0.1833  0.4155
  864TIP3    H124083   5.410   1.534   5.692  1.3774 -0.0044 -0.3465
  864TIP3    H224084   5.281   1.460   5.659  0.8330 -0.0532  1.7537
  865TIP3   OH224085   5.000   0.555  14.180  0.4445 -0.5194  0.3387
  865TIP3    H124086   5.083   0.532  14.138  1.0711  2.1722 -0.0461
  865TIP3    H224087   5.025   0.605  14.257 -0.8295  0.1906  0.3165
  866TIP3   OH224088   0.771   1.064  12.567 -0.4162  0.1831  0.7507
  866TIP3    H124089   0.724   1.138  12.530 -0.4606 -0.4343 -0.4681
  866TIP3    H224090   0.702   1.005  12.598 -0.4715 -0.4863 -0.5724
  867TIP3   OH224091   0.247   4.381  17.658  0.1015  0.1844  0.4902
  867TIP3    H124092   0.211   4.450  17.713 -0.8076  0.0173  0.1185
  867TIP3    H224093   0.194   4.304  17.678  0.0312  0.0163 -0.3125
  868TIP3   OH224094   4.367   5.831  13.184  0.3494  0.0196 -0.0948
  868TIP3    H124095   4.319   5.749  13.181  0.9920 -0.3589 -0.1194
  868TIP3    H224096   4.351   5.864  13.273 -0.2552  0.0864 -0.2232
  869TIP3   OH224097   5.437   0.458   2.192  0.0376 -0.0261 -0.7878
  869TIP3    H124098   5.471   0.542   2.163 -1.2033  0.6071 -0.4384
  869TIP3    H224099   5.429   0.466   2.287 -0.4624 -0.3949 -0.7938
  870TIP3   OH224100   0.115   6.013   3.287  0.4608  0.0008 -0.4562
  870TIP3    H124101   0.129   6.107   3.297  2.6383 -0.3950  0.9197
  870TIP3    H224102   0.072   5.986   3.369  1.6690 -0.4887  0.0293
  871TIP3   OH224103   0.221   5.195   0.540  0.5640 -0.0688  0.2823
  871TIP3    H124104   0.253   5.205   0.451  0.2365 -0.8934  0.0595
  871TIP3    H224105   0.228   5.282   0.579  0.8560  0.2586 -0.4992
  872TIP3   OH224106   1.580   2.579   4.679  0.6965 -0.6147  0.4503
  872TIP3    H124107   1.644   2.537   4.736  1.6221  0.5951  0.3508
  872TIP3    H224108   1.626   2.592   4.596  0.7196  1.1915  0.6891
  873TIP3   OH224109   6.703   2.230  12.002 -0.4978 -0.3882  0.0227
  873TIP3    H124110   6.774   2.201  12.060 -0.9563  0.0614  0.8290
  873TIP3    H224111   6.623   2.209  12.050 -0.8898  0.0463 -0.4289
  874TIP3   OH224112   0.397   4.732   0.236 -0.0713 -1.0083  0.1199
  874TIP3    H124113   0.390   4.793   0.309  1.5140 -0.8607  0.1905
  874TIP3    H224114   0.346   4.772   0.166  1.4898  0.8004 -0.0657
  875TIP3   OH224115   6.621   5.874  13.587 -0.4049 -0.4325  0.0189
  875TIP3    H124116   6.656   5.950  13.633 -0.3768 -1.3145  1.5041
  875TIP3    H224117   6.571   5.912  13.514  0.8401  0.9446 -0.1898
  876TIP3   OH224118   6.494   0.108   5.564 -0.3572 -0.2092  0.8003
  876TIP3    H124119   6.573   0.078   5.609 -1.2127 -1.2846  1.6535
  876TIP3    H224120   6.490   0.202   5.582  1.1222  0.0014  0.0987
  877TIP3   OH224121   2.648   4.379   3.827  0.2639  0.1202  0.1728
  877TIP3    H124122   2.658   4.471   3.802 -0.6804  0.2795  0.3557
  877TIP3    H224123   2.734   4.341   3.811  0.9792  1.2794  1.0833
  878TIP3   OH224124   1.675   5.327  14.060 -0.4443 -0.0666  0.1143
  878TIP3    H124125   1.582   5.336  14.083 -0.5030  0.3956 -0.2936
  878TIP3    H224126   1.674   5.297  13.969 -0.1854  0.7278 -0.1549
  879TIP3   OH224127   6.038   1.589   4.139 -0.2793  0.3323  0.1329
  879TIP3    H124128   6.043   1.593   4.044 -1.4632  1.9163  0.1040
  879TIP3    H224129   5.955   1.544   4.156  0.3733 -0.7977  0.4498
  880TIP3   OH224130   6.173   4.693   0.191 -0.3284 -0.3195  0.2231
  880TIP3    H124131   6.161   4.598   0.184  1.5590 -0.6797  1.2326
  880TIP3    H224132   6.097   4.722   0.243 -1.0128 -1.2312 -0.2333
  881TIP3   OH224133   0.782   3.998  12.383 -0.1095  0.4283 -0.2600
  881TIP3    H124134   0.854   3.936  12.369 -1.0187 -0.5661 -0.7195
  881TIP3    H224135   0.730   3.992  12.302 -0.6822  1.1629  0.0425
  882TIP3   OH224136   4.888   4.057   3.531 -0.2480  0.2568 -0.1632
  882TIP3    H124137   4.879   4.140   3.484  1.8086  0.7391  0.1885
  882TIP3    H224138   4.972   4.021   3.501 -0.2828 -0.8494  0.9616
  883TIP3   OH224139   1.618   4.048   0.259 -0.1485 -0.3591  0.0277
  883TIP3    H124140   1.657   3.963   0.278 -0.1180 -0.5543 -0.8645
  883TIP3    H224141   1.593   4.083   0.344  0.0301 -1.1724  0.4193
  884TIP3   OH224142   5.854   1.157  17.101  0.4060  0.4185  0.2514
  884TIP3    H124143   5.879   1.184  17.190 -2.9226  0.4211  1.3217
  884TIP3    H224144   5.847   1.061  17.107  0.4061  0.3956 -0.0880
  885TIP3   OH224145   2.100   5.760  15.517 -0.8084  0.2589 -0.6781
  885TIP3    H124146   2.010   5.745  15.547 -1.2679  0.6877 -1.8127
  885TIP3    H224147   2.122   5.847  15.549 -0.4167 -0.2346  0.4595
  886TIP3   OH224148   6.124   6.036   1.915  0.1050  0.0989  0.0124
  886TIP3    H124149   6.151   6.102   1.979  0.5758 -0.4639  0.4125
  886TIP3    H224150   6.182   5.962   1.932 -1.1198 -0.8196  0.2893
  887TIP3   OH224151   5.588   3.663  15.307  0.9100  0.3069 -0.2118
  887TIP3    H124152   5.547   3.576  15.305 -0.5752  0.9541  0.2534
  887TIP3    H224153   5.589   3.686  15.400 -1.1044  1.8105 -0.4850
  888TIP3   OH224154   0.326   5.645  16.537  0.2172 -0.1230  0.1660
  888TIP3    H124155   0.329   5.617  16.629  0.3845 -2.7109 -0.5677
  888TIP3    H224156   0.249   5.601  16.501  0.3388  0.6139 -1.0223
  889TIP3   OH224157   4.961   4.926   4.342  0.4811  0.1177 -0.0625
  889TIP3    H124158   5.010   4.865   4.398  0.6928 -0.7349 -1.1458
  889TIP3    H224159   5.016   5.004   4.340  1.5251 -0.6005 -0.7482
  890TIP3   OH224160   2.344   6.642   0.601  0.6213 -0.1461 -0.4717
  890TIP3    H124161   2.262   6.684   0.629  0.2067 -0.7272 -0.7794
  890TIP3    H224162   2.411   6.679   0.658 -0.0069 -0.3540  0.4101
  891TIP3   OH224163   5.225   1.121   0.656 -0.0616 -0.1934 -0.0446
  891TIP3    H124164   5.286   1.047   0.651 -0.9495 -0.9054 -0.7815
  891TIP3    H224165   5.200   1.138   0.565 -1.9455 -0.7956  0.3001
  892TIP3   OH224166   4.878   4.631   1.552  0.0532 -0.2957  0.1495
  892TIP3    H124167   4.822   4.670   1.618  1.4131 -0.2289  1.3223
  892TIP3    H224168   4.819   4.577   1.499 -1.0392 -0.5768  1.5875
  893TIP3   OH224169   0.319   2.759   6.434  0.6177  0.2919 -0.0437
  893TIP3    H124170   0.332   2.726   6.523 -1.0556 -0.7159 -0.1143
  893TIP3    H224171   0.392   2.724   6.384  1.4335  0.6547  0.8731
  894TIP3   OH224172   3.574   3.265  11.886  0.1908  0.2080 -0.9804
  894TIP3    H124173   3.582   3.293  11.977 -0.2756 -3.1977  0.2592
  894TIP3    H224174   3.659   3.284  11.847  1.7548 -1.5943  1.2788
  895TIP3   OH224175   4.045   2.660  16.291  0.2838 -0.1043  0.3393
  895TIP3    H124176   3.954   2.672  16.265 -0.2434 -0.5009  1.8885
  895TIP3    H224177   4.091   2.642  16.209 -1.0790 -0.1973 -0.4377
  896TIP3   OH224178   3.744   1.302  11.974  0.1749 -0.6667 -0.4844
  896TIP3    H124179   3.783   1.313  11.888 -1.8048 -1.6127 -1.5596
  896TIP3    H224180   3.695   1.220  11.969  0.6000 -1.1421  1.7877
  897TIP3   OH224181   2.184   4.055   3.862  0.3916  0.6653  0.3430
  897TIP3    H124182   2.121   3.984   3.848  0.7214  0.0100  1.9243
  897TIP3    H224183   2.244   4.050   3.787 -1.0501  0.9105 -0.8696
  898TIP3   OH224184   5.998   0.258   0.559 -0.3165  0.5304  0.0495
  898TIP3    H124185   6.069   0.209   0.518 -1.0372  0.7386 -1.5186
  898TIP3    H224186   5.926   0.196   0.565  0.4050 -0.1646  3.1144
  899TIP3   OH224187   5.451   3.998   3.497  0.0757  0.8082 -0.1234
  899TIP3    H124188   5.484   4.023   3.584 -0.4644 -0.3047  0.4339
  899TIP3    H224189   5.457   4.077   3.445  0.4205  1.5051  0.9390
  900TIP3   OH224190   1.929   4.897  11.374 -0.2412 -0.0971  0.4880
  900TIP3    H124191   1.932   4.834  11.302  1.3108  0.4162  0.0659
  900TIP3    H224192   1.946   4.981  11.332  1.2572  0.1375  1.5059
  901TIP3   OH224193   4.264   3.724  12.612 -0.1264  0.3899 -0.9557
  901TIP3    H124194   4.310   3.641  12.625 -0.0270  0.7648  1.4695
  901TIP3    H224195   4.172   3.701  12.615 -0.1042  0.2991 -0.9687
  902TIP3   OH224196   0.221   4.530   2.075 -0.0644  0.3611  0.1211
  902TIP3    H124197   0.142   4.580   2.054 -0.4746 -0.2807  0.1087
  902TIP3    H224198   0.269   4.525   1.993 -1.3961 -1.6680 -0.6135
  903TIP3   OH224199   4.451   3.716   5.266 -0.0275 -0.0524  0.3658
  903TIP3    H124200   4.385   3.697   5.199 -1.2583  0.7361  1.3019
  903TIP3    H224201   4.436   3.649   5.333  0.4544 -0.1587  0.3703
  904TIP3   OH224202   6.500   6.297  17.001  0.5039  0.4616  0.0584
  904TIP3    H124203   6.566   6.352  17.044  0.6955  0.3633 -0.1109
  904TIP3    H224204   6.469   6.350  16.928 -1.1473  1.4019  1.3454
  905TIP3   OH224205   5.356   3.473   4.676  0.1082  0.6053  0.0151
  905TIP3    H124206   5.274   3.475   4.725  0.6996  0.0278  1.0743
  905TIP3    H224207   5.415   3.530   4.725  1.2397 -1.3056  1.0373
  906TIP3   OH224208   2.686   2.414   1.943  0.0196 -0.0494  0.7865
  906TIP3    H124209   2.666   2.368   1.862  0.2519  2.1990 -0.6477
  906TIP3    H224210   2.751   2.358   1.987  0.5942 -0.8987 -1.0324
  907TIP3   OH224211   4.541   1.747  15.093  0.2885  0.0241 -0.3085
  907TIP3    H124212   4.621   1.793  15.118  0.6528 -0.8054  0.0944
  907TIP3    H224213   4.487   1.749  15.173 -0.8764  2.1114 -1.0568
  908TIP3   OH224214   2.157   2.872   0.437  0.3595  0.7698 -0.3367
  908TIP3    H124215   2.221   2.943   0.430 -1.1691  2.1460 -1.2434
  908TIP3    H224216   2.119   2.867   0.349 -0.9358  0.1596  0.2459
  909TIP3   OH224217   1.234   3.999   4.068 -0.1736  0.0341 -0.5900
  909TIP3    H124218   1.169   3.947   4.020 -0.7203 -0.4441  0.6219
  909TIP3    H224219   1.307   4.009   4.007  0.0441 -2.3335 -0.8089
  910TIP3   OH224220   2.262   1.301  14.815  0.0250 -0.2140  0.3266
  910TIP3    H124221   2.189   1.355  14.785  0.4871 -0.5384 -1.4669
  910TIP3    H224222   2.221   1.226  14.859 -0.7568 -0.6446 -1.1047
  911TIP3   OH224223   5.038   5.309   2.222  1.4272 -0.2758 -0.0117
  911TIP3    H124224   5.068   5.304   2.313  0.4625 -0.0530  0.3289
  911TIP3    H224225   5.102   5.364   2.178  3.0003 -1.9372  0.0625
  912TIP3   OH224226   0.669   0.112  15.146 -0.1150  0.1875  0.7303
  912TIP3    H124227   0.669   0.206  15.161 -0.7549  0.1138  1.2280
  912TIP3    H224228   0.611   0.100  15.071  2.3287  0.4613 -1.3321
  913TIP3   OH224229   5.656   6.688   1.073  0.1178 -0.6529 -0.5741
  913TIP3    H124230   5.574   6.652   1.107 -0.2271 -0.8088 -1.5302
  913TIP3    H224231   5.635   6.778   1.050  0.4705 -0.4090  0.0382
  914TIP3   OH224232   6.073   2.157   3.192 -0.2551 -0.0269  0.0486
  914TIP3    H124233   6.050   2.246   3.169  0.6356  0.4176  0.8141
  914TIP3    H224234   6.168   2.158   3.202 -0.0254 -1.4668 -1.5834
  915TIP3   OH224235   4.454   6.718  14.919  0.5649  0.4253 -0.0190
  915TIP3    H124236   4.440   6.656  14.847  0.9451 -0.3074  0.5263
  915TIP3    H224237   4.408   6.798  14.891 -0.1819 -0.1941 -0.6045
  916TIP3   OH224238   1.432   0.835  14.517  0.3867 -0.3310 -1.0937
  916TIP3    H124239   1.514   0.803  14.480  1.3511  0.3987  0.3171
  916TIP3    H224240   1.432   0.929  14.499  0.8906  0.0433  0.6784
  917TIP3   OH224241   2.052   5.547   2.883 -0.4005  0.0562 -0.2465
  917TIP3    H124242   2.006   5.600   2.818  1.0875  0.0234 -1.4029
  917TIP3    H224243   1.989   5.534   2.954 -1.0400  2.7696 -0.2371
  918TIP3   OH224244   2.906   3.234   3.495 -0.4357  0.0123  0.1237
  918TIP3    H124245   2.900   3.150   3.541  0.0749  0.2394  0.6199
  918TIP3    H224246   2.955   3.214   3.415  1.5311  0.2016  1.2197
  919TIP3   OH224247   1.846   1.450  17.510  0.3768 -0.1834 -0.3579
  919TIP3    H124248   1.808   1.537  17.494  1.6861  1.3708  3.7570
  919TIP3    H224249   1.941   1.465  17.506  0.6357 -1.7894 -0.8930
  920TIP3   OH224250   2.686   1.313   1.839 -0.3303  0.7146  0.5623
  920TIP3    H124251   2.720   1.328   1.751  0.6151  0.2712  0.8423
  920TIP3    H224252   2.591   1.306   1.827 -0.0772 -1.1515 -0.6827
  921TIP3   OH224253   6.257   1.426  17.158 -0.1246  0.1254 -0.4563
  921TIP3    H124254   6.248   1.468  17.243 -0.6995 -0.5409 -0.1773
  921TIP3    H224255   6.275   1.334  17.179 -2.2135 -0.4651 -1.0195
  922TIP3   OH224256   5.733   5.066   1.379  0.8928  0.0110  0.9258
  922TIP3    H124257   5.667   5.066   1.449 -0.1331  0.9587  0.0034
  922TIP3    H224258   5.756   4.973   1.368 -0.5373 -0.3851  1.0627
  923TIP3   OH224259   1.311   6.458   4.927 -0.2774  0.2245 -0.0890
  923TIP3    H124260   1.289   6.380   4.876  0.1648  0.2321 -0.2919
  923TIP3    H224261   1.226   6.498   4.947 -0.4235  0.8667 -1.8167
  924TIP3   OH224262   6.634   1.335  10.810  0.1913 -0.8719  0.5184
  924TIP3    H124263   6.725   1.363  10.822 -0.0500 -0.3686  1.2479
  924TIP3    H224264   6.640   1.256  10.757  0.9722 -0.0993 -0.5912
  925TIP3   OH224265   0.231   2.390   1.142  0.0060 -0.3748  0.4022
  925TIP3    H124266   0.161   2.435   1.190 -0.3919  2.4876 -2.4690
  925TIP3    H224267   0.187   2.349   1.068  1.0814 -0.4111 -0.2466
  926TIP3   OH224268   0.560   2.942   3.080  0.6571 -0.1961 -0.2584
  926TIP3    H124269   0.589   3.031   3.100  0.0894 -0.1439  0.3780
  926TIP3    H224270   0.578   2.892   3.160  0.5086 -0.5348 -0.4335
  927TIP3   OH224271   4.962   6.353  12.971 -0.2719  0.2500  0.0042
  927TIP3    H124272   4.972   6.380  13.062  0.3547  1.7179 -0.4716
  927TIP3    H224273   4.873   6.379  12.947 -0.5825 -0.5132  0.3050
  928TIP3   OH224274   1.238   0.369   5.145 -0.4911 -0.4922  0.0262
  928TIP3    H124275   1.300   0.350   5.074  0.3715  0.0651  0.6074
  928TIP3    H224276   1.256   0.302   5.210 -0.6590 -0.4663  0.0988
  929TIP3   OH224277   0.530   5.880  14.331 -0.8066  0.5529 -0.0377
  929TIP3    H124278   0.514   5.802  14.384 -0.0029  0.9112  0.7625
  929TIP3    H224279   0.443   5.917  14.317 -1.0413  0.4869  1.1198
  930TIP3   OH224280   5.992   4.013  13.797  0.1340 -0.8295 -0.4765
  930TIP3    H124281   5.920   4.001  13.735  0.1658 -1.0865 -0.4652
  930TIP3    H224282   6.025   4.101  13.779 -0.3277 -0.6242 -0.3296
  931TIP3   OH224283   4.449   1.442  12.415  0.0208  0.2952  0.4561
  931TIP3    H124284   4.441   1.450  12.511 -1.9098  0.8773  0.2839
  931TIP3    H224285   4.413   1.356  12.395  0.3161  0.2228  0.2172
  932TIP3   OH224286   2.370   6.560  12.105  0.3370  0.1320  0.0448
  932TIP3    H124287   2.363   6.527  12.194  0.6561  1.9429  0.7848
  932TIP3    H224288   2.280   6.566  12.073  0.1801  0.1077  0.4892
  933TIP3   OH224289   5.316   3.286   5.560  0.3321 -0.4705 -0.1532
  933TIP3    H124290   5.242   3.341   5.534  0.4183 -0.1164  0.3282
  933TIP3    H224291   5.289   3.197   5.537 -0.4788 -0.4126  0.5185
  934TIP3   OH224292   0.035   6.123  12.327 -0.0280  0.2730 -0.1791
  934TIP3    H124293   0.126   6.124  12.358  0.4162  2.4397 -1.3459
  934TIP3    H224294   0.018   6.214  12.302 -3.2963  0.4836  2.1713
  935TIP3   OH224295   1.710   0.265  12.596  0.1505  0.7872 -0.3530
  935TIP3    H124296   1.744   0.213  12.523 -1.4968  2.0097 -2.1180
  935TIP3    H224297   1.654   0.205  12.645  0.6134  0.1636 -0.5717
  936TIP3   OH224298   1.463   1.598   3.853 -0.3899 -0.6148 -0.3399
  936TIP3    H124299   1.456   1.513   3.809 -0.5669 -0.9030  0.2242
  936TIP3    H224300   1.424   1.583   3.940 -0.7531  0.1370 -0.3628
  937TIP3   OH224301   3.585   4.408   3.702  0.0030  0.3010 -0.2564
  937TIP3    H124302   3.551   4.412   3.612  1.2846 -0.7944 -0.8174
  937TIP3    H224303   3.508   4.392   3.756 -0.5215 -1.3277 -1.4101
  938TIP3   OH224304   4.205   2.532  12.471 -0.5342  0.1715  0.0676
  938TIP3    H124305   4.275   2.473  12.499  0.7105  0.7110 -1.7718
  938TIP3    H224306   4.244   2.619  12.473 -2.3383  1.0538  2.7092
  939TIP3   OH224307   0.261   5.483   4.618 -0.5969 -0.7539  0.3009
  939TIP3    H124308   0.336   5.477   4.559 -0.2733  1.8345  0.3252
  939TIP3    H224309   0.186   5.456   4.565 -0.3430  1.6170 -1.4384
  940TIP3   OH224310   3.518   3.133   2.366 -0.4566 -0.1725  0.6414
  940TIP3    H124311   3.434   3.176   2.381 -1.1106 -1.2282  0.1184
  940TIP3    H224312   3.540   3.094   2.451 -1.8717 -2.2112  0.1396
  941TIP3   OH224313   2.451   1.874  14.282 -0.0637  0.0162 -0.1843
  941TIP3    H124314   2.538   1.839  14.264  0.2061  0.5588  0.0585
  941TIP3    H224315   2.465   1.944  14.345 -0.5631  0.7419 -0.8611
  942TIP3   OH224316   5.841   3.949  12.863 -0.4532  0.0164  0.0359
  942TIP3    H124317   5.818   3.930  12.954  1.8053  1.0825  0.9057
  942TIP3    H224318   5.907   3.884  12.841 -1.6809 -0.8666 -1.2429
  943TIP3   OH224319   6.481   3.888   0.945  0.5888 -0.3857 -0.0615
  943TIP3    H124320   6.565   3.844   0.963  0.5897 -0.1425  0.5577
  943TIP3    H224321   6.506   3.974   0.912  0.5965  0.0919  1.1423
  944TIP3   OH224322   0.457   1.769  12.719 -0.1725 -0.0164  0.0330
  944TIP3    H124323   0.368   1.780  12.754  0.4083  0.3171  1.4358
  944TIP3    H224324   0.510   1.833  12.766  0.4846  1.1851 -2.1847
  945TIP3   OH224325   0.532   2.781  14.316  0.4253  0.3549 -0.6286
  945TIP3    H124326   0.513   2.764  14.224 -0.9488 -2.2161  0.0138
  945TIP3    H224327   0.622   2.749  14.328  0.8983  1.4391 -1.2223
  946TIP3   OH224328   4.902   0.280  17.033  0.1890  0.2097 -0.1223
  946TIP3    H124329   4.841   0.243  17.097  0.3536  0.1972  0.0279
  946TIP3    H224330   4.917   0.210  16.970 -0.3965  0.3982 -0.4755
  947TIP3   OH224331   3.797   4.408  14.540  0.1869  0.1380 -0.1385
  947TIP3    H124332   3.730   4.476  14.528 -1.1449 -1.0081  0.5120
  947TIP3    H224333   3.816   4.410  14.634 -0.2923 -0.7610 -0.0143
  948TIP3   OH224334   6.571   4.018  12.505 -0.1814  0.1074  0.2052
  948TIP3    H124335   6.583   3.925  12.524 -1.2928 -0.1309 -0.2241
  948TIP3    H224336   6.659   4.048  12.480  0.7440 -0.2307  2.7052
  949TIP3   OH224337   5.297   3.480  12.375 -0.1027  0.2455  0.2165
  949TIP3    H124338   5.391   3.499  12.365 -0.1736  1.2680  1.3057
  949TIP3    H224339   5.288   3.389  12.347  0.9235  0.6373 -1.5183
  950TIP3   OH224340   5.744   0.824   3.690  0.3747  0.1051  0.0698
  950TIP3    H124341   5.790   0.756   3.641  0.9187  0.0070  0.6978
  950TIP3    H224342   5.790   0.905   3.668  0.1362  0.1731 -0.1759
  951TIP3   OH224343   1.599   0.038  15.643  0.1548 -0.7439  0.1181
  951TIP3    H124344   1.529   0.077  15.591  0.5337 -1.1645 -0.7310
  951TIP3    H224345   1.619   0.104  15.710  1.1548  0.7814 -1.6036
  952TIP3   OH224346   6.126   2.611   3.427  0.8037 -0.6439 -0.1885
  952TIP3    H124347   6.167   2.621   3.342 -0.4258  0.0910 -0.7150
  952TIP3    H224348   6.032   2.607   3.409  0.5802 -2.1158  0.9884
  953TIP3   OH224349   2.339   3.264   5.256  0.5621 -0.1259  0.5611
  953TIP3    H124350   2.293   3.244   5.338 -0.1479  0.6798  0.3773
  953TIP3    H224351   2.431   3.268   5.280  0.3471  0.2718  1.3640
  954TIP3   OH224352   2.611   1.901   5.882  0.4277 -0.2444 -0.1700
  954TIP3    H124353   2.676   1.953   5.835 -0.5942 -0.7979 -2.3258
  954TIP3    H224354   2.528   1.944   5.862 -0.2988 -1.9696 -1.0270
  955TIP3   OH224355   3.754   0.450  12.557 -1.0020 -0.3507 -0.1712
  955TIP3    H124356   3.799   0.366  12.547 -1.0562 -0.2962 -0.9437
  955TIP3    H224357   3.772   0.477  12.647  3.0494  1.1042 -1.2348
  956TIP3   OH224358   2.240   3.910  17.303  0.0974 -0.2367 -0.1197
  956TIP3    H124359   2.288   3.955  17.372 -1.7149  0.3142  0.8419
  956TIP3    H224360   2.219   3.979  17.240  1.0212 -0.5833 -0.8287
  957TIP3   OH224361   5.511   2.540   4.647 -0.3189  0.2605 -0.1840
  957TIP3    H124362   5.574   2.511   4.580 -0.8086 -0.9099 -0.1624
  957TIP3    H224363   5.451   2.597   4.600 -2.1109 -2.4167 -1.3986
  958TIP3   OH224364   5.209   5.321  11.942  0.0485  0.1683  0.2694
  958TIP3    H124365   5.141   5.351  11.882 -0.9337 -0.8187  0.8357
  958TIP3    H224366   5.271   5.274  11.886 -0.0989  0.4862 -0.1665
  959TIP3   OH224367   4.925   5.075  14.745 -0.7470  0.7604  0.0780
  959TIP3    H124368   4.846   5.023  14.757 -1.1017  0.9875 -1.1664
  959TIP3    H224369   4.980   5.023  14.687 -0.3067  0.9608  0.3048
  960TIP3   OH224370   0.709   1.881  11.589  0.0249 -0.0473 -0.1951
  960TIP3    H124371   0.741   1.969  11.610  1.1196 -0.7913  1.4463
  960TIP3    H224372   0.633   1.869  11.647 -2.6024  1.1791 -3.0936
  961TIP3   OH224373   1.277   2.388  11.543 -0.3508 -0.0569  0.3921
  961TIP3    H124374   1.230   2.471  11.543  0.7192  0.5717  0.1133
  961TIP3    H224375   1.349   2.400  11.604  0.7078 -0.2264 -0.7628
  962TIP3   OH224376   1.478   5.844   2.463  0.0355  0.4397 -0.5162
  962TIP3    H124377   1.407   5.830   2.526  0.5141 -0.8612 -0.2387
  962TIP3    H224378   1.529   5.764   2.466  0.5154  0.6503 -2.0143
  963TIP3   OH224379   1.742   5.341   4.500 -0.0948  0.2834  0.6166
  963TIP3    H124380   1.792   5.379   4.572 -1.1081  1.0372  0.9482
  963TIP3    H224381   1.725   5.251   4.528 -1.9603  1.0435  2.1757
  964TIP3   OH224382   0.559   1.920  11.812 -0.0756  0.6596  0.2371
  964TIP3    H124383   0.501   1.943  11.884  0.0473 -2.1691  1.3627
  964TIP3    H224384   0.647   1.922  11.851  0.0021 -0.7905  0.1710
  965TIP3   OH224385   6.345   6.470   1.526  0.1834  0.4782 -0.1650
  965TIP3    H124386   6.301   6.397   1.569  0.6658  0.4411  0.2839
  965TIP3    H224387   6.421   6.488   1.581  0.3745  0.9597 -0.5715
  966TIP3   OH224388   3.916   2.133  15.799 -0.3771  0.1512 -0.4819
  966TIP3    H124389   3.867   2.053  15.781  1.0318 -0.9695  0.3926
  966TIP3    H224390   4.001   2.102  15.831  0.1539  2.0083  0.0316
  967TIP3   OH224391   5.541   5.989  14.738  0.2320 -0.3703 -0.3834
  967TIP3    H124392   5.575   5.902  14.757  0.2110 -0.4078 -0.5179
  967TIP3    H224393   5.457   5.973  14.695  0.5386 -0.2990 -1.0272
  968TIP3   OH224394   1.429   6.346  13.590  0.3632 -0.3729  0.0108
  968TIP3    H124395   1.412   6.315  13.501  1.1089 -0.2608 -0.1693
  968TIP3    H224396   1.343   6.375  13.621  0.2932  0.6792 -1.0879
  969TIP3   OH224397   1.663   4.797  16.317 -0.2850 -0.3660  0.5817
  969TIP3    H124398   1.743   4.766  16.274  0.1580  0.0203  1.1201
  969TIP3    H224399   1.692   4.867  16.375 -0.5698 -2.1013  2.9410
  970TIP3   OH224400   1.044   4.440  17.170  0.2509 -0.0001  0.3394
  970TIP3    H124401   0.963   4.454  17.121 -0.8830 -3.0021  1.1086
  970TIP3    H224402   1.020   4.462  17.261  0.5307 -0.1200  0.4431
  971TIP3   OH224403   1.485   0.683   2.705  0.6553  0.0151 -0.1261
  971TIP3    H124404   1.445   0.626   2.772  1.5428  0.8226  1.1331
  971TIP3    H224405   1.427   0.674   2.629  0.1057 -1.6289  0.4287
  972TIP3   OH224406   0.512   5.817   3.387 -0.0967 -0.4709 -0.0157
  972TIP3    H124407   0.475   5.867   3.315  0.1339 -0.9397 -0.4671
  972TIP3    H224408   0.448   5.748   3.404 -0.8648  0.4827  1.2201
  973TIP3   OH224409   6.366   4.985  13.847  0.1650 -0.0867  0.1547
  973TIP3    H124410   6.357   4.980  13.752  0.8878  1.0191  0.0031
  973TIP3    H224411   6.280   4.962  13.881 -0.6706  1.3672 -0.8584
  974TIP3   OH224412   6.555   2.814   0.608 -0.1295 -0.2125 -0.0964
  974TIP3    H124413   6.509   2.833   0.690 -1.3734  0.0516 -0.8326
  974TIP3    H224414   6.648   2.821   0.631 -0.4602  1.1810  0.9839
  975TIP3   OH224415   2.388   0.870  15.288  0.3889  0.2434 -0.1169
  975TIP3    H124416   2.323   0.912  15.232  0.1966  1.0846  0.7178
  975TIP3    H224417   2.336   0.818  15.349  0.5260  0.5520  0.2590
  976TIP3   OH224418   0.087   4.186   3.493  0.4707  0.4604 -0.5533
  976TIP3    H124419   0.022   4.256   3.496 -0.8834 -0.7285 -1.1584
  976TIP3    H224420   0.100   4.162   3.585  2.4712  2.7829 -0.1211
  977TIP3   OH224421   1.901   0.346   0.186 -0.0782  0.0026 -0.4672
  977TIP3    H124422   1.985   0.391   0.177 -0.8503  2.0134  1.5052
  977TIP3    H224423   1.846   0.383   0.117  0.0522  0.1769 -0.4762
  978TIP3   OH224424   4.522   4.348   1.475  0.1064 -0.2783  0.1656
  978TIP3    H124425   4.520   4.441   1.451  0.3958 -0.4221 -0.4327
  978TIP3    H224426   4.430   4.323   1.481 -0.0047 -0.4049 -1.5128
  979TIP3   OH224427   4.337   3.084  14.527 -0.2428 -0.9078  0.5713
  979TIP3    H124428   4.336   3.162  14.581 -1.3915  0.5074 -1.3758
  979TIP3    H224429   4.250   3.079  14.489  0.4835 -1.8337 -1.1130
  980TIP3   OH224430   3.440   1.201  17.232 -0.5976  0.2591 -0.3170
  980TIP3    H124431   3.475   1.210  17.321  1.6578  0.4370 -1.1560
  980TIP3    H224432   3.457   1.285  17.191 -4.6520  1.4405 -0.0609
  981TIP3   OH224433   0.014   1.235  11.147  0.0364  0.1523 -0.1977
  981TIP3    H124434  -0.046   1.291  11.099 -0.1945 -0.5787 -0.7688
  981TIP3    H224435   0.095   1.237  11.097 -0.1631 -0.5041 -0.5616
  982TIP3   OH224436   4.951   1.215  17.158 -0.2729 -0.1322 -0.3944
  982TIP3    H124437   4.876   1.268  17.132 -0.8048 -1.6726 -2.2522
  982TIP3    H224438   4.916   1.155  17.224 -0.2075  0.3841  0.1123
  983TIP3   OH224439   5.647   2.243   5.667  0.5952 -0.1856  0.3932
  983TIP3    H124440   5.724   2.251   5.610  0.1843 -1.5217 -0.3943
  983TIP3    H224441   5.573   2.265   5.610  0.2883 -0.1248  0.8088
  984TIP3   OH224442   0.542   3.850   3.509  0.2792  0.2595  0.2448
  984TIP3    H124443   0.497   3.800   3.578  0.0227  0.6630  0.3693
  984TIP3    H224444   0.489   3.835   3.431  0.8165 -0.5620  0.0261
  985TIP3   OH224445   1.828   2.398   0.520 -0.2276 -0.0585 -0.1390
  985TIP3    H124446   1.825   2.449   0.439 -1.7279 -0.3359 -0.2888
  985TIP3    H224447   1.814   2.308   0.492  0.0393 -0.2519  0.3528
  986TIP3   OH224448   3.545   0.620   0.845  0.5304  0.3038  0.1733
  986TIP3    H124449   3.568   0.645   0.756  0.4499 -2.6149 -0.7791
  986TIP3    H224450   3.629   0.613   0.890  0.7554 -0.2034 -0.3071
  987TIP3   OH224451   6.455   2.366  16.277 -0.1817 -0.5546 -0.0189
  987TIP3    H124452   6.548   2.388  16.275 -0.2176 -0.4219 -0.3778
  987TIP3    H224453   6.429   2.362  16.184 -0.4288 -1.0288  0.0675
  988TIP3   OH224454   5.841   2.335   0.487  0.0588 -0.3876 -0.2258
  988TIP3    H124455   5.789   2.322   0.407 -0.3331 -2.2794  0.2744
  988TIP3    H224456   5.784   2.302   0.557  1.8298 -2.4280  0.3612
  989TIP3   OH224457   5.074   6.460   1.697  0.5992  0.0879  0.4547
  989TIP3    H124458   5.018   6.490   1.768  0.4534 -0.4563  0.5758
  989TIP3    H224459   5.040   6.504   1.619  2.5744  3.0484  1.1076
  990TIP3   OH224460   5.440   4.947   4.821  0.4353  0.4968 -1.0564
  990TIP3    H124461   5.467   5.014   4.884 -0.5029  1.4547 -1.6232
  990TIP3    H224462   5.453   4.864   4.867  0.4750  1.1304  0.1250
  991TIP3   OH224463   2.704   6.366   4.473 -0.0880  0.1792 -0.4917
  991TIP3    H124464   2.639   6.374   4.543  0.3298  1.6951 -0.2529
  991TIP3    H224465   2.684   6.281   4.433 -0.6382 -0.5033  1.1328
  992TIP3   OH224466   0.938   3.595   2.472 -0.4768 -0.0569  0.0297
  992TIP3    H124467   0.979   3.612   2.387  2.3059 -1.9847  0.8485
  992TIP3    H224468   0.899   3.508   2.464 -1.5581  0.3814  0.3047
  993TIP3   OH224469   5.776   3.857  13.164 -0.4402 -0.0062  0.7766
  993TIP3    H124470   5.681   3.846  13.170 -0.6691  1.5387  0.4562
  993TIP3    H224471   5.798   3.909  13.241 -0.0573  0.7456  0.1690
  994TIP3   OH224472   0.852   6.604   4.045 -0.1643 -0.6174  0.0430
  994TIP3    H124473   0.791   6.603   4.119  0.0433  1.7834  0.3373
  994TIP3    H224474   0.894   6.519   4.048  0.4007 -0.3773  3.2218
  995TIP3   OH224475   4.290   1.823   5.646 -0.0176  0.1290  0.3366
  995TIP3    H124476   4.334   1.772   5.578  1.5650 -0.2525  1.5690
  995TIP3    H224477   4.340   1.803   5.726 -1.7403  0.6239  1.5952
  996TIP3   OH224478   1.596   5.335  11.308 -0.8335  0.7152 -0.4848
  996TIP3    H124479   1.614   5.342  11.214  1.0394  1.5673 -0.1033
  996TIP3    H224480   1.665   5.387  11.350 -2.0599  0.9687  1.3402
  997TIP3   OH224481   5.864   3.970  15.846 -0.8314  0.5586 -0.2600
  997TIP3    H124482   5.854   3.980  15.751  1.1786 -0.9377 -0.7213
  997TIP3    H224483   5.810   3.895  15.868 -1.9351  1.3958 -0.0439
  998TIP3   OH224484   0.996   2.964   6.589  0.0409 -0.6833 -0.5420
  998TIP3    H124485   1.019   2.929   6.503  0.6346 -0.4231 -0.4971
  998TIP3    H224486   1.048   2.914   6.651 -0.9608 -1.3956 -0.2535
  999TIP3   OH224487   3.645   2.114   2.802  0.3587  0.1382  0.1113
  999TIP3    H124488   3.638   2.204   2.772  0.2494 -0.2132 -0.9659
  999TIP3    H224489   3.639   2.061   2.722  0.9305 -0.8035  0.6636
 1000TIP3   OH224490   3.905   0.292   4.258  0.1013  0.2683 -0.7328
 1000TIP3    H124491   3.920   0.376   4.215  1.3899  0.8437  0.7467
 1000TIP3    H224492   3.823   0.260   4.220 -0.2062  1.9840 -1.6195
 1001TIP3   OH224493   1.133   0.057  11.289 -0.4982  0.9430  0.1581
 1001TIP3    H124494   1.091   0.007  11.218 -0.9048  1.4506  0.0339
 1001TIP3    H224495   1.224   0.065  11.261 -0.4968  0.5459  0.0298
 1002TIP3   OH224496   6.372   5.498   3.592 -0.6983 -0.5933  0.6121
 1002TIP3    H124497   6.334   5.411   3.582 -1.2929 -0.2884  0.1932
 1002TIP3    H224498   6.444   5.486   3.655 -1.2460 -1.2415  1.1211
 1003TIP3   OH224499   4.377   6.629   3.875  0.0827  0.0710 -0.5150
 1003TIP3    H124500   4.325   6.602   3.799 -1.3465 -0.0785  0.4635
 1003TIP3    H224501   4.338   6.713   3.901 -0.3296 -0.4998  0.8109
 1004TIP3   OH224502   6.534   2.011  17.471  0.3217 -0.7199 -0.1022
 1004TIP3    H124503   6.477   1.976  17.403  0.1498  1.3258 -1.1112
 1004TIP3    H224504   6.475   2.058  17.530  0.7237 -0.3988  0.0539
 1005TIP3   OH224505   1.628   0.762  13.162 -0.0562  0.5585 -0.4905
 1005TIP3    H124506   1.583   0.828  13.215  1.5509  1.4676 -0.1912
 1005TIP3    H224507   1.610   0.679  13.206  0.6700  1.2060  1.1160
 1006TIP3   OH224508   0.498   6.032   3.198 -0.3833  0.7013  0.2296
 1006TIP3    H124509   0.564   6.029   3.128  0.3127 -3.3724  0.7748
 1006TIP3    H224510   0.493   6.124   3.222  0.2144  2.2017 -4.2907
 1007TIP3   OH224511   5.178   1.751  16.025  0.1128  0.3603  0.1004
 1007TIP3    H124512   5.156   1.829  16.076 -0.7532 -0.5358  1.1209
 1007TIP3    H224513   5.243   1.705  16.077  1.6602  1.0356 -1.1303
 1008TIP3   OH224514   2.551   2.682   5.894 -0.4332  0.4280  0.2594
 1008TIP3    H124515   2.462   2.649   5.903 -0.5169  0.5046 -0.2919
 1008TIP3    H224516   2.541   2.777   5.891 -0.2508  0.4872  1.1280
 1009TIP3   OH224517   5.698   0.463  14.648 -0.2566 -0.1135 -0.2127
 1009TIP3    H124518   5.775   0.518  14.638 -0.1693 -0.4584 -1.6367
 1009TIP3    H224519   5.716   0.386  14.594 -1.1999 -0.6322  0.1905
 1010TIP3   OH224520   6.266   0.369  14.212 -0.0337  0.8478  0.2248
 1010TIP3    H124521   6.238   0.334  14.297  0.7579  0.4875  0.3470
 1010TIP3    H224522   6.185   0.397  14.170 -0.8421 -1.7797 -0.1773
 1011TIP3   OH224523   1.244   5.017  14.842  0.0087 -0.0804  0.0187
 1011TIP3    H124524   1.234   5.112  14.832 -1.8617  0.0238  1.9828
 1011TIP3    H224525   1.236   4.983  14.753 -0.8165  1.5245 -0.5719
 1012TIP3   OH224526   1.118   0.095  14.980 -0.0699  0.0593  0.3825
 1012TIP3    H124527   1.098   0.175  14.932  1.2294 -0.0864 -0.4364
 1012TIP3    H224528   1.032   0.060  15.003 -0.7428  0.3778 -1.4354
 1013TIP3   OH224529   0.746   1.348   4.336 -0.3566 -0.5753  0.0178
 1013TIP3    H124530   0.785   1.434   4.315  1.1372 -1.4111 -0.8313
 1013TIP3    H224531   0.652   1.362   4.330 -0.2617  1.5258  2.0280
 1014TIP3   OH224532   0.805   6.196  17.038 -0.6006 -0.2441 -0.1437
 1014TIP3    H124533   0.756   6.268  17.077 -1.4129  0.1664 -1.8317
 1014TIP3    H224534   0.870   6.172  17.104 -1.5953  0.7203  1.2243
 1015TIP3   OH224535   0.535   1.889  15.291  0.7184 -0.4454  0.0432
 1015TIP3    H124536   0.508   1.925  15.207 -0.1714  1.8047  1.2201
 1015TIP3    H224537   0.630   1.880  15.283  0.6577 -0.2439 -1.1608
 1016TIP3   OH224538   6.375   6.028   1.448 -1.2249  0.2041 -0.0250
 1016TIP3    H124539   6.324   6.104   1.422  1.1424  2.4465  1.3501
 1016TIP3    H224540   6.453   6.032   1.393 -0.5989 -0.6288  0.7633
 1017TIP3   OH224541   5.847   1.655  16.533 -0.7911 -0.8737  0.4960
 1017TIP3    H124542   5.913   1.615  16.476 -0.4455  0.3811 -0.0024
 1017TIP3    H224543   5.800   1.580  16.570  1.3480 -1.8622  1.4455
 1018TIP3   OH224544   1.874   1.399   1.298  0.6363  0.0881  0.2028
 1018TIP3    H124545   1.943   1.345   1.260 -0.8371 -0.2871 -2.0912
 1018TIP3    H224546   1.816   1.420   1.225 -1.8171  0.2087  2.0516
 1019TIP3   OH224547   6.258   6.320  12.513 -0.3540  0.2099  0.4864
 1019TIP3    H124548   6.306   6.239  12.526 -1.1052 -0.8261 -2.4886
 1019TIP3    H224549   6.175   6.307  12.560 -0.2679 -0.5444  0.4330
 1020TIP3   OH224550   0.509   5.170   1.972  0.6633 -0.3755  0.0759
 1020TIP3    H124551   0.536   5.260   1.953  2.3201 -1.0987 -1.1934
 1020TIP3    H224552   0.553   5.148   2.054  1.2347 -0.4234 -0.2413
 1021TIP3   OH224553   1.688   5.105   5.942  0.3950  0.0603 -0.0131
 1021TIP3    H124554   1.610   5.084   5.891  0.6893  2.8808 -1.8397
 1021TIP3    H224555   1.658   5.171   6.005  1.0919  0.4493 -0.0783
 1022TIP3   OH224556   6.678   5.195  17.424  0.6599  0.5080  0.5962
 1022TIP3    H124557   6.680   5.182  17.329  0.3802  1.1227  0.5017
 1022TIP3    H224558   6.646   5.113  17.459 -0.5202  0.7227  0.0565
 1023TIP3   OH224559   6.422   3.130   2.030  0.1783  0.5622  0.2666
 1023TIP3    H124560   6.342   3.079   2.017 -0.4992  1.7360 -0.3901
 1023TIP3    H224561   6.457   3.144   1.942  1.2722 -0.1683  0.5703
 1024TIP3   OH224562   0.774   2.683  12.981 -0.3466  0.0919 -0.0175
 1024TIP3    H124563   0.834   2.613  13.008 -1.0573 -0.4091  0.2990
 1024TIP3    H224564   0.688   2.640  12.976 -1.0364  1.2371  1.4769
 1025TIP3   OH224565   2.389   3.902  17.647  0.6150  0.5695 -0.2550
 1025TIP3    H124566   2.321   3.969  17.654  1.4753  1.3963  0.4086
 1025TIP3    H224567   2.373   3.843  17.721  0.7278  0.8815  0.0231
 1026TIP3   OH224568   4.971   0.388  17.384 -0.3591  0.4838  0.0469
 1026TIP3    H124569   5.035   0.326  17.348  0.7698  0.6831  1.5739
 1026TIP3    H224570   4.888   0.340  17.382  0.3809 -0.8893  0.6357
 1027TIP3   OH224571   2.587   3.106  15.263 -0.2177  0.6083  0.0389
 1027TIP3    H124572   2.522   3.045  15.298  0.8871 -0.8743 -0.4439
 1027TIP3    H224573   2.535   3.183  15.237 -1.6834 -0.2485  0.3299
 1028TIP3   OH224574   4.187   1.061  13.364 -0.5301  0.2944 -0.3027
 1028TIP3    H124575   4.240   1.065  13.444  0.5077  3.1309 -1.0229
 1028TIP3    H224576   4.102   1.099  13.389 -1.6802 -2.5049  0.3692
 1029TIP3   OH224577   3.090   5.617  11.761  0.1291 -0.0154  0.2188
 1029TIP3    H124578   3.067   5.700  11.718 -0.9315 -0.4122 -0.0073
 1029TIP3    H224579   3.141   5.643  11.837  0.4637  0.8065 -0.2700
 1030TIP3   OH224580   0.533   2.134   0.692 -0.2959  0.3004 -0.5362
 1030TIP3    H124581   0.530   2.229   0.698 -1.3697  0.2547 -0.2017
 1030TIP3    H224582   0.574   2.106   0.775 -1.7122  0.3947  0.2245
 1031TIP3   OH224583   5.575   1.220  14.166  1.0641 -0.0938 -0.1292
 1031TIP3    H124584   5.514   1.243  14.236  1.4526  1.1064 -0.1514
 1031TIP3    H224585   5.662   1.231  14.205  1.3358  2.0953 -1.1618
 1032TIP3   OH224586   6.628   1.024   4.424  0.5504 -0.2085  0.0076
 1032TIP3    H124587   6.679   0.997   4.500  1.0110  0.1987 -0.1557
 1032TIP3    H224588   6.654   0.963   4.355 -0.1219 -0.7963  0.2611
 1033TIP3   OH224589   2.864   2.926   0.269 -0.2344  0.2656  0.3673
 1033TIP3    H124590   2.891   2.909   0.359 -0.1337  2.1212  0.7326
 1033TIP3    H224591   2.938   2.973   0.231 -1.1558  1.4749  0.0245
 1034TIP3   OH224592   2.658   1.919   4.472 -0.0178 -0.1764  0.2421
 1034TIP3    H124593   2.672   1.851   4.538 -1.7700 -0.0297  0.8228
 1034TIP3    H224594   2.744   1.933   4.433  0.3260 -3.0655 -0.2433
 1035TIP3   OH224595   3.717   3.874  16.481  0.5447  0.3768 -0.4816
 1035TIP3    H124596   3.659   3.885  16.557  2.1099  2.6895  0.4928
 1035TIP3    H224597   3.671   3.811  16.425 -2.4733  1.3708  0.6522
 1036TIP3   OH224598   5.171   5.820   5.985 -0.0035 -0.2773 -0.7308
 1036TIP3    H124599   5.194   5.808   6.078 -0.2123  0.3424 -0.5968
 1036TIP3    H224600   5.120   5.742   5.964 -0.5762 -0.0826 -0.1167
 1037TIP3   OH224601   3.958   1.824   3.121 -0.1745 -0.3981  0.2604
 1037TIP3    H124602   3.923   1.901   3.075 -1.5070 -1.2097 -0.1148
 1037TIP3    H224603   4.050   1.820   3.092 -0.6264 -0.1224 -1.3184
 1038TIP3   OH224604   3.113   1.536   2.853 -0.0089 -0.6478  0.2140
 1038TIP3    H124605   3.062   1.493   2.922 -0.8926 -1.3685 -0.8465
 1038TIP3    H224606   3.165   1.466   2.815  1.7152  0.0569  1.1859
 1039TIP3   OH224607   2.386   1.161   5.987 -0.3092 -0.2115  0.4525
 1039TIP3    H124608   2.383   1.180   5.893 -2.6905 -1.8845  0.1236
 1039TIP3    H224609   2.475   1.128   6.002  0.0141 -0.1959 -1.2395
 1040TIP3   OH224610   3.284   5.606   0.032 -0.4009 -0.0918 -0.2100
 1040TIP3    H124611   3.367   5.639  -0.004 -0.4676  0.4775  0.1365
 1040TIP3    H224612   3.301   5.514   0.049  0.2642  0.0850  0.1408
 1041TIP3   OH224613   1.131   4.358  16.032  0.1016  0.0162  0.1605
 1041TIP3    H124614   1.193   4.355  16.105 -1.7883 -0.6932  1.8278
 1041TIP3    H224615   1.184   4.384  15.957  2.5656 -1.2456  1.3244
 1042TIP3   OH224616   1.469   2.065  17.297  0.2479  0.1916 -0.0060
 1042TIP3    H124617   1.546   2.119  17.319  1.0896 -0.2829 -1.6420
 1042TIP3    H224618   1.441   2.097  17.211 -2.5151  1.5330  1.2591
 1043TIP3   OH224619   3.621   2.765  16.410 -0.3171 -0.0105 -0.3546
 1043TIP3    H124620   3.630   2.735  16.500 -0.4446  0.9073 -0.0218
 1043TIP3    H224621   3.540   2.816  16.410 -0.6097 -0.4623 -1.1202
 1044TIP3   OH224622   4.913   3.529  17.118  1.2968  0.3969 -0.8553
 1044TIP3    H124623   4.888   3.562  17.031 -1.2425 -0.9067 -0.7093
 1044TIP3    H224624   4.963   3.449  17.099 -0.8668 -0.9677 -1.2203
 1045TIP3   OH224625   2.976   0.971  14.706 -0.2336 -1.2864  0.9986
 1045TIP3    H124626   2.996   1.045  14.763 -2.7383 -1.1707  1.8349
 1045TIP3    H224627   3.054   0.915  14.711  1.7961  1.2590  0.2338
 1046TIP3   OH224628   1.783   1.155   6.077  0.1566  0.3124 -0.1234
 1046TIP3    H124629   1.782   1.219   6.006  3.1966 -0.5430 -1.0831
 1046TIP3    H224630   1.840   1.193   6.144 -0.2401 -0.2098  0.5287
 1047TIP3   OH224631   4.563   1.063  11.176  0.1495 -0.0577 -0.0523
 1047TIP3    H124632   4.498   1.117  11.132  1.3170  1.0842 -0.4349
 1047TIP3    H224633   4.615   1.025  11.105  0.8204  0.2376  0.2691
 1048TIP3   OH224634   4.032   1.822  13.160 -0.1906 -0.3027 -0.2018
 1048TIP3    H124635   4.091   1.829  13.235  1.4517  0.6021 -1.5179
 1048TIP3    H224636   3.974   1.750  13.182  1.4607 -1.2981  1.1253
 1049TIP3   OH224637   0.636   5.494   6.668  0.0451 -0.1879  0.3670
 1049TIP3    H124638   0.666   5.582   6.692 -2.0284  0.3984  0.9531
 1049TIP3    H224639   0.672   5.437   6.736  2.2678 -0.0249 -0.5650
 1050TIP3   OH224640   4.562   4.156  15.797  0.0747 -0.1229  0.0637
 1050TIP3    H124641   4.597   4.175  15.884  0.0494 -1.9524  0.4955
 1050TIP3    H224642   4.469   4.141  15.811 -0.1219  0.5634 -0.4529
 1051TIP3   OH224643   6.187   1.792  11.871  0.3306  0.4562  0.5584
 1051TIP3    H124644   6.106   1.841  11.858  0.6039  1.1612  1.4224
 1051TIP3    H224645   6.159   1.708  11.908 -0.0742  0.3123 -0.0703
 1052TIP3   OH224646   5.537   6.071   3.634 -0.0854 -0.3419  0.1807
 1052TIP3    H124647   5.462   6.089   3.691  1.2259 -1.0672  2.2480
 1052TIP3    H224648   5.614   6.084   3.690  1.2675 -1.8224 -1.2232
 1053TIP3   OH224649   0.295   0.467   2.034  0.2046  0.5575  0.0840
 1053TIP3    H124650   0.352   0.523   2.087  1.2424  0.9678 -1.4246
 1053TIP3    H224651   0.210   0.512   2.035  0.6184  1.3497  0.1607
 1054TIP3   OH224652   2.670   6.315  12.744  0.0024 -0.0321  0.5094
 1054TIP3    H124653   2.582   6.342  12.718  0.1066  1.0028  1.1481
 1054TIP3    H224654   2.657   6.232  12.790 -0.3950 -0.9002 -1.0932
 1055TIP3   OH224655   2.486   6.149   4.171  0.5375  0.0147  0.1781
 1055TIP3    H124656   2.530   6.205   4.107 -0.5333  0.5152 -0.1338
 1055TIP3    H224657   2.476   6.204   4.248  3.5386 -1.1495  1.5449
 1056TIP3   OH224658   5.373   5.969  15.615  0.1092  0.6409 -0.1562
 1056TIP3    H124659   5.289   5.950  15.657 -0.5259  1.3415 -1.0753
 1056TIP3    H224660   5.369   6.062  15.594  0.7977  0.5088 -0.9079
 1057TIP3   OH224661   2.040   1.158  12.469  0.1474  1.1429 -0.2047
 1057TIP3    H124662   1.994   1.184  12.549  2.4326 -0.2554  1.6965
 1057TIP3    H224663   2.005   1.071  12.448  0.8768  0.6779  0.4404
 1058TIP3   OH224664   5.560   6.415   0.969  0.3842 -0.2349  0.1190
 1058TIP3    H124665   5.504   6.419   1.047  2.2215 -0.9436  1.5554
 1058TIP3    H224666   5.561   6.505   0.936 -1.1583 -0.1053  0.3385
 1059TIP3   OH224667   1.666   0.155   4.753 -0.3101  0.2167 -0.0623
 1059TIP3    H124668   1.597   0.211   4.718  0.4912  0.5292 -1.2010
 1059TIP3    H224669   1.680   0.089   4.684  0.5725  0.2056  0.1231
 1060TIP3   OH224670   3.405   6.644  13.804  0.3777 -0.1017  0.0043
 1060TIP3    H124671   3.334   6.581  13.817 -0.2482  0.6754  0.4406
 1060TIP3    H224672   3.425   6.639  13.711  1.6535 -2.3114  0.3337
 1061TIP3   OH224673   4.978   3.994   0.919  0.1631  0.3514 -0.1892
 1061TIP3    H124674   5.001   4.063   0.856  0.6437 -1.2395 -1.8510
 1061TIP3    H224675   5.060   3.976   0.966 -0.0801  1.2200  0.5830
 1062TIP3   OH224676   5.811   4.166  17.198  0.1250 -0.2214 -0.2957
 1062TIP3    H124677   5.904   4.162  17.217  0.1694 -0.9797 -0.6283
 1062TIP3    H224678   5.789   4.078  17.166 -0.3115  0.4737 -1.9916
 1063TIP3   OH224679   0.522   5.376   6.078  0.0355  0.3967 -0.4782
 1063TIP3    H124680   0.447   5.342   6.127  1.1185 -0.4230  0.6592
 1063TIP3    H224681   0.560   5.299   6.036  0.1149  0.8503 -1.2561
 1064TIP3   OH224682   3.609   0.010  17.321 -0.2935 -0.1696  0.5964
 1064TIP3    H124683   3.528  -0.025  17.285 -0.3616  1.3534 -0.8358
 1064TIP3    H224684   3.623   0.093  17.275  2.5924 -0.8342  0.0388
 1065TIP3   OH224685   3.234   0.849   2.104 -0.7486  0.1910 -0.1481
 1065TIP3    H124686   3.188   0.932   2.105 -2.4778 -0.6656 -1.8064
 1065TIP3    H224687   3.175   0.789   2.059  0.9337 -1.6573 -0.0619
 1066TIP3   OH224688   6.596   4.326   0.842 -0.4129  0.4534  0.0596
 1066TIP3    H124689   6.562   4.265   0.907 -1.1805  0.6685 -0.1179
 1066TIP3    H224690   6.628   4.270   0.771 -0.2939  0.2371  0.2833
 1067TIP3   OH224691   4.907   2.775   2.642 -0.5978 -0.3490  0.0323
 1067TIP3    H124692   4.875   2.693   2.681 -0.0917 -0.3007  0.5580
 1067TIP3    H224693   4.969   2.748   2.576  0.7228 -0.3727  1.2362
 1068TIP3   OH224694   3.811   5.435   3.902  0.4235 -0.1057  0.3465
 1068TIP3    H124695   3.725   5.463   3.874  0.4154 -0.8672 -0.4406
 1068TIP3    H224696   3.794   5.379   3.978  0.1353 -1.0036 -0.3631
 1069TIP3   OH224697   1.966   5.470  14.954 -0.4911 -0.5533  0.0291
 1069TIP3    H124698   1.886   5.517  14.932 -0.7732 -0.9138  0.2750
 1069TIP3    H224699   2.003   5.518  15.028 -0.9682 -0.9325  0.5124
 1070TIP3   OH224700   6.195   2.717   5.834 -0.2360  0.5850 -0.2191
 1070TIP3    H124701   6.126   2.782   5.847 -1.3074 -0.1837 -1.7443
 1070TIP3    H224702   6.168   2.642   5.887 -1.1103 -0.0546 -1.5005
 1071TIP3   OH224703   6.651   6.035   1.308  0.3902  0.3988  0.5120
 1071TIP3    H124704   6.738   6.064   1.284  0.5964 -1.3418 -1.1099
 1071TIP3    H224705   6.666   5.957   1.363 -0.0343 -1.3961 -1.7528
 1072TIP3   OH224706   2.255   6.389  15.805 -0.1669  0.2631  0.3173
 1072TIP3    H124707   2.280   6.312  15.755 -0.7941  0.7079 -0.7186
 1072TIP3    H224708   2.288   6.372  15.893 -0.9431 -1.5210  0.3059
 1073TIP3   OH224709   0.302   0.292   2.847 -0.6314 -0.2203  0.7303
 1073TIP3    H124710   0.208   0.299   2.858 -0.8625  0.3939 -1.1979
 1073TIP3    H224711   0.319   0.198   2.844 -1.0502 -0.3411  1.9245
 1074TIP3   OH224712   6.313   3.250  17.195 -0.0615  0.5186 -0.2794
 1074TIP3    H124713   6.367   3.225  17.270  2.1526 -1.3442 -2.3469
 1074TIP3    H224714   6.256   3.175  17.179 -0.0037  0.6091 -0.9263
 1075TIP3   OH224715   6.064   2.840  14.854  0.2193 -0.4562 -0.0531
 1075TIP3    H124716   5.983   2.891  14.861  0.1061 -0.4923 -1.0101
 1075TIP3    H224717   6.054   2.770  14.919  1.1968  1.7862  2.6670
 1076TIP3   OH224718   1.721   1.277  11.857  0.2416  0.1502  0.1644
 1076TIP3    H124719   1.717   1.343  11.787 -1.1445 -0.8177 -0.7241
 1076TIP3    H224720   1.638   1.288  11.904  0.5226 -0.1943  0.7452
 1077TIP3   OH224721   4.749   3.803  16.932  0.3830  0.5312 -0.3190
 1077TIP3    H124722   4.749   3.823  16.839  0.7982  1.2289 -0.1776
 1077TIP3    H224723   4.701   3.721  16.939  0.9958  0.0825 -1.2243
 1078TIP3   OH224724   1.427   2.498  14.641 -0.1113 -0.2375  0.1279
 1078TIP3    H124725   1.350   2.490  14.697 -0.4717  1.3434 -0.1004
 1078TIP3    H224726   1.392   2.501  14.552  0.3126 -0.7856 -0.0633
 1079TIP3   OH224727   1.447   5.713  12.564 -0.6181 -0.1865 -0.0331
 1079TIP3    H124728   1.352   5.701  12.561 -0.6488 -0.2912  1.1135
 1079TIP3    H224729   1.470   5.705  12.657  0.6780 -1.4678 -0.4216
 1080TIP3   OH224730   1.183   2.223   1.694 -0.3946  0.4979  0.2907
 1080TIP3    H124731   1.133   2.256   1.769  0.7702  2.3393  0.3310
 1080TIP3    H224732   1.131   2.249   1.617 -0.1126  1.3366  0.3738
 1081TIP3   OH224733   1.638   4.029  17.112  0.1014  0.0231 -0.6528
 1081TIP3    H124734   1.655   3.949  17.063  1.8672  0.0759 -0.1790
 1081TIP3    H224735   1.665   4.099  17.053 -2.5408  0.4020 -1.5356
 1082TIP3   OH224736   4.467   4.467   0.189  0.0190  0.4130 -0.6737
 1082TIP3    H124737   4.540   4.523   0.163  0.6246  0.5531  1.2358
 1082TIP3    H224738   4.402   4.480   0.120  1.9702 -0.1566 -2.7444
 1083TIP3   OH224739   4.962   3.021   2.484 -0.0702 -0.0062 -0.2879
 1083TIP3    H124740   4.961   2.972   2.402  3.2538 -0.3892 -0.2570
 1083TIP3    H224741   4.907   2.971   2.544  0.2434 -1.6418 -1.3163
 1084TIP3   OH224742   0.938   1.651  16.150 -0.4134 -0.5370 -0.3635
 1084TIP3    H124743   0.995   1.617  16.219  1.2052 -0.6235 -1.6797
 1084TIP3    H224744   0.992   1.714  16.103 -2.0976  0.9532 -0.4148
 1085TIP3   OH224745   5.055   5.879   4.678  0.5658  0.2556 -0.3393
 1085TIP3    H124746   5.118   5.807   4.670  1.0055  0.8091 -2.5113
 1085TIP3    H224747   5.108   5.958   4.665 -0.1017  0.9194  0.8541
 1086TIP3   OH224748   5.469   1.730  13.085  0.0999 -0.1280  0.0018
 1086TIP3    H124749   5.465   1.789  13.160 -2.0413 -2.3017  1.7243
 1086TIP3    H224750   5.544   1.762  13.034  1.5261  1.5638  2.9045
 1087TIP3   OH224751   4.356   5.668   5.019 -0.4151  0.0867  0.0238
 1087TIP3    H124752   4.400   5.656   5.103 -1.7665 -1.6720  0.5552
 1087TIP3    H224753   4.316   5.755   5.024 -2.5329 -0.9017  2.2758
 1088TIP3   OH224754   2.955   1.688   4.497  1.1543 -0.4229  0.0661
 1088TIP3    H124755   2.971   1.613   4.555 -1.2346 -0.1895  1.1558
 1088TIP3    H224756   2.917   1.648   4.419 -0.3426 -0.4042  0.7405
 1089TIP3   OH224757   3.154   5.914   0.617  0.4816  0.2888 -0.5372
 1089TIP3    H124758   3.118   5.924   0.705  0.4496 -1.0957 -0.3752
 1089TIP3    H224759   3.078   5.918   0.559 -0.5965 -5.2978 -0.0468
 1090TIP3   OH224760   5.556   6.677  12.198  0.0930  0.4950  0.3221
 1090TIP3    H124761   5.561   6.616  12.124 -0.3573  1.2494 -0.3537
 1090TIP3    H224762   5.644   6.677  12.235 -0.6447 -3.1061  2.4964
 1091TIP3   OH224763   5.039   3.546  12.261  0.2886 -0.6635  0.2811
 1091TIP3    H124764   5.033   3.618  12.324  0.9721 -0.4264  0.0848
 1091TIP3    H224765   5.104   3.487  12.299 -0.3687 -1.2601  0.5087
 1092TIP3   OH224766   0.869   2.443  14.766 -0.4618 -0.4630 -0.2107
 1092TIP3    H124767   0.785   2.399  14.778 -0.3950 -0.3771  0.6760
 1092TIP3    H224768   0.924   2.409  14.837 -0.1039  0.3049 -0.1067
 1093TIP3   OH224769   4.099   4.857   2.636 -0.2340  0.6702  0.2672
 1093TIP3    H124770   4.004   4.871   2.641 -0.4174 -0.2332 -0.3162
 1093TIP3    H224771   4.127   4.912   2.563 -0.7230 -0.7997 -1.1094
 1094TIP3   OH224772   1.757   0.932   1.720 -0.6199  0.4911  0.0334
 1094TIP3    H124773   1.799   0.851   1.692 -0.4630  0.8524 -0.8095
 1094TIP3    H224774   1.763   0.990   1.644 -0.8863  1.2338  0.5616
 1095TIP3   OH224775   1.902   3.943  14.817  0.3093 -0.5298  0.5401
 1095TIP3    H124776   1.897   4.032  14.784  0.7944 -0.3174  1.0236
 1095TIP3    H224777   1.948   3.951  14.901  2.9356 -1.5300 -0.6944
 1096TIP3   OH224778   6.635   5.072  17.136 -0.2076 -0.0357  0.3784
 1096TIP3    H124779   6.623   5.054  17.042  2.9309 -2.3122  0.2566
 1096TIP3    H224780   6.611   4.990  17.179  0.2063  0.3482  1.3696
 1097TIP3   OH224781   4.742   6.457   0.801 -0.1647 -0.0885  0.5147
 1097TIP3    H124782   4.665   6.473   0.856 -0.2038 -1.4025  0.8876
 1097TIP3    H224783   4.712   6.473   0.712 -0.5058  0.6633  0.7561
 1098TIP3   OH224784   0.340   3.898   6.081  0.4136  0.2518  0.0822
 1098TIP3    H124785   0.332   3.939   5.994  1.7839  0.4563  0.0306
 1098TIP3    H224786   0.421   3.935   6.117  1.6201 -2.2311  0.1078
 1099TIP3   OH224787   0.406   0.492   0.191  0.3453 -0.0465  0.4710
 1099TIP3    H124788   0.311   0.482   0.200  0.1562  0.1791 -1.0180
 1099TIP3    H224789   0.429   0.435   0.118  0.7209  2.7646 -1.7915
 1100TIP3   OH224790   5.201   5.656  15.457 -0.2962  0.9665  0.2599
 1100TIP3    H124791   5.169   5.670  15.368  1.2881  1.6998 -0.2347
 1100TIP3    H224792   5.273   5.718  15.466  1.0416 -0.6470  1.2509
 1101TIP3   OH224793   6.159   4.741  13.977  1.1774 -0.0259 -0.0329
 1101TIP3    H124794   6.191   4.701  14.058  0.8479  0.8274  0.5388
 1101TIP3    H224795   6.068   4.713  13.971  1.0226  0.4114  0.2285
 1102TIP3   OH224796   6.640   1.335  17.423 -0.5320  0.0933 -0.1082
 1102TIP3    H124797   6.636   1.419  17.378  0.1305  0.6540  0.8392
 1102TIP3    H224798   6.663   1.357  17.513  1.9572 -1.2431 -0.3419
 1103TIP3   OH224799   4.128   3.247   3.971  0.2722 -0.1789 -0.3210
 1103TIP3    H124800   4.035   3.248   3.992 -0.3220 -0.0054 -2.7203
 1103TIP3    H224801   4.159   3.335   3.991 -0.1384 -0.1600  0.2289
 1104TIP3   OH224802   1.339   5.431   4.804  0.1907 -0.4517 -0.1209
 1104TIP3    H124803   1.269   5.436   4.739 -2.2159 -0.3529  2.3312
 1104TIP3    H224804   1.381   5.347   4.786 -1.5785 -1.2656 -0.6992
 1105TIP3   OH224805   1.112   5.474   5.921 -0.9332 -0.8277 -0.0752
 1105TIP3    H124806   1.164   5.406   5.877 -0.4677 -0.2780 -0.3974
 1105TIP3    H224807   1.163   5.495   6.000 -2.6006 -3.0306  1.7384
 1106TIP3   OH224808   5.079   2.187   0.504 -0.2406 -0.4305  0.0324
 1106TIP3    H124809   5.145   2.145   0.449 -0.4345 -1.5112  0.6019
 1106TIP3    H224810   5.129   2.244   0.562 -0.0777  1.2376 -1.6585
 1107TIP3   OH224811   4.026   3.525  17.043 -0.2825  0.1687  0.4979
 1107TIP3    H124812   4.022   3.541  16.949  0.6205 -0.7998  0.2687
 1107TIP3    H224813   3.935   3.524  17.072 -0.6189 -0.6410 -0.5609
 1108TIP3   OH224814   3.729   5.085  13.504  0.3550  0.1714  0.0339
 1108TIP3    H124815   3.690   5.145  13.442  0.3826 -0.9050 -1.0515
 1108TIP3    H224816   3.663   5.075  13.573 -0.3037  0.2024 -0.5851
 1109TIP3   OH224817   4.732   4.470  13.036  0.3635 -0.7477  0.1005
 1109TIP3    H124818   4.754   4.474  12.943  0.3752 -2.2530  0.0138
 1109TIP3    H224819   4.813   4.498  13.081 -0.2846  2.1122 -0.3106
 1110TIP3   OH224820   6.610   3.878  14.895 -0.1883 -0.2885 -0.1234
 1110TIP3    H124821   6.701   3.855  14.910 -0.0456  0.5860  0.3943
 1110TIP3    H224822   6.608   3.913  14.806  0.1824  0.6839  0.2433
 1111TIP3   OH224823   0.261   2.998  15.504 -0.5793 -0.0872  0.4839
 1111TIP3    H124824   0.312   2.968  15.578  0.6190  0.5120 -0.0663
 1111TIP3    H224825   0.244   2.919  15.452 -2.5404 -0.7422  1.9811
 1112TIP3   OH224826   4.276   4.243   1.534  0.0291  0.1558  0.2769
 1112TIP3    H124827   4.245   4.153   1.529 -2.4677  0.9541 -0.1381
 1112TIP3    H224828   4.198   4.296   1.518  1.1206  2.4147  1.8631
 1113TIP3   OH224829   2.898   3.568  16.894  0.0150  0.4182  0.2841
 1113TIP3    H124830   2.865   3.633  16.831  1.9261  2.4182  1.2392
 1113TIP3    H224831   2.992   3.567  16.880 -0.0180 -3.0414 -0.4168
 1114TIP3   OH224832   0.114   0.450   3.886 -0.7238  0.1658 -0.4389
 1114TIP3    H124833   0.043   0.514   3.901 -0.9795 -0.1248 -0.4048
 1114TIP3    H224834   0.178   0.498   3.834 -0.3443  0.8488  0.6049
 1115TIP3   OH224835   1.220   1.271   0.661  0.1461 -0.3637  0.3731
 1115TIP3    H124836   1.264   1.338   0.713 -1.6254  1.3535 -0.1838
 1115TIP3    H224837   1.135   1.259   0.704 -0.1439 -1.1613 -0.3915
 1116TIP3   OH224838   2.375   5.009   2.856  0.5638 -0.6192 -0.3534
 1116TIP3    H124839   2.468   5.034   2.860  0.9931 -2.1337 -0.4709
 1116TIP3    H224840   2.360   4.960   2.937  0.2857 -1.7049 -1.0437
 1117TIP3   OH224841   4.481   0.124   5.250  0.3723  0.3867 -0.8580
 1117TIP3    H124842   4.405   0.120   5.307  1.7824 -0.0796  1.0822
 1117TIP3    H224843   4.496   0.218   5.237  0.6906  0.5427  0.5102
 1118TIP3   OH224844   0.328   2.772   5.406  0.3315  0.3828  0.6837
 1118TIP3    H124845   0.303   2.834   5.338 -1.7763  1.3976  2.2779
 1118TIP3    H224846   0.423   2.765   5.398  0.1133 -0.8400 -3.3631
 1119TIP3   OH224847   0.518   2.120  13.802 -0.3008  0.1762 -0.1159
 1119TIP3    H124848   0.440   2.075  13.836 -0.2685 -0.3053 -0.6621
 1119TIP3    H224849   0.512   2.209  13.839 -0.1350 -0.3899  1.3140
 1120TIP3   OH224850   3.388   0.018   6.581  0.1426  0.4655 -0.3251
 1120TIP3    H124851   3.480   0.022   6.609  0.4028 -0.8771 -0.9400
 1120TIP3    H224852   3.379   0.092   6.521  1.1658 -0.0712 -1.1850
 1121TIP3   OH224853   4.958   6.497  14.481 -0.1135 -0.0269 -0.0222
 1121TIP3    H124854   4.980   6.580  14.524 -0.5692 -0.1015  0.3643
 1121TIP3    H224855   4.911   6.523  14.402 -1.4624  0.0622  0.7893
 1122TIP3   OH224856   6.009   3.597  11.254  0.2460 -0.1797  0.3210
 1122TIP3    H124857   6.022   3.688  11.228 -0.1320  0.3496  1.8589
 1122TIP3    H224858   6.061   3.586  11.333  0.5496 -1.4089 -0.0231
 1123TIP3   OH224859   2.624   1.016   1.090 -0.1203  0.0635 -0.2859
 1123TIP3    H124860   2.601   1.068   1.012  0.8336 -0.7222 -1.1142
 1123TIP3    H224861   2.720   1.025   1.097  0.0873 -1.6682 -0.5275
 1124TIP3   OH224862   3.352   0.498   2.586  0.7372  0.4642 -0.3610
 1124TIP3    H124863   3.364   0.513   2.680 -1.7673 -0.2117  0.1421
 1124TIP3    H224864   3.311   0.578   2.554 -0.2948 -0.0784 -0.4278
 1125TIP3   OH224865   5.394   5.746   0.505  0.0068  0.2901  0.5221
 1125TIP3    H124866   5.392   5.740   0.409 -1.3147  2.7153  0.3027
 1125TIP3    H224867   5.457   5.816   0.524 -1.1044  1.1360  1.2611
 1126TIP3   OH224868   3.819   4.134   6.883 -0.9290 -0.2615  0.0685
 1126TIP3    H124869   3.779   4.214   6.916  0.7497  0.7541 -0.1891
 1126TIP3    H224870   3.875   4.104   6.955 -0.4907 -0.4062 -0.3263
 1127TIP3   OH224871   1.321   0.467   0.049  0.8842  0.1118 -0.6112
 1127TIP3    H124872   1.255   0.476   0.118 -1.1622  0.7310 -2.5289
 1127TIP3    H224873   1.387   0.533   0.071  0.1120  0.5299  0.5806
 1128TIP3   OH224874   0.163   1.463  16.943  0.1966 -0.5728  0.4989
 1128TIP3    H124875   0.070   1.460  16.963 -0.1039  0.7509 -0.5558
 1128TIP3    H224876   0.192   1.371  16.947 -1.3402 -1.1046 -0.0524
 1129TIP3   OH224877   4.654   5.905  10.701  0.1215  0.4610 -0.1626
 1129TIP3    H124878   4.637   5.974  10.637  3.3333  1.3336 -0.2158
 1129TIP3    H224879   4.618   5.939  10.783  0.7790  1.7984 -0.4037
 1130TIP3   OH224880   1.768   1.942   4.685 -0.4880  0.6828  0.0333
 1130TIP3    H124881   1.742   2.029   4.655  0.5147  0.8014 -0.5527
 1130TIP3    H224882   1.781   1.892   4.604  0.7111  0.5390  0.2877
 1131TIP3   OH224883   1.062   5.974   5.519 -0.3247 -0.1492 -0.2598
 1131TIP3    H124884   1.070   6.009   5.608 -0.2460 -1.7453  0.4000
 1131TIP3    H224885   0.968   5.969   5.503 -0.3724 -0.9249  0.2025
 1132TIP3   OH224886   5.198   5.399   7.124 -0.6979  0.7942  0.0619
 1132TIP3    H124887   5.157   5.346   7.056  0.6107  1.7725 -1.5840
 1132TIP3    H224888   5.231   5.476   7.077 -0.1760  1.7581  1.9097
 1133TIP3   OH224889   1.700   2.632  16.088  0.4309 -0.4900  0.0476
 1133TIP3    H124890   1.733   2.622  16.177  0.9725 -0.6040 -0.1605
 1133TIP3    H224891   1.769   2.680  16.042  1.3814 -2.7439 -1.0042
 1134TIP3   OH224892   1.210   4.738  16.259  0.1216  0.0160 -0.0616
 1134TIP3    H124893   1.152   4.716  16.186 -0.2810  0.3020  0.1670
 1134TIP3    H224894   1.189   4.829  16.280  0.5880  0.0931  0.0861
 1135TIP3   OH224895   1.192   1.374  10.652 -0.0861 -0.1045 -0.5658
 1135TIP3    H124896   1.241   1.297  10.622  1.0130 -0.6249  2.2566
 1135TIP3    H224897   1.256   1.445  10.649  0.0124 -0.1468  0.4006
 1136TIP3   OH224898   2.486   3.626   2.784 -0.4633  0.6025  0.7024
 1136TIP3    H124899   2.493   3.713   2.744 -1.3144  0.1302 -0.5469
 1136TIP3    H224900   2.419   3.636   2.851 -2.6694  0.3042 -1.3434
 1137TIP3   OH224901   3.563   2.258   5.533  0.0450  0.0811  0.0685
 1137TIP3    H124902   3.567   2.284   5.625 -3.9518  1.1278  0.1284
 1137TIP3    H224903   3.551   2.163   5.536 -0.6114  0.1696  0.7114
 1138TIP3   OH224904   3.928   5.340   1.390 -0.7994  0.2612  0.2156
 1138TIP3    H124905   3.874   5.331   1.311  0.0015 -1.1886 -0.2023
 1138TIP3    H224906   4.015   5.364   1.357 -0.4246 -0.4925  0.6156
 1139TIP3   OH224907   4.247   0.300  11.937 -0.4082 -0.4118  0.3622
 1139TIP3    H124908   4.306   0.375  11.925 -0.1262 -0.3172  2.0458
 1139TIP3    H224909   4.219   0.277  11.849  0.1759  1.1359 -0.2669
 1140TIP3   OH224910   5.110   1.949  14.603  0.2592 -0.1860  0.2439
 1140TIP3    H124911   5.122   1.961  14.509  1.2137  0.1134  0.4004
 1140TIP3    H224912   5.075   2.033  14.633  0.4420 -0.1105  0.2426
 1141TIP3   OH224913   2.036   5.792  12.749 -0.0504 -0.7625 -0.0224
 1141TIP3    H124914   2.032   5.698  12.735  1.1256 -0.8455  0.1192
 1141TIP3    H224915   1.945   5.821  12.743 -0.3705 -1.8311 -0.5426
 1142TIP3   OH224916   4.484   6.531  13.916  0.3477  0.1071  0.6037
 1142TIP3    H124917   4.443   6.458  13.871 -1.5078  0.9435  0.8169
 1142TIP3    H224918   4.578   6.512  13.914 -0.0563 -2.0848  0.3803
 1143TIP3   OH224919   5.737   5.733  15.821  0.0877 -0.3157  0.2492
 1143TIP3    H124920   5.819   5.684  15.825 -0.4430 -1.2144  0.4276
 1143TIP3    H224921   5.722   5.763  15.911  0.8887  1.0231 -0.0291
 1144TIP3   OH224922   6.296   5.531  13.794 -0.2368  0.3434  0.3175
 1144TIP3    H124923   6.292   5.437  13.781 -0.5516  0.4815 -0.6472
 1144TIP3    H224924   6.337   5.542  13.880 -0.0267 -0.6638  0.3523
 1145TIP3   OH224925   3.364   0.683  11.963 -0.0941  0.3376  0.5830
 1145TIP3    H124926   3.431   0.675  12.030 -1.5755  3.4933  2.6611
 1145TIP3    H224927   3.292   0.730  12.005 -2.3519 -0.0775 -2.4235
 1146TIP3   OH224928   6.713   1.543  15.936 -0.3441  0.0722  0.4821
 1146TIP3    H124929   6.805   1.522  15.950 -0.4892 -1.7510 -0.9140
 1146TIP3    H224930   6.700   1.528  15.842 -1.9138  0.9302  0.5395
 1147TIP3   OH224931   5.735   1.206  17.455 -0.2625 -0.6116  0.3538
 1147TIP3    H124932   5.774   1.292  17.475 -2.2609  0.1703  1.1376
 1147TIP3    H224933   5.803   1.143  17.480  0.8524  0.6871  0.7624
 1148TIP3   OH224934   0.852   1.010   3.841 -0.1208 -0.0054 -0.7621
 1148TIP3    H124935   0.810   0.986   3.924  1.1751  0.3023  0.0148
 1148TIP3    H224936   0.936   1.049   3.867  0.2779  0.1713 -2.2217
 1149TIP3   OH224937   5.032   3.871  12.522 -0.4426  0.1763 -0.3175
 1149TIP3    H124938   4.958   3.850  12.465 -1.4925 -0.7721  1.3049
 1149TIP3    H224939   5.055   3.961  12.500 -2.5230  0.7394 -0.4498
 1150TIP3   OH224940   3.731   4.964   2.916 -0.4282 -0.4710  0.3095
 1150TIP3    H124941   3.696   5.001   2.834 -1.2570  0.0358  0.8807
 1150TIP3    H224942   3.823   4.990   2.916 -0.2314 -1.0961 -0.8102
 1151TIP3   OH224943   5.372   3.055  17.613  0.0064 -0.1871  0.3236
 1151TIP3    H124944   5.286   3.015  17.620  0.5894 -1.5766 -0.1061
 1151TIP3    H224945   5.378   3.083  17.521  0.8226 -2.1151 -0.2640
 1152TIP3   OH224946   5.545   4.885   4.151 -0.1929  0.3509 -0.4440
 1152TIP3    H124947   5.638   4.908   4.142 -0.3655  0.9225 -0.8419
 1152TIP3    H224948   5.515   4.873   4.061 -0.2149 -1.0534 -0.2649
 1153TIP3   OH224949   2.151   1.353  15.376  0.0298 -0.3624 -0.1454
 1153TIP3    H124950   2.119   1.266  15.401  0.9049 -0.1421  1.9863
 1153TIP3    H224951   2.208   1.379  15.449  0.6290  1.5621 -1.2316
 1154TIP3   OH224952   1.825   4.302  12.483  0.3996  0.0355  0.0255
 1154TIP3    H124953   1.890   4.346  12.538 -1.0231  1.6441  0.5099
 1154TIP3    H224954   1.844   4.209  12.493  1.2228  0.3598  1.9289
 1155TIP3   OH224955   0.961   4.081   6.963  0.1407 -0.2481  0.0285
 1155TIP3    H124956   0.948   4.058   7.055 -2.7119 -0.8863 -0.4482
 1155TIP3    H224957   0.938   4.174   6.957  2.1197  0.3065  0.2124
 1156TIP3   OH224958   6.291   5.702  13.484 -0.0487  0.2607  0.1924
 1156TIP3    H124959   6.308   5.754  13.563 -2.1082  0.3283  0.6267
 1156TIP3    H224960   6.312   5.761  13.412 -0.8145  1.1542  0.6844
 1157TIP3   OH224961   1.804   1.115   2.812 -0.4313 -0.9784 -0.1914
 1157TIP3    H124962   1.801   1.134   2.906 -2.3803  0.4842 -0.4931
 1157TIP3    H224963   1.738   1.046   2.800 -0.1288 -1.2168 -0.4981
 1158TIP3   OH224964   5.117   4.136   4.916  0.1875 -0.3176  0.1017
 1158TIP3    H124965   5.024   4.126   4.939 -0.1302 -1.3789 -1.4807
 1158TIP3    H224966   5.124   4.097   4.829  2.0854 -0.0096  0.0852
 1159TIP3   OH224967   0.920   3.662  15.897  0.5330  0.2954 -0.1948
 1159TIP3    H124968   0.959   3.674  15.983  0.2784  0.3324 -0.0842
 1159TIP3    H224969   0.842   3.717  15.898 -0.4400 -1.0470  0.1757
 1160TIP3   OH224970   2.233   0.713   3.263  0.9118 -0.1940 -0.0311
 1160TIP3    H124971   2.228   0.807   3.284  1.3716  0.1121 -1.2390
 1160TIP3    H224972   2.205   0.670   3.344  1.6242  0.9583  0.8726
 1161TIP3   OH224973   4.971   6.164   0.294  0.5599  0.0840  0.0306
 1161TIP3    H124974   5.041   6.146   0.356 -0.4777 -0.8640  0.9859
 1161TIP3    H224975   5.015   6.199   0.217  2.0754 -0.5141  0.5841
 1162TIP3   OH224976   2.537   6.346  12.008 -0.0312 -0.5320 -0.1385
 1162TIP3    H124977   2.472   6.414  12.029 -0.0611 -0.5369 -0.2131
 1162TIP3    H224978   2.617   6.375  12.051 -0.0533 -0.4674 -0.1401
 1163TIP3   OH224979   1.656   4.691  15.719  0.1521 -0.5613 -0.9539
 1163TIP3    H124980   1.654   4.596  15.709  0.9843 -0.8348  0.9932
 1163TIP3    H224981   1.701   4.723  15.640 -0.3021 -1.7348 -1.7153
 1164TIP3   OH224982   6.409   4.741   3.033 -0.0688  0.0653 -0.2637
 1164TIP3    H124983   6.404   4.650   3.004 -0.2997  0.1189 -0.3907
 1164TIP3    H224984   6.343   4.749   3.102  0.0655  0.0943 -0.1373
 1165TIP3   OH224985   0.809   5.793   0.977 -0.8349 -0.2189  0.0194
 1165TIP3    H124986   0.865   5.745   1.038  0.8639  1.0776 -0.4461
 1165TIP3    H224987   0.785   5.728   0.911 -1.2837 -1.2107  1.1175
 1166TIP3   OH224988   2.211   3.500  12.097  0.1988  0.3581 -0.2269
 1166TIP3    H124989   2.250   3.441  12.161  0.2464 -0.0309 -0.6051
 1166TIP3    H224990   2.119   3.476  12.094  0.4682 -0.6565 -1.3787
 1167TIP3   OH224991   2.187   3.050   1.748 -0.6151 -0.0016  0.2304
 1167TIP3    H124992   2.160   2.966   1.787  0.1269 -0.4923 -0.2818
 1167TIP3    H224993   2.282   3.044   1.742 -0.5590  0.8775  0.1619
 1168TIP3   OH224994   5.651   4.611  14.969  0.3056 -0.1709  0.2242
 1168TIP3    H124995   5.648   4.520  14.941  0.9590  0.1015 -0.7553
 1168TIP3    H224996   5.732   4.618  15.020  1.0405  0.2019 -0.9649
 1169TIP3   OH224997   5.198   0.607   0.361  0.0003 -0.4204  0.5754
 1169TIP3    H124998   5.111   0.595   0.398 -0.1529 -1.1165  0.0043
 1169TIP3    H224999   5.183   0.654   0.279  0.2082 -0.0941  0.7240
 1170TIP3   OH225000   1.454   3.905   5.747  0.0640  0.2484  0.0496
 1170TIP3    H125001   1.485   3.833   5.802  2.2449 -1.1345 -2.7163
 1170TIP3    H225002   1.404   3.863   5.677  0.2594  1.5348 -0.8986
 1171TIP3   OH225003   3.004   3.897   3.262  0.0261  0.2388 -0.5289
 1171TIP3    H125004   3.099   3.901   3.250  0.3287 -1.0701  0.9340
 1171TIP3    H225005   2.981   3.809   3.233 -0.5012  0.0646  0.3842
 1172TIP3   OH225006   1.681   4.194   5.447 -1.0160  0.2172 -0.1649
 1172TIP3    H125007   1.741   4.178   5.374 -3.3926 -0.7389 -2.0806
 1172TIP3    H225008   1.728   4.164   5.525  1.5036  0.9588 -1.3047
 1173TIP3   OH225009   2.982   4.479  17.327  0.5523  0.0039 -0.1971
 1173TIP3    H125010   3.002   4.424  17.250  0.5898  1.7002 -1.4660
 1173TIP3    H225011   3.061   4.474  17.380  0.4595 -1.3550 -0.1572
 1174TIP3   OH225012   0.174   5.060  12.737  0.3710 -0.0855  0.1319
 1174TIP3    H125013   0.175   5.151  12.767  1.2809  0.2667 -0.9312
 1174TIP3    H225014   0.091   5.025  12.770 -2.5221  2.5239 -3.5846
 1175TIP3   OH225015   2.277   1.924  14.802 -0.5284  0.6373 -1.1253
 1175TIP3    H125016   2.311   1.925  14.891 -1.0070  0.6821 -0.9400
 1175TIP3    H225017   2.336   1.865  14.754 -2.5496 -2.6950  0.1539
 1176TIP3   OH225018   0.384   0.714  16.928  0.0040  0.0083  0.0783
 1176TIP3    H125019   0.463   0.687  16.975 -0.1475  0.1109  0.3984
 1176TIP3    H225020   0.361   0.799  16.966 -0.6268 -0.3200  0.4437
 1177TIP3   OH225021   5.977   3.228  15.058  0.5199 -0.0785 -0.3395
 1177TIP3    H125022   6.018   3.208  14.974 -0.7740 -0.0884 -1.0077
 1177TIP3    H225023   6.015   3.311  15.085  3.0245 -1.3817  0.4983
 1178TIP3   OH225024   0.980   0.313   2.906 -0.5235 -0.3735 -0.2573
 1178TIP3    H125025   1.045   0.302   2.975 -0.7889  0.8185  0.2067
 1178TIP3    H225026   0.958   0.406   2.908 -2.5979 -0.8057 -0.0773
 1179TIP3   OH225027   3.381   1.406   2.999 -0.7481  0.1868 -0.2709
 1179TIP3    H125028   3.295   1.415   2.958 -0.7023  1.4788 -0.1344
 1179TIP3    H225029   3.414   1.322   2.968 -1.0043  0.7932 -2.3514
 1180TIP3   OH225030   4.742   2.859   3.380  0.1008 -0.2801 -0.7096
 1180TIP3    H125031   4.653   2.822   3.378 -0.6670  0.9087  2.7909
 1180TIP3    H225032   4.733   2.944   3.338 -0.5084 -0.0988 -0.2412
 1181TIP3   OH225033   4.831   4.250   4.616 -0.2233 -0.0874  0.7070
 1181TIP3    H125034   4.737   4.242   4.604 -0.0259 -0.5231 -0.7273
 1181TIP3    H225035   4.869   4.199   4.544  1.1047  0.2676  1.1255
 1182TIP3   OH225036   2.758   0.764   4.158  0.2352 -0.2658 -0.0260
 1182TIP3    H125037   2.744   0.671   4.140 -1.8151 -0.5142  2.2979
 1182TIP3    H225038   2.850   0.770   4.185  0.1986 -1.7815  0.5368
 1183TIP3   OH225039   0.426   0.917   4.106 -0.8361 -0.3065  0.2746
 1183TIP3    H125040   0.352   0.962   4.064 -1.7492  0.2369  2.3260
 1183TIP3    H225041   0.456   0.979   4.173  1.3946 -0.6095 -0.3870
 1184TIP3   OH225042   6.706   3.727   3.823 -0.5843 -0.3074  0.0520
 1184TIP3    H125043   6.630   3.687   3.779  0.5052 -1.0798 -1.2183
 1184TIP3    H225044   6.760   3.760   3.751  0.5868 -0.3223  0.8996
 1185TIP3   OH225045   3.228   1.396  13.542 -0.4342  0.3049 -0.2913
 1185TIP3    H125046   3.194   1.483  13.561  0.7876  0.6893  0.2773
 1185TIP3    H225047   3.208   1.344  13.619 -0.6787  0.2338 -0.4029
 1186TIP3   OH225048   3.251   0.193   3.400 -0.1914  0.2984 -0.2972
 1186TIP3    H125049   3.215   0.162   3.483  2.0162 -1.4566  0.0908
 1186TIP3    H225050   3.182   0.249   3.363 -2.5965 -1.5399  1.1272
 1187TIP3   OH225051   4.417   3.186   3.830  0.8156  0.0722  0.3086
 1187TIP3    H125052   4.496   3.231   3.861  0.2872  1.1021  0.2003
 1187TIP3    H225053   4.363   3.175   3.908  0.5334  0.4978  0.1799
 1188TIP3   OH225054   0.387   3.209   5.485 -0.0119  0.1143 -0.0944
 1188TIP3    H125055   0.344   3.211   5.399 -1.5081  0.0825  0.6244
 1188TIP3    H225056   0.337   3.271   5.538  1.6892  1.1204  0.4215
 1189TIP3   OH225057   5.392   4.868   6.959  0.1577 -0.2974 -0.6646
 1189TIP3    H125058   5.305   4.830   6.975 -1.1795  2.0719 -1.8828
 1189TIP3    H225059   5.376   4.961   6.949  2.6865  0.0345 -2.3303
 1190TIP3   OH225060   1.775   0.342  13.810 -0.7755  0.0060 -0.4433
 1190TIP3    H125061   1.710   0.405  13.779  1.0266  1.2612 -1.8465
 1190TIP3    H225062   1.804   0.377  13.894 -1.1817 -0.0254 -0.2854
 1191TIP3   OH225063   5.058   3.925  16.557 -0.2838 -0.2498  0.0972
 1191TIP3    H125064   5.118   3.981  16.607  0.9237 -1.6775  0.3266
 1191TIP3    H225065   4.984   3.909  16.616  0.3390 -0.5519  0.8107
 1192TIP3   OH225066   5.260   6.473  11.642 -0.3618 -0.0555 -0.0237
 1192TIP3    H125067   5.315   6.539  11.684  0.7158 -0.8962 -0.0638
 1192TIP3    H225068   5.176   6.516  11.631  0.5792  1.6645 -0.9622
 1193TIP3   OH225069   0.563   1.665  16.906 -0.0539  0.0639  0.2460
 1193TIP3    H125070   0.571   1.653  16.811  0.2250  0.3995  0.2254
 1193TIP3    H225071   0.631   1.729  16.928 -0.4211  0.3333  0.6049
 1194TIP3   OH225072   4.409   3.513  12.542  0.1278  0.4693  0.4330
 1194TIP3    H125073   4.341   3.446  12.533  0.3874  0.4154 -1.7666
 1194TIP3    H225074   4.487   3.472  12.505  0.6302  1.5208  0.3003
 1195TIP3   OH225075   3.282   4.348   6.974  0.6884 -0.8046  0.1832
 1195TIP3    H125076   3.232   4.303   7.041  1.2035  0.3826  1.4162
 1195TIP3    H225077   3.333   4.414   7.022  0.2639  0.8185 -1.4822
 1196TIP3   OH225078   5.020   2.369  13.533  0.8683 -0.2652 -0.2881
 1196TIP3    H125079   5.072   2.446  13.508 -1.0939  0.6645 -1.7990
 1196TIP3    H225080   5.053   2.299  13.477  1.9584 -0.2810  0.3472
 1197TIP3   OH225081   4.852   0.731  13.967 -0.2546  0.3513 -0.0005
 1197TIP3    H125082   4.864   0.663  14.033  1.1532 -0.4160 -1.0024
 1197TIP3    H225083   4.777   0.701  13.916  0.2799 -0.4217 -0.3597
 1198TIP3   OH225084   6.180   0.508   1.223  0.5140 -0.5833 -0.2495
 1198TIP3    H125085   6.117   0.475   1.159  0.0689 -1.1733  0.4850
 1198TIP3    H225086   6.263   0.468   1.198  0.1655 -1.5130  0.0644
 1199TIP3   OH225087   3.133   0.425   0.828  0.5891  0.1227  0.0249
 1199TIP3    H125088   3.148   0.517   0.804 -2.0313  1.0697  1.5457
 1199TIP3    H225089   3.154   0.376   0.749 -0.9216  2.3618 -1.9098
 1200TIP3   OH225090   2.055   5.991  12.485 -0.3490  0.7133  0.0568
 1200TIP3    H125091   2.000   5.959  12.414  1.4821 -1.1174 -0.6339
 1200TIP3    H225092   2.051   5.922  12.551 -0.3333  1.4322  0.8335
 1201TIP3   OH225093   6.728   2.904  15.382  0.3329 -0.1921  0.0944
 1201TIP3    H125094   6.744   2.876  15.291  0.0392  0.3547 -0.1287
 1201TIP3    H225095   6.633   2.911  15.388  0.2071 -2.0372  0.9967
 1202TIP3   OH225096   1.827   1.776   6.404 -0.2226 -0.2763 -0.1311
 1202TIP3    H125097   1.744   1.823   6.416 -1.5837 -2.5559 -0.1750
 1202TIP3    H225098   1.888   1.821   6.463 -1.3718  1.6504 -0.3169
 1203TIP3   OH225099   6.135   5.662  11.279 -0.4081  0.6488 -0.1800
 1203TIP3    H125100   6.199   5.639  11.347 -1.2928 -1.2646  0.0697
 1203TIP3    H225101   6.148   5.597  11.210 -0.6007  1.6045 -1.1465
 1204TIP3   OH225102   1.771   3.691   2.216  0.8521 -0.5491  0.1749
 1204TIP3    H125103   1.863   3.666   2.229  1.5991  2.5603  1.9856
 1204TIP3    H225104   1.734   3.692   2.305 -0.5779 -0.4902 -0.3925
 1205TIP3   OH225105   1.563   2.196   6.089  0.4035  0.5647 -0.1391
 1205TIP3    H125106   1.595   2.273   6.136  3.9689 -1.4906  1.2107
 1205TIP3    H225107   1.614   2.123   6.125 -1.8726 -2.2719 -2.2069
 1206TIP3   OH225108   3.017   4.371   4.053 -0.4885  0.7264 -0.4723
 1206TIP3    H125109   2.992   4.462   4.039 -1.5360  0.6478  0.6955
 1206TIP3    H225110   3.110   4.368   4.031 -0.6521  1.8509 -1.4488
 1207TIP3   OH225111   3.689   3.553   0.712 -0.1683  0.2652 -0.2946
 1207TIP3    H125112   3.706   3.459   0.714 -0.6538  0.1876  0.8800
 1207TIP3    H225113   3.636   3.566   0.634  3.3325  0.2170 -2.9167
 1208TIP3   OH225114   0.195   1.719   2.276  0.3416 -0.3758  0.3069
 1208TIP3    H125115   0.139   1.694   2.350 -0.8172 -5.2518 -1.7820
 1208TIP3    H225116   0.135   1.726   2.202  1.6024  3.3165 -0.5707
 1209TIP3   OH225117   0.757   3.885  12.157  0.2017 -0.9785 -0.0960
 1209TIP3    H125118   0.698   3.899  12.083 -1.1391 -0.0460  1.0915
 1209TIP3    H225119   0.815   3.814  12.129  1.1158  0.7144 -2.8150
 1210TIP3   OH225120   0.804   3.057  14.429  0.1335 -0.2858  0.3063
 1210TIP3    H125121   0.830   3.148  14.421 -0.6053 -0.1100 -0.2407
 1210TIP3    H225122   0.878   3.007  14.395  0.8274  0.0713  1.2655
 1211TIP3   OH225123   4.822   3.666   2.057  0.5244  0.6843  0.1784
 1211TIP3    H125124   4.786   3.600   1.997 -2.8835  2.2681  0.2739
 1211TIP3    H225125   4.816   3.748   2.009  1.2359  1.4781  1.3994
 1212TIP3   OH225126   4.076   4.735  15.130  0.5135 -0.1731 -0.8214
 1212TIP3    H125127   3.997   4.712  15.081  0.9227 -0.6326 -1.2815
 1212TIP3    H225128   4.074   4.830  15.136 -0.3646 -0.2115 -0.3296
 1213TIP3   OH225129   5.341   4.845   2.137  0.3991  0.1928  0.4262
 1213TIP3    H125130   5.311   4.934   2.120  0.7955  0.4189  0.9018
 1213TIP3    H225131   5.421   4.855   2.188  0.3791 -0.4362  0.5949
 1214TIP3   OH225132   2.199   2.932   5.143 -0.0754  0.7453  0.1893
 1214TIP3    H125133   2.138   2.990   5.096  0.8896  0.7391 -1.1281
 1214TIP3    H225134   2.253   2.992   5.195 -0.9806  0.7709  1.1448
 1215TIP3   OH225135   0.470   3.020  15.754  0.3655 -0.3412 -0.6722
 1215TIP3    H125136   0.503   3.098  15.709 -0.4037  0.1210 -0.4528
 1215TIP3    H225137   0.435   3.053  15.837 -1.0395 -0.7330 -1.0813
 1216TIP3   OH225138   2.653   1.774  16.536  0.2560  0.4040  0.6303
 1216TIP3    H125139   2.687   1.689  16.508  0.7202  0.7514  0.1071
 1216TIP3    H225140   2.727   1.817  16.579 -0.0249  0.4735  1.0496
 1217TIP3   OH225141   1.009   2.207  15.852 -0.0666  0.3408 -0.6460
 1217TIP3    H125142   1.102   2.184  15.843 -0.4714 -1.5535 -0.4527
 1217TIP3    H225143   1.005   2.301  15.834  1.5725  0.0354 -2.9341
 1218TIP3   OH225144   0.332   6.401   0.200 -0.0808  0.2762  0.2222
 1218TIP3    H125145   0.402   6.337   0.213  0.8318  0.5672 -2.5525
 1218TIP3    H225146   0.265   6.354   0.150  0.1966  1.2015 -1.0570
 1219TIP3   OH225147   2.342   6.254   5.190  0.6007  0.1621 -0.0142
 1219TIP3    H125148   2.282   6.210   5.130 -1.3079  3.8460 -1.1338
 1219TIP3    H225149   2.391   6.183   5.232 -1.4802 -2.8462 -2.2391
 1220TIP3   OH225150   2.513   5.501  14.449 -0.1043 -0.4031 -0.4784
 1220TIP3    H125151   2.453   5.459  14.511  0.0983  0.0268  0.0108
 1220TIP3    H225152   2.479   5.476  14.363 -0.1803 -1.3019 -0.2031
 1221TIP3   OH225153   6.232   0.530  17.159 -0.0577  0.2765  0.5033
 1221TIP3    H125154   6.320   0.506  17.190 -0.0377 -1.6646 -0.8712
 1221TIP3    H225155   6.173   0.475  17.211 -0.2409 -0.4552 -0.4556
 1222TIP3   OH225156   4.256   0.007   6.800  0.0524 -0.4870  0.4433
 1222TIP3    H125157   4.179   0.005   6.857  0.0042 -1.7432  0.3598
 1222TIP3    H225158   4.221   0.026   6.713 -0.0859 -0.3444  0.5300
 1223TIP3   OH225159   6.245   2.574   5.600  0.5832 -0.3152 -0.0790
 1223TIP3    H125160   6.200   2.625   5.667 -3.0078 -1.5422 -1.3062
 1223TIP3    H225161   6.277   2.496   5.647 -0.0460 -0.1771  0.5981
 1224TIP3   OH225162   5.978   1.799   2.926 -0.0551 -0.4472  0.0435
 1224TIP3    H125163   5.960   1.706   2.915  0.1209 -0.5536  0.6521
 1224TIP3    H225164   5.895   1.836   2.957  0.5932 -0.8664  2.4314
 1225TIP3   OH225165   1.509   2.487   2.058 -0.2530  0.6359 -0.8058
 1225TIP3    H125166   1.543   2.557   2.114 -0.7270  0.6989 -0.5900
 1225TIP3    H225167   1.521   2.407   2.109 -1.2840  0.7698 -0.3261
 1226TIP3   OH225168   0.639   5.985  13.057 -0.3038 -0.2773 -0.2210
 1226TIP3    H125169   0.645   5.930  13.135  0.9535 -1.7112 -1.2890
 1226TIP3    H225170   0.563   5.951  13.010 -0.0702 -0.4994 -0.4367
 1227TIP3   OH225171   3.885   2.363  12.788 -0.6952  0.4788 -0.2005
 1227TIP3    H125172   3.879   2.365  12.693 -0.1226  0.1776 -0.2479
 1227TIP3    H225173   3.833   2.287  12.813 -0.1533  0.0553 -0.3389
 1228TIP3   OH225174   4.944   2.568   1.751 -0.2203  0.3844  0.2149
 1228TIP3    H125175   4.887   2.608   1.685 -0.7784 -1.0239 -0.1761
 1228TIP3    H225176   4.958   2.479   1.721 -0.8190 -0.4333  2.1928
 1229TIP3   OH225177   3.253   2.317  14.893 -0.1047  0.0685 -0.0442
 1229TIP3    H125178   3.206   2.239  14.866 -1.8291  0.2186  2.2091
 1229TIP3    H225179   3.192   2.389  14.877 -0.3750  0.3774  2.0568
 1230TIP3   OH225180   1.816   6.005   0.634 -0.0019  0.4544 -0.1370
 1230TIP3    H125181   1.832   6.016   0.541  0.0623  2.5089  0.0583
 1230TIP3    H225182   1.817   5.911   0.648  2.7278  0.1364 -1.7292
 1231TIP3   OH225183   5.606   4.143   2.447  0.3883  0.0744 -0.0170
 1231TIP3    H125184   5.599   4.084   2.372  0.1893  0.7327 -0.5248
 1231TIP3    H225185   5.551   4.102   2.514  1.3913 -1.0614  0.1485
 1232TIP3   OH225186   1.418   1.544  12.854  0.7959 -0.0700 -0.0719
 1232TIP3    H125187   1.419   1.635  12.884 -0.7382 -0.0573 -0.0030
 1232TIP3    H225188   1.327   1.528  12.829  0.8677 -1.8272  0.6726
 1233TIP3   OH225189   1.319   5.195  15.354 -0.6053 -0.5949  0.5392
 1233TIP3    H125190   1.331   5.284  15.388  0.0940 -0.8477  0.9659
 1233TIP3    H225191   1.347   5.201  15.263 -2.3590  0.0523 -0.0015
 1234TIP3   OH225192   6.265   6.171  11.470  0.3855 -0.3706 -0.3288
 1234TIP3    H125193   6.241   6.259  11.442  1.2320  1.2256  3.4385
 1234TIP3    H225194   6.184   6.121  11.464 -0.6931  1.3017 -0.3909
 1235TIP3   OH225195   6.675   6.013  14.458 -0.4761 -0.2564  0.5170
 1235TIP3    H125196   6.669   5.987  14.550  0.6716 -1.2971  0.3230
 1235TIP3    H225197   6.736   6.087  14.458 -0.3421 -0.3662  0.5774
 1236TIP3   OH225198   3.095   1.555   4.729 -0.4466 -0.8111 -0.2765
 1236TIP3    H125199   3.157   1.523   4.794  0.9024 -3.1826 -2.5452
 1236TIP3    H225200   3.010   1.555   4.774  0.5670 -1.2811  1.7464
 1237TIP3   OH225201   1.513   0.928   0.246  0.7166  0.0637  0.3461
 1237TIP3    H125202   1.593   0.980   0.255  0.3466  0.5360  0.9812
 1237TIP3    H225203   1.449   0.989   0.210 -0.0153  0.3570  2.0748
 1238TIP3   OH225204   4.357   4.692  15.079 -0.1694 -0.1213 -0.0274
 1238TIP3    H125205   4.375   4.694  14.985  2.0958  0.0636  0.3357
 1238TIP3    H225206   4.262   4.698  15.087 -0.3786  0.0834 -2.2864
 1239TIP3   OH225207   6.547   6.674   6.381  0.1195 -0.4542 -0.4460
 1239TIP3    H125208   6.562   6.669   6.287 -1.6949 -2.3459 -0.7071
 1239TIP3    H225209   6.491   6.750   6.394  1.9253  0.9737 -0.5925
 1240TIP3   OH225210   4.983   6.168   2.633  0.5780 -0.1857  0.0212
 1240TIP3    H125211   4.930   6.211   2.566  1.1758  0.1741 -0.2240
 1240TIP3    H225212   5.004   6.082   2.595 -1.5337 -1.1771  0.9571
 1241TIP3   OH225213   0.446   0.453  16.648 -0.0246 -0.2337 -0.0603
 1241TIP3    H125214   0.403   0.445  16.734 -0.2827  1.5890  0.0183
 1241TIP3    H225215   0.440   0.547  16.627 -0.1097 -0.6645 -2.1601
 1242TIP3   OH225216   6.548   6.266   5.315  0.6558 -0.1455 -0.0237
 1242TIP3    H125217   6.480   6.264   5.382  0.9626 -2.3598  0.2829
 1242TIP3    H225218   6.509   6.219   5.241  0.4463  1.9595 -1.3229
 1243TIP3   OH225219   1.459   4.643  12.521 -0.4120 -0.0327 -0.0312
 1243TIP3    H125220   1.373   4.650  12.480 -0.5995 -1.1710  0.1407
 1243TIP3    H225221   1.464   4.552  12.551  0.8866 -0.0097 -0.1236
 1244TIP3   OH225222   2.095   6.644  12.180 -0.2980  0.3475  0.0290
 1244TIP3    H125223   2.121   6.608  12.265 -1.2638 -0.3740  0.0308
 1244TIP3    H225224   2.119   6.737  12.186  3.4195 -0.4498 -0.4622
 1245TIP3   OH225225   1.417   3.705  15.594 -0.9928  0.2217 -0.1485
 1245TIP3    H125226   1.496   3.749  15.562 -0.2952 -1.0238 -0.1828
 1245TIP3    H225227   1.350   3.773  15.590  0.3952  1.8154  1.3903
 1246TIP3   OH225228   3.518   5.213   1.198  0.1946  0.0362  0.5522
 1246TIP3    H125229   3.460   5.139   1.217 -1.2104  0.7799 -0.6504
 1246TIP3    H225230   3.477   5.257   1.124  2.6505  0.2422 -0.7852
 1247TIP3   OH225231   6.405   3.802  17.296 -0.1467  0.4289  0.5704
 1247TIP3    H125232   6.374   3.714  17.316  1.9260 -0.6427 -0.6212
 1247TIP3    H225233   6.499   3.792  17.281 -0.0249  2.6473 -0.6094
 1248TIP3   OH225234   2.469   5.213   5.576 -0.4607  0.3351 -0.1324
 1248TIP3    H125235   2.414   5.134   5.578 -0.3645  0.2697 -0.0176
 1248TIP3    H225236   2.487   5.227   5.484 -1.0272  0.6084 -0.2031
 1249TIP3   OH225237   5.390   5.288  11.145  0.1724  0.1800 -0.2300
 1249TIP3    H125238   5.335   5.239  11.084  0.0386  1.5642 -1.2711
 1249TIP3    H225239   5.480   5.271  11.115  0.3863 -1.8801  1.3211
 1250TIP3   OH225240   3.384   2.117  11.484  0.5339 -0.4834  0.0195
 1250TIP3    H125241   3.343   2.039  11.447 -0.1956 -0.2369  0.2826
 1250TIP3    H225242   3.369   2.186  11.419  0.3764 -0.3544  0.1890
 1251TIP3   OH225243   4.634   0.878  16.536  0.1359  0.0094  0.0011
 1251TIP3    H125244   4.610   0.863  16.444 -0.3017 -0.4693  0.1905
 1251TIP3    H225245   4.672   0.795  16.565 -0.7878 -0.2278  0.5791
 1252TIP3   OH225246   4.809   6.005   5.540 -0.1759 -0.0819  0.3296
 1252TIP3    H125247   4.774   5.957   5.616 -0.5603 -2.0592 -1.0122
 1252TIP3    H225248   4.745   5.989   5.471 -0.1923  2.2713 -0.2779
 1253TIP3   OH225249   6.612   4.427  12.572  0.2450 -0.0280 -0.2002
 1253TIP3    H125250   6.578   4.349  12.616 -1.2356  1.8373  2.2235
 1253TIP3    H225251   6.538   4.461  12.522  0.2184  0.9351  0.4673
 1254TIP3   OH225252   1.870   1.011   5.028 -0.5102 -0.3162  0.2276
 1254TIP3    H125253   1.851   0.980   5.117 -1.0909 -2.8181 -0.6964
 1254TIP3    H225254   1.956   0.974   5.007 -0.5088  0.0102 -0.3528
 1255TIP3   OH225255   3.120   5.010   5.690 -0.1288 -0.2867  0.6387
 1255TIP3    H125256   3.202   5.042   5.654 -0.0115 -0.8821  0.3694
 1255TIP3    H225257   3.123   5.033   5.783  0.0443  0.2903  0.4905
 1256TIP3   OH225258   5.898   4.710   2.531 -0.3432  0.2204 -0.0952
 1256TIP3    H125259   5.950   4.722   2.451  1.1251 -0.1551  0.7599
 1256TIP3    H225260   5.933   4.774   2.592 -0.8302 -0.1045  0.5398
 1257TIP3   OH225261   4.079   3.518  13.431 -0.0659  0.1386  0.8196
 1257TIP3    H125262   4.104   3.565  13.511  1.2992 -0.6402  0.8884
 1257TIP3    H225263   4.094   3.426  13.452  1.3302 -0.0137 -0.6567
 1258TIP3   OH225264   5.109   0.511   6.029 -0.6330 -0.1171  0.1466
 1258TIP3    H125265   5.024   0.487   6.066 -0.3962 -1.9579 -0.3995
 1258TIP3    H225266   5.171   0.494   6.099 -0.5665 -0.1773  0.0730
 1259TIP3   OH225267   3.525   1.580   1.398  0.0539 -0.1106 -0.7135
 1259TIP3    H125268   3.585   1.524   1.447 -1.2012 -0.7066  0.1975
 1259TIP3    H225269   3.450   1.524   1.377 -1.0559  1.0681 -0.1208
 1260TIP3   OH225270   5.553   6.285  11.875 -0.0883 -0.2431  0.1106
 1260TIP3    H125271   5.544   6.232  11.955  3.0351 -1.0870  0.0235
 1260TIP3    H225272   5.535   6.224  11.804 -1.6497  0.1997  0.0961
 1261TIP3   OH225273   3.261   3.249  11.497  0.1964  0.1687 -0.5074
 1261TIP3    H125274   3.274   3.231  11.590 -1.7465  1.0352 -0.0334
 1261TIP3    H225275   3.349   3.268  11.464  0.8041  0.7948  1.3636
 1262TIP3   OH225276   4.929   1.930   1.759 -0.2242 -0.3467  0.2532
 1262TIP3    H125277   4.905   1.904   1.670  1.1956  0.6040 -0.4495
 1262TIP3    H225278   4.845   1.935   1.805 -1.4992  2.5354 -1.9816
 1263TIP3   OH225279   0.008   2.434  15.676 -0.1172  0.3480 -0.2586
 1263TIP3    H125280  -0.015   2.358  15.730  0.5582 -1.4717 -2.3897
 1263TIP3    H225281  -0.072   2.453  15.626 -0.1386  0.7492 -0.0747
 1264TIP3   OH225282   0.489   1.164   6.115  0.1048 -0.0437  0.7182
 1264TIP3    H125283   0.447   1.093   6.164 -2.0133  0.8382  0.2910
 1264TIP3    H225284   0.494   1.236   6.177 -1.4228  0.6644  0.0852
 1265TIP3   OH225285   1.062   1.249  14.990  0.1967  0.2070  0.1229
 1265TIP3    H125286   1.007   1.209  15.056  0.3907 -1.6138 -0.7515
 1265TIP3    H225287   1.000   1.291  14.930 -0.1582 -0.4081  0.0435
 1266TIP3   OH225288   3.708   5.426   0.069 -0.5025  0.3128 -0.6826
 1266TIP3    H125289   3.649   5.391   0.002  0.3032 -2.4453 -0.1021
 1266TIP3    H225290   3.708   5.359   0.137  1.4139  1.3934  0.4562
 1267TIP3   OH225291   3.662   4.606  13.800 -0.9281 -0.1314  0.2037
 1267TIP3    H125292   3.577   4.636  13.831  0.1541  3.9245 -0.1755
 1267TIP3    H225293   3.664   4.629  13.707  1.1159  1.4497  0.5668
 1268TIP3   OH225294   0.536   5.087  11.590 -0.2159  0.4402  0.3028
 1268TIP3    H125295   0.448   5.113  11.617  0.1662  3.7187 -1.1884
 1268TIP3    H225296   0.537   5.101  11.495  1.6887 -0.3267  0.1767
 1269TIP3   OH225297   5.642   2.281   0.684 -0.3322 -0.4830  0.1374
 1269TIP3    H125298   5.587   2.337   0.629  4.2413  2.8309 -1.7536
 1269TIP3    H225299   5.659   2.203   0.630  0.7801  0.8493 -1.5634
 1270TIP3   OH225300   1.467   2.300  16.219 -0.1962 -1.0120  0.2409
 1270TIP3    H125301   1.508   2.369  16.271 -1.3131  0.2497 -0.4793
 1270TIP3    H225302   1.523   2.291  16.142 -1.1782  0.6927 -0.7340
 1271TIP3   OH225303   1.597   1.354  12.959  0.0323 -0.2035 -0.2298
 1271TIP3    H125304   1.626   1.284  12.901  2.8282  0.9559 -0.3753
 1271TIP3    H225305   1.553   1.417  12.901 -0.9816 -1.0083 -0.3585
 1272TIP3   OH225306   1.909   4.820   4.925 -0.0569 -0.0827 -0.2503
 1272TIP3    H125307   1.826   4.843   4.965 -0.4406  1.3275 -1.7327
 1272TIP3    H225308   1.923   4.887   4.858  0.4682 -2.3092 -2.5459
 1273TIP3   OH225309   3.373   5.612  13.586 -0.2603  0.7141  0.4217
 1273TIP3    H125310   3.399   5.520  13.588 -1.0457  0.4697 -0.1479
 1273TIP3    H225311   3.294   5.613  13.533 -1.0838  1.5197  1.6317
 1274TIP3   OH225312   1.070   6.484  13.232 -0.1173  0.2691 -0.0591
 1274TIP3    H125313   1.115   6.549  13.286 -1.2359  0.0881  1.1366
 1274TIP3    H225314   0.977   6.500  13.247 -0.4313 -1.7190  0.4447
 1275TIP3   OH225315   3.104   4.733   6.054 -0.8945  0.2714 -0.1546
 1275TIP3    H125316   3.022   4.732   6.102 -0.8438  0.3222 -0.0682
 1275TIP3    H225317   3.078   4.717   5.963 -0.9659 -0.0720 -0.0747
 1276TIP3   OH225318   5.243   4.372  11.775 -1.3216 -0.6873  0.2867
 1276TIP3    H125319   5.289   4.289  11.772 -1.8298 -0.9763  0.4363
 1276TIP3    H225320   5.162   4.357  11.727 -0.8455  0.0947 -0.8335
 1277TIP3   OH225321   5.919   6.714   5.474 -0.1058 -0.0143  0.2069
 1277TIP3    H125322   5.837   6.750   5.441  0.1754  0.3875 -0.0589
 1277TIP3    H225323   5.987   6.768   5.434  0.2099  1.5855  2.7171
 1278TIP3   OH225324   5.245   0.971   4.852 -0.1529  0.1732 -0.4996
 1278TIP3    H125325   5.330   1.004   4.882 -0.2267 -0.5332  0.5591
 1278TIP3    H225326   5.263   0.936   4.765  0.6753 -0.0394 -0.2575
 1279TIP3   OH225327   5.936   3.688  13.445 -0.2802 -0.3788 -0.2756
 1279TIP3    H125328   5.899   3.768  13.484 -2.2272 -1.5119  0.3386
 1279TIP3    H225329   5.984   3.720  13.368 -0.1948  1.4628  0.4834
 1280TIP3   OH225330   0.309   6.040   4.673  0.1425 -0.6611 -0.2275
 1280TIP3    H125331   0.257   6.053   4.593 -3.2588  1.4484  2.0550
 1280TIP3    H225332   0.307   5.945   4.687 -1.7486 -0.8071 -1.1575
 1281TIP3   OH225333   0.985   0.251   4.768  0.5010 -0.2026 -0.3691
 1281TIP3    H125334   0.960   0.177   4.713  1.6877 -0.1070 -1.0774
 1281TIP3    H225335   1.071   0.278   4.734  0.4825  0.9408  0.4396
 1282TIP3   OH225336   0.901   4.380  17.601 -0.6510  0.4499 -0.4044
 1282TIP3    H125337   0.895   4.467  17.561  2.3954  0.5006 -0.9812
 1282TIP3    H225338   0.902   4.319  17.528  0.4886  0.2140 -0.2147
 1283TIP3   OH225339   1.506   3.812   1.158  0.4582 -0.3108 -0.6532
 1283TIP3    H125340   1.577   3.758   1.123 -0.1265 -1.7005  0.2283
 1283TIP3    H225341   1.437   3.807   1.091  0.2152 -1.0866 -0.3533
 1284TIP3   OH225342   5.890   2.050  12.794  0.7546 -0.5404 -0.1161
 1284TIP3    H125343   5.919   1.966  12.758  0.0865 -0.4125 -0.9985
 1284TIP3    H225344   5.965   2.108  12.783  0.6154 -0.5460 -1.2114
 1285TIP3   OH225345   0.732   0.699   0.492  0.1030 -0.4858 -1.1004
 1285TIP3    H125346   0.705   0.790   0.478  2.1845  0.2021 -0.9185
 1285TIP3    H225347   0.649   0.651   0.499 -1.0478  1.2502 -1.9807
 1286TIP3   OH225348   1.500   2.186   5.635 -0.6225  0.1395 -0.0607
 1286TIP3    H125349   1.497   2.246   5.561  1.8753 -1.0932 -1.2806
 1286TIP3    H225350   1.565   2.223   5.695  0.0746 -0.7140 -0.2685
 1287TIP3   OH225351   3.654   1.047   2.350 -0.2520  0.2758  0.8960
 1287TIP3    H125352   3.605   0.979   2.303  1.9431 -0.4167 -0.5647
 1287TIP3    H225353   3.673   1.113   2.284  0.0973  0.9172  1.6224
 1288TIP3   OH225354   5.089   0.759  11.932 -0.4235  0.2495  0.0953
 1288TIP3    H125355   5.174   0.789  11.965 -0.4076 -0.2968  0.5636
 1288TIP3    H225356   5.094   0.663  11.937 -0.1441  0.0935 -2.1870
 1289TIP3   OH225357   1.362   3.019   4.491  0.1245 -0.4237 -0.2686
 1289TIP3    H125358   1.352   2.953   4.559 -2.5466  0.4839  0.3325
 1289TIP3    H225359   1.338   3.101   4.533  4.9571  1.4363 -0.4822
 1290TIP3   OH225360   3.973   0.189   0.801  0.1823  0.2839 -0.0377
 1290TIP3    H125361   3.926   0.262   0.762  0.3161 -0.3641 -1.4767
 1290TIP3    H225362   4.062   0.197   0.768  0.2913 -0.3076  0.0968
 1291TIP3   OH225363   6.093   5.602   2.919 -0.1815 -0.6252  0.3389
 1291TIP3    H125364   6.161   5.651   2.873  0.1302 -3.5577 -2.7371
 1291TIP3    H225365   6.134   5.574   3.000  0.3286  2.1647  1.1515
 1292TIP3   OH225366   1.542   3.872  13.471 -0.6707 -0.3702 -0.3710
 1292TIP3    H125367   1.497   3.925  13.537  0.6735 -0.1856  0.4418
 1292TIP3    H225368   1.530   3.919  13.389  0.4295  1.1964  0.3105
 1293TIP3   OH225369   5.654   2.520   4.400 -0.2232  0.2667  1.2558
 1293TIP3    H125370   5.619   2.570   4.325  1.5006  1.1536  1.0032
 1293TIP3    H225371   5.743   2.498   4.374  0.2137  0.1082  2.8351
 1294TIP3   OH225372   3.781   4.920  17.364 -0.2770 -0.2341  0.1856
 1294TIP3    H125373   3.694   4.884  17.381 -0.9354 -0.2072 -2.5994
 1294TIP3    H225374   3.813   4.869  17.290  1.0039  1.4142 -0.4580
 1295TIP3   OH225375   0.123   5.553   1.519 -0.3224 -0.3589  0.4909
 1295TIP3    H125376   0.189   5.620   1.504  0.1808 -0.7566  0.8898
 1295TIP3    H225377   0.154   5.505   1.596 -2.4512  1.1706  2.4441
 1296TIP3   OH225378   1.544   0.249  16.905 -0.0071  0.2412 -0.1392
 1296TIP3    H125379   1.466   0.207  16.942  0.3562 -0.9151 -0.6314
 1296TIP3    H225380   1.515   0.338  16.884 -0.6626  0.4181  1.3790
 1297TIP3   OH225381   1.187   3.260  13.279  0.3868  0.6411  0.0946
 1297TIP3    H125382   1.130   3.243  13.204  2.0316  0.2014 -1.1124
 1297TIP3    H225383   1.229   3.175  13.296 -0.9054  0.3621  2.4108
 1298TIP3   OH225384   0.912   5.692  12.282  0.0607  0.4169  0.4070
 1298TIP3    H125385   0.856   5.638  12.337 -0.6836 -0.3541 -1.0540
 1298TIP3    H225386   0.990   5.639  12.268 -0.7557 -0.4465 -1.1967
 1299TIP3   OH225387   5.929   1.791  14.387 -0.1644 -0.1595  0.5137
 1299TIP3    H125388   5.968   1.877  14.404 -0.8456 -0.0860  1.8636
 1299TIP3    H225389   6.004   1.735  14.368  0.9298 -0.3789  4.4880
 1300TIP3   OH225390   3.785   5.235   0.610  1.0181  0.1432  0.4012
 1300TIP3    H125391   3.706   5.195   0.648 -0.1186  0.7875 -1.1751
 1300TIP3    H225392   3.799   5.186   0.529  0.5175  1.8646 -0.7764
 1301TIP3   OH225393   5.661   0.089   5.353  0.1875  0.2054 -0.4819
 1301TIP3    H125394   5.651   0.024   5.284 -0.6758 -0.8879  0.6075
 1301TIP3    H225395   5.580   0.141   5.349  0.1894  0.2170 -0.3891
 1302TIP3   OH225396   5.586   5.757  14.068  0.0142 -0.2855 -0.0531
 1302TIP3    H125397   5.536   5.824  14.114 -2.2546 -2.9542  1.6460
 1302TIP3    H225398   5.677   5.772  14.096 -0.5566  1.4505  1.0170
 1303TIP3   OH225399   0.578   5.996   1.357 -0.1914  0.2812 -0.2837
 1303TIP3    H125400   0.572   6.044   1.440 -0.7602  2.2758 -1.4286
 1303TIP3    H225401   0.667   5.960   1.358  0.1122  1.0009  0.7991
 1304TIP3   OH225402   3.176   3.850  13.610 -0.7190  0.8734  0.0707
 1304TIP3    H125403   3.130   3.784  13.559 -0.9897  1.1901 -0.0950
 1304TIP3    H225404   3.267   3.844  13.581 -0.7349  0.5378  0.0944
 1305TIP3   OH225405   1.526   6.041  16.755  0.3238 -0.5727  0.1284
 1305TIP3    H125406   1.552   6.132  16.740  0.1918 -0.7219 -1.1157
 1305TIP3    H225407   1.587   6.010  16.822  1.2498  0.0420 -0.4011
 1306TIP3   OH225408   5.727   6.119   2.291 -0.2733 -0.3424  0.1410
 1306TIP3    H125409   5.795   6.124   2.224 -0.1281 -0.2469  0.2956
 1306TIP3    H225410   5.666   6.189   2.268 -0.1490 -0.2173  0.1914
 1307TIP3   OH225411   3.574   2.335   3.914 -0.0955  0.1817 -0.1448
 1307TIP3    H125412   3.517   2.281   3.859  0.5790  0.6561 -1.3449
 1307TIP3    H225413   3.560   2.301   4.002 -0.5607 -1.1820 -0.7059
 1308TIP3   OH225414   3.840   3.302   5.145  0.4729  0.1101  0.1199
 1308TIP3    H125415   3.773   3.364   5.114  0.5511 -0.3990 -1.1429
 1308TIP3    H225416   3.845   3.316   5.239 -1.4354  0.1622  0.2479
 1309TIP3   OH225417   0.126   3.938   0.552 -0.1700  0.1456 -0.5970
 1309TIP3    H125418   0.118   3.850   0.516 -1.6311 -0.2912  0.7187
 1309TIP3    H225419   0.211   3.969   0.519 -0.0576 -1.3646 -1.8540
 1310TIP3   OH225420   3.566   4.163   1.127 -0.1929  0.2936  0.2058
 1310TIP3    H125421   3.561   4.251   1.090 -1.3695  0.4465  0.6705
 1310TIP3    H225422   3.651   4.129   1.099  0.3242  1.6213  0.1267
 1311TIP3   OH225423   3.600   5.457  16.869 -0.5163  0.3296 -0.7814
 1311TIP3    H125424   3.598   5.406  16.788  0.5233 -1.6104  0.3310
 1311TIP3    H225425   3.668   5.523  16.854  1.0442 -1.2230 -0.8887
 1312TIP3   OH225426   1.366   4.787  15.180 -0.2552  0.1213 -0.3767
 1312TIP3    H125427   1.441   4.772  15.122  2.6152 -0.1582  3.0284
 1312TIP3    H225428   1.335   4.699  15.202 -0.0559  0.1439 -0.0002
 1313TIP3   OH225429   1.766   3.371  15.647  0.1682 -0.0339  1.1057
 1313TIP3    H125430   1.718   3.288  15.653  1.0708 -0.5368  1.6610
 1313TIP3    H225431   1.825   3.359  15.573  0.0903  0.2175  1.0046
 1314TIP3   OH225432   5.806   4.962  15.688  0.4824  0.1898  0.7316
 1314TIP3    H125433   5.876   4.922  15.740  0.7397 -1.6859 -0.9064
 1314TIP3    H225434   5.839   5.049  15.666  1.6875 -0.1345  1.1792
 1315TIP3   OH225435   6.683   3.823  13.469 -0.8023 -0.2842 -0.2942
 1315TIP3    H125436   6.751   3.876  13.511 -0.9172  0.0007 -0.4705
 1315TIP3    H225437   6.680   3.854  13.379 -0.7766 -0.6824 -0.4354
 1316TIP3   OH225438   5.691   2.701   1.827  0.2837 -0.4473 -0.1806
 1316TIP3    H125439   5.750   2.776   1.829  0.5043 -0.6172 -0.1717
 1316TIP3    H225440   5.607   2.736   1.798 -0.2523  0.2390  2.0144
 1317TIP3   OH225441   3.977   4.240   4.390 -0.2343 -0.1648 -0.2421
 1317TIP3    H125442   3.969   4.296   4.468 -2.3184 -0.6827 -0.0350
 1317TIP3    H225443   4.023   4.295   4.326 -0.6270  1.1341  0.5573
 1318TIP3   OH225444   2.220   0.054   3.659 -0.0052 -0.5388  0.1380
 1318TIP3    H125445   2.205  -0.021   3.601  0.3331 -0.3285 -0.2180
 1318TIP3    H225446   2.202   0.019   3.747 -0.1704 -0.9498 -0.0546
 1319TIP3   OH225447   3.111   0.968  13.319 -0.2062 -0.6052  0.5128
 1319TIP3    H125448   3.017   0.979  13.336  0.1583  2.2369  1.1725
 1319TIP3    H225449   3.127   1.017  13.239  0.9925  0.5900  1.4427
 1320TIP3   OH225450   6.570   5.044  16.211  0.1349 -0.2214  0.0778
 1320TIP3    H125451   6.661   5.019  16.229  0.2288 -1.0632 -1.3559
 1320TIP3    H225452   6.520   5.006  16.282  0.7583 -0.9765  0.1256
 1321TIP3   OH225453   2.629   5.007  12.534 -0.5538  0.0626  0.9693
 1321TIP3    H125454   2.717   5.023  12.502 -1.0533 -1.4567 -1.4178
 1321TIP3    H225455   2.641   4.973  12.623  1.4463 -1.9295  0.0319
 1322TIP3   OH225456   3.191   1.761  16.972 -0.0361  0.3408 -0.0326
 1322TIP3    H125457   3.153   1.723  16.893 -1.4285  2.2949 -0.3929
 1322TIP3    H225458   3.170   1.699  17.041 -0.1397 -0.6764 -0.9576
 1323TIP3   OH225459   1.382   4.853   1.675  0.2700  0.5391 -0.4458
 1323TIP3    H125460   1.382   4.916   1.603 -0.3332  0.1232 -0.8250
 1323TIP3    H225461   1.470   4.857   1.711  0.9600 -0.1160 -1.9788
 1324TIP3   OH225462   1.763   4.230   1.798 -0.3697 -0.4934 -0.5097
 1324TIP3    H125463   1.758   4.287   1.875  1.8785 -0.4737 -0.3114
 1324TIP3    H225464   1.843   4.180   1.811  0.0653 -0.4885 -2.8469
 1325TIP3   OH225465   1.498   1.206   2.951 -0.2549  0.5174  0.2660
 1325TIP3    H125466   1.540   1.144   3.011  0.4414  0.3066 -0.4217
 1325TIP3    H225467   1.463   1.275   3.008 -0.5495 -0.2167  0.9945
 1326TIP3   OH225468   6.358   3.111   3.575 -0.0915  0.2832  0.8592
 1326TIP3    H125469   6.439   3.162   3.570 -1.1710  1.9753 -1.0768
 1326TIP3    H225470   6.356   3.061   3.494 -2.8927  3.6209 -1.4699
 1327TIP3   OH225471   0.369   6.316   1.503 -0.4276 -0.7200 -0.2676
 1327TIP3    H125472   0.415   6.382   1.555 -1.6882  1.9683 -2.2944
 1327TIP3    H225473   0.334   6.254   1.567  3.4883 -1.3644  1.5292
 1328TIP3   OH225474   1.397   0.404  15.234  0.1217 -0.6507 -0.0279
 1328TIP3    H125475   1.438   0.487  15.209  0.4083 -0.8711 -0.3016
 1328TIP3    H225476   1.434   0.339  15.173  0.1763 -1.0441  0.4176
 1329TIP3   OH225477   2.212   2.703  14.782  0.6691 -0.2235  0.4275
 1329TIP3    H125478   2.202   2.694  14.687 -2.2500 -1.5902  0.7568
 1329TIP3    H225479   2.163   2.783  14.803 -0.1836 -0.8441  0.9059
 1330TIP3   OH225480   1.726   2.178  17.453 -0.0393  0.2936 -0.1775
 1330TIP3    H125481   1.656   2.151  17.512 -0.4931  0.5988 -0.5696
 1330TIP3    H225482   1.686   2.245  17.398  0.8795  1.3098  0.3505
 1331TIP3   OH225483   4.564   6.295   3.169  0.1172 -0.0987  0.2802
 1331TIP3    H125484   4.595   6.347   3.243  1.0873 -1.1091  0.6169
 1331TIP3    H225485   4.469   6.308   3.168  0.3425  1.8805  0.1639
 1332TIP3   OH225486   6.217   2.819  14.634 -0.8465 -0.1178  0.2779
 1332TIP3    H125487   6.151   2.810  14.702  0.1383 -0.1857  1.2699
 1332TIP3    H225488   6.288   2.760  14.662  0.1536  0.8787 -0.0705
 1333TIP3   OH225489   2.591   6.679  11.988  0.1053  0.6649  0.0386
 1333TIP3    H125490   2.550   6.692  11.902 -0.9155 -0.0623  0.3993
 1333TIP3    H225491   2.518   6.659  12.047  0.9416 -0.4916  0.7366
 1334TIP3   OH225492   1.327   6.139   0.252  0.0013 -0.1977  0.4164
 1334TIP3    H125493   1.242   6.174   0.226 -0.6253 -1.1499  1.1185
 1334TIP3    H225494   1.307   6.054   0.290  1.2040 -0.1462  1.2058
 1335TIP3   OH225495   5.561   2.655  16.689  0.2360 -0.0935  0.3834
 1335TIP3    H125496   5.596   2.649  16.778 -1.3252  2.1147  1.2344
 1335TIP3    H225497   5.603   2.732  16.652  1.3169 -1.3267 -1.0645
 1336TIP3   OH225498   1.345   6.582  15.637 -0.7219 -0.3274 -0.0350
 1336TIP3    H125499   1.346   6.678  15.639  0.1280 -0.3175  2.3081
 1336TIP3    H225500   1.381   6.560  15.551 -0.8063  1.4480 -0.5698
 1337TIP3   OH225501   3.034   4.549  14.793  0.1563 -0.0684 -0.4754
 1337TIP3    H125502   2.997   4.473  14.749  0.6944  0.4974 -1.9733
 1337TIP3    H225503   3.039   4.616  14.725 -1.8870  1.9118  1.1584
 1338TIP3   OH225504   1.538   3.926   0.795  0.2975 -0.2187  0.3076
 1338TIP3    H125505   1.473   3.984   0.756 -1.3636 -1.6859  0.7881
 1338TIP3    H225506   1.500   3.900   0.879  0.9363 -2.0110  0.0973
 1339TIP3   OH225507   3.996   4.113  12.001  0.3486  0.7792  0.5749
 1339TIP3    H125508   4.089   4.109  11.978  0.2995  2.7587 -0.1602
 1339TIP3    H225509   3.963   4.025  11.983  1.5778  0.6639 -1.3920
 1340TIP3   OH225510   0.734   2.602   1.376 -0.9249  0.3304  0.7473
 1340TIP3    H125511   0.708   2.517   1.340  0.5927 -1.0320  2.6645
 1340TIP3    H225512   0.656   2.635   1.420 -1.9773  0.7103 -1.2949
 1341TIP3   OH225513   4.650   5.153   3.848 -0.5386 -0.0955  0.2173
 1341TIP3    H125514   4.587   5.132   3.917 -0.6595  2.0408  0.8243
 1341TIP3    H225515   4.602   5.140   3.767 -1.4486  0.5044  0.6433
 1342TIP3   OH225516   4.135   2.506  13.803  0.4102 -0.1826  0.2104
 1342TIP3    H125517   4.063   2.569  13.806 -0.8573 -1.4488 -1.8543
 1342TIP3    H225518   4.199   2.546  13.743  0.2697 -0.1912  0.0533
 1343TIP3   OH225519   5.569   6.291  13.233  0.1194 -0.2363  0.1561
 1343TIP3    H125520   5.543   6.380  13.256 -2.0205 -0.8719  0.3404
 1343TIP3    H225521   5.497   6.258  13.179  1.3280 -1.5384 -0.7330
 1344TIP3   OH225522   0.958   5.015  14.423  0.0575 -0.0659 -0.2040
 1344TIP3    H125523   1.035   5.057  14.462  1.1807  0.3659 -2.6461
 1344TIP3    H225524   0.898   5.088  14.405 -0.1737 -0.1754  0.1221
 1345TIP3   OH225525   0.927   1.378   5.467  0.1525  0.5191  0.5522
 1345TIP3    H125526   0.917   1.472   5.449  0.9912  0.4195 -0.5437
 1345TIP3    H225527   0.838   1.347   5.480 -0.3940  1.0271 -1.5347
 1346TIP3   OH225528   2.941   2.770  16.298 -0.0515  0.1992 -0.3263
 1346TIP3    H125529   2.919   2.736  16.385 -2.5421  1.0939 -0.5139
 1346TIP3    H225530   2.978   2.856  16.314  0.0620  0.1120 -0.1212
 1347TIP3   OH225531   1.771   0.733   4.673 -0.0425  0.6123 -0.1943
 1347TIP3    H125532   1.682   0.747   4.707  0.1216  0.5034  0.2964
 1347TIP3    H225533   1.766   0.758   4.581 -0.7038  0.1244 -0.2981
 1348TIP3   OH225534   0.990   3.874   0.734  0.1677 -0.3021  0.3014
 1348TIP3    H125535   0.902   3.912   0.734  0.7809  1.2268  1.3104
 1348TIP3    H225536   0.994   3.822   0.654 -2.1992 -1.7735  1.0318
 1349TIP3   OH225537   1.596   6.590   2.162  0.6566 -0.2833  0.2463
 1349TIP3    H125538   1.638   6.636   2.235 -0.6051 -0.4544  1.1048
 1349TIP3    H225539   1.573   6.504   2.198 -0.0350 -0.3464 -0.3279
 1350TIP3   OH225540   4.674   0.756   1.383 -0.1865  0.3474 -0.0317
 1350TIP3    H125541   4.638   0.673   1.354 -0.7350  0.4769  0.2772
 1350TIP3    H225542   4.733   0.782   1.312  0.1390 -0.3958 -0.0394
 1351TIP3   OH225543   1.605   1.445   5.687 -0.0137  0.1140 -0.2356
 1351TIP3    H125544   1.552   1.382   5.637 -0.4696  0.2370  0.0907
 1351TIP3    H225545   1.591   1.528   5.642 -1.9883  0.6225  1.2286
 1352TIP3   OH225546   0.549   2.495   1.688 -0.8914 -0.2003  0.1060
 1352TIP3    H125547   0.512   2.521   1.773  0.2213  0.8023  0.3119
 1352TIP3    H225548   0.643   2.512   1.697 -0.4122 -2.2129 -0.5686
 1353TIP3   OH225549   0.192   1.417  12.739 -0.0671  0.0311  0.5030
 1353TIP3    H125550   0.212   1.325  12.758 -0.0352 -0.0134  0.2547
 1353TIP3    H225551   0.274   1.453  12.707  0.3776  0.5677  2.1248
 1354TIP3   OH225552   6.104   4.812  16.964  0.1064 -0.4172 -0.0207
 1354TIP3    H125553   6.135   4.803  16.874  0.1943  1.2706 -0.1861
 1354TIP3    H225554   6.094   4.906  16.977 -0.8410 -0.6867  1.4298
 1355TIP3   OH225555   3.568   4.556   3.043 -0.4490 -0.1303 -0.2840
 1355TIP3    H125556   3.596   4.574   3.132  0.9632 -1.8492 -0.3245
 1355TIP3    H225557   3.479   4.521   3.052  0.1535 -1.5182  0.6158
 1356TIP3   OH225558   5.963   2.980  13.278  0.0760  0.5345 -0.2110
 1356TIP3    H125559   6.056   3.000  13.274  0.4680 -0.8032  1.3147
 1356TIP3    H225560   5.942   2.945  13.191  1.3825 -0.6780 -0.0575
 1357TIP3   OH225561   0.777   2.553  13.501 -0.1664 -0.7322 -0.0013
 1357TIP3    H125562   0.712   2.521  13.563 -1.8893  0.3778 -1.1713
 1357TIP3    H225563   0.728   2.608  13.440  1.7800 -0.2815 -1.2531
 1358TIP3   OH225564   4.344   0.497  17.214 -0.2185  0.1508  0.2235
 1358TIP3    H125565   4.332   0.435  17.142  0.9610 -0.7576  0.7599
 1358TIP3    H225566   4.424   0.467  17.257 -0.1945  1.4528  1.1301
 1359TIP3   OH225567   5.205   0.063  11.691 -0.3229  0.1787  0.3667
 1359TIP3    H125568   5.166   0.119  11.758 -2.1618 -1.4795  0.7870
 1359TIP3    H225569   5.135   0.002  11.668  0.3909  0.4045 -2.7894
 1360TIP3   OH225570   5.988   4.353   6.216  0.1952 -0.1634  0.0676
 1360TIP3    H125571   5.898   4.344   6.247  1.0423 -3.5250  1.9666
 1360TIP3    H225572   5.995   4.291   6.144  1.2423 -0.7396  0.6426
 1361TIP3   OH225573   3.131   6.340   1.037  0.4914  0.2814  0.4794
 1361TIP3    H125574   3.119   6.297   0.952 -0.8953  0.1000  0.7413
 1361TIP3    H225575   3.201   6.290   1.079 -0.0424 -0.7686  0.1561
 1362TIP3   OH225576   5.043   4.230  13.193  0.4110  0.0496 -0.4106
 1362TIP3    H125577   5.032   4.174  13.116  0.4467  1.0919 -1.1888
 1362TIP3    H225578   5.138   4.242  13.200  0.4181 -0.1410 -0.1083
 1363TIP3   OH225579   2.453   2.250  17.053 -0.1084  0.1994 -0.6433
 1363TIP3    H125580   2.478   2.326  17.002 -0.7750 -1.1802 -3.1944
 1363TIP3    H225581   2.484   2.175  17.001 -0.3088 -1.3147  1.2883
 1364TIP3   OH225582   5.508   5.279  15.769 -0.0159  0.4673 -0.1484
 1364TIP3    H125583   5.525   5.278  15.863  0.3386  0.6989 -0.2051
 1364TIP3    H225584   5.455   5.201  15.752 -1.3446  1.1968  0.4704
 1365TIP3   OH225585   4.428   6.259  13.689 -0.2165 -0.2875 -0.1784
 1365TIP3    H125586   4.347   6.227  13.649  0.6934 -1.3679 -1.2171
 1365TIP3    H225587   4.454   6.334  13.635 -0.5335  0.1135  0.2060
 1366TIP3   OH225588   0.353   6.605  15.181  0.7220  0.0788 -0.3431
 1366TIP3    H125589   0.361   6.670  15.111 -0.6804  1.5028  0.7732
 1366TIP3    H225590   0.411   6.637  15.250  1.3620 -0.8199 -0.4344
 1367TIP3   OH225591   6.612   3.031   5.550 -0.4836 -0.2982 -0.1238
 1367TIP3    H125592   6.636   3.113   5.595  0.6957 -0.4492 -0.4675
 1367TIP3    H225593   6.569   2.979   5.618 -0.9606  0.4722  0.1833
 1368TIP3   OH225594   5.521   2.167  13.297 -0.4750 -0.2650 -0.5710
 1368TIP3    H125595   5.602   2.178  13.347  0.7542 -1.2013 -2.2437
 1368TIP3    H225596   5.470   2.246  13.316  0.9871  0.5309  0.2581
 1369TIP3   OH225597   4.381   1.610   4.311 -0.3796 -0.6357 -0.7365
 1369TIP3    H125598   4.432   1.575   4.384 -2.4713 -0.5311  0.8730
 1369TIP3    H225599   4.436   1.679   4.273  1.0947 -1.2645  0.1939
 1370TIP3   OH225600   6.457   2.792  17.123 -0.7751 -0.3693  0.1180
 1370TIP3    H125601   6.473   2.859  17.189 -0.8410 -0.4285  0.1945
 1370TIP3    H225602   6.392   2.734  17.163 -1.3722  0.0054 -0.2856
 1371TIP3   OH225603   4.944   6.321   1.430  0.3574  0.6674 -0.1945
 1371TIP3    H125604   4.926   6.258   1.500  1.5381 -0.0311 -0.4926
 1371TIP3    H225605   4.865   6.321   1.376 -0.1714  0.4559  0.5694
 1372TIP3   OH225606   5.922   3.859  14.817  0.7681  0.2450  0.3555
 1372TIP3    H125607   6.001   3.866  14.762  3.2955  0.7493  3.7248
 1372TIP3    H225608   5.934   3.778  14.866 -1.2941 -0.0829  0.4000
 1373TIP3   OH225609   1.477   0.954   1.822 -0.2501 -0.2502 -0.3473
 1373TIP3    H125610   1.417   0.965   1.749 -0.3108  0.9879 -0.1280
 1373TIP3    H225611   1.564   0.962   1.782 -0.2824  2.8631  0.0052
 1374TIP3   OH225612   6.557   0.502  12.029  0.3461 -0.1523 -0.3037
 1374TIP3    H125613   6.505   0.560  11.973  1.0591  0.2661 -0.5361
 1374TIP3    H225614   6.599   0.441  11.968  0.9997  0.2052 -0.2099
 1375TIP3   OH225615   3.382   4.349  11.411  0.4017  0.1253 -0.9179
 1375TIP3    H125616   3.446   4.281  11.432  0.2051  0.5849  1.5173
 1375TIP3    H225617   3.434   4.418  11.369  0.9776 -0.6360 -1.4934
 1376TIP3   OH225618   3.678   4.235  12.343  0.1754 -0.2839  0.4849
 1376TIP3    H125619   3.746   4.196  12.397  0.5171 -0.0312  0.2418
 1376TIP3    H225620   3.709   4.324  12.326 -0.7157  0.2007  1.2638
 1377TIP3   OH225621   5.634   2.275  12.538  0.2270  0.3420 -0.3093
 1377TIP3    H125622   5.724   2.248  12.552  0.6943  1.8834 -0.1616
 1377TIP3    H225623   5.621   2.269  12.444  0.0451 -1.1335 -0.2114
 1378TIP3   OH225624   4.803   2.019   3.230  0.2884 -0.0677 -0.0407
 1378TIP3    H125625   4.839   2.078   3.296  1.0762 -0.2254 -0.3292
 1378TIP3    H225626   4.722   1.987   3.270  0.3944  0.3862  0.5558
 1379TIP3   OH225627   4.791   5.811   5.922  0.2257 -0.1821  0.6188
 1379TIP3    H125628   4.789   5.907   5.924  2.0006 -0.1163  0.5808
 1379TIP3    H225629   4.817   5.787   6.011  1.0746 -0.5755  0.2636
 1380TIP3   OH225630   6.092   1.558   3.856 -0.5503 -0.4612 -0.4174
 1380TIP3    H125631   6.148   1.496   3.809 -1.5692 -2.2081  0.5531
 1380TIP3    H225632   6.145   1.637   3.865  2.5678 -2.5875  2.0928
 1381TIP3   OH225633   5.562   1.847  14.631 -0.3947 -0.3696  0.0366
 1381TIP3    H125634   5.597   1.913  14.690  0.8406 -0.5739 -0.4483
 1381TIP3    H225635   5.527   1.897  14.557  0.3324 -0.2478 -0.2253
 1382TIP3   OH225636   5.296   5.926  11.873 -0.2538  0.0391 -0.2796
 1382TIP3    H125637   5.206   5.893  11.866  0.0003 -0.5882 -0.7145
 1382TIP3    H225638   5.349   5.847  11.884  0.0779  0.5068  2.0448
 1383TIP3   OH225639   0.081   2.818   2.806 -0.5826 -0.2187  0.7193
 1383TIP3    H125640   0.056   2.910   2.792 -1.1803 -0.6133 -1.0068
 1383TIP3    H225641   0.176   2.818   2.794 -0.0084  0.7415  4.2532
 1384TIP3   OH225642   5.761   2.664  13.234 -0.1613  0.2216 -0.1769
 1384TIP3    H125643   5.709   2.690  13.311 -0.6192 -0.0738 -0.3836
 1384TIP3    H225644   5.725   2.716  13.163  0.6975  0.9786 -0.0720
 1385TIP3   OH225645   0.634   1.896   1.775 -0.4813  0.2942 -0.6697
 1385TIP3    H125646   0.639   1.988   1.749  0.3156 -0.1798 -2.3312
 1385TIP3    H225647   0.548   1.867   1.743 -0.1751  0.1287 -1.3563
 1386TIP3   OH225648   5.490   4.354  15.147  0.4339 -0.0165 -0.3503
 1386TIP3    H125649   5.422   4.331  15.211  0.7564 -0.1231 -0.0471
 1386TIP3    H225650   5.562   4.388  15.200  0.9448 -0.6921 -0.6122
 1387TIP3   OH225651   6.527   6.560   3.420  0.1613  0.5634 -0.6359
 1387TIP3    H125652   6.515   6.574   3.514 -1.8787  0.1968 -0.8088
 1387TIP3    H225653   6.488   6.474   3.403 -1.5047  1.5648 -2.1581
 1388TIP3   OH225654   5.541   5.043  15.540  0.3883 -0.3354  0.5251
 1388TIP3    H125655   5.622   5.002  15.508  0.8057  0.6884  0.2446
 1388TIP3    H225656   5.538   5.018  15.633  1.6253  0.5348  0.8240
 1389TIP3   OH225657   4.275   4.166   2.922  1.1848  0.0818  0.3567
 1389TIP3    H125658   4.331   4.203   2.990  1.1981 -2.4979  1.8910
 1389TIP3    H225659   4.335   4.116   2.867  1.0829  1.6644 -1.2739
 1390TIP3   OH225660   0.664   6.371   3.923 -0.3790  0.3591  0.6450
 1390TIP3    H125661   0.742   6.375   3.867 -0.7144  1.5375  0.2319
 1390TIP3    H225662   0.626   6.459   3.917 -2.2013 -0.4083  0.1663
 1391TIP3   OH225663   1.203   3.830  13.118 -0.8133 -0.4354 -0.5306
 1391TIP3    H125664   1.125   3.885  13.126 -1.5191 -1.5601  0.8893
 1391TIP3    H225665   1.179   3.748  13.162  1.9951  0.0818  2.3184
 1392TIP3   OH225666   0.494   6.056   5.577  0.5576  0.2159 -0.5555
 1392TIP3    H125667   0.455   6.104   5.650  0.8385  1.1660 -1.0254
 1392TIP3    H225668   0.443   6.083   5.501  0.9757  0.0640 -0.8899
 1393TIP3   OH225669   1.344   3.382  12.215 -0.3072  0.0002 -0.2569
 1393TIP3    H125670   1.433   3.349  12.226 -0.5417 -2.1044 -3.3618
 1393TIP3    H225671   1.290   3.323  12.268 -0.1298 -0.9354 -1.0781
 1394TIP3   OH225672   4.677   5.460   4.266  0.2611  0.2456  0.4947
 1394TIP3    H125673   4.635   5.505   4.340 -0.0176  0.7060  0.0575
 1394TIP3    H225674   4.604   5.428   4.213  0.4549 -0.7890  0.8322
 1395TIP3   OH225675   6.336   3.287   5.797 -0.2318  0.2455 -0.1544
 1395TIP3    H125676   6.302   3.368   5.760 -0.8703 -0.4744 -1.2090
 1395TIP3    H225677   6.280   3.269   5.873 -0.1750  0.7088 -0.0011
 1396TIP3   OH225678   1.230   5.563  11.988 -0.2630 -0.0953  0.3797
 1396TIP3    H125679   1.206   5.633  11.927 -0.9388 -0.1607  0.5651
 1396TIP3    H225680   1.326   5.567  11.992 -0.1287 -0.5732 -1.2749
 1397TIP3   OH225681   4.398   4.891  15.549  0.7749  0.5850 -0.2100
 1397TIP3    H125682   4.486   4.894  15.513  0.6076  1.9433 -0.5812
 1397TIP3    H225683   4.355   4.820  15.501  1.6216 -0.0076 -0.1077
 1398TIP3   OH225684   1.515   1.230  15.758  0.4580  0.5761  0.2357
 1398TIP3    H125685   1.579   1.287  15.800  0.8539  0.7285 -0.5507
 1398TIP3    H225686   1.500   1.271  15.672 -1.1139  0.8560  0.6165
 1399TIP3   OH225687   6.118   3.545   3.991  0.2238 -0.1091  0.8781
 1399TIP3    H125688   6.128   3.480   4.061  2.2062 -1.0179 -0.1620
 1399TIP3    H225689   6.208   3.560   3.960 -0.3983  1.7845 -0.1290
 1400TIP3   OH225690   6.685   1.426  15.667 -0.4936 -0.6918  0.1784
 1400TIP3    H125691   6.636   1.455  15.591 -1.9510 -1.4660  0.7841
 1400TIP3    H225692   6.764   1.481  15.668 -1.4017  0.6691 -0.7560
 1401TIP3   OH225693   1.364   0.650   5.166  0.7078  0.0805  0.0478
 1401TIP3    H125694   1.340   0.561   5.192 -1.6584  0.9365  1.1141
 1401TIP3    H225695   1.440   0.672   5.221  2.4157 -1.7803 -1.4110
 1402TIP3   OH225696   6.333   5.375   5.642  0.1062 -0.3420 -0.1473
 1402TIP3    H125697   6.339   5.360   5.548 -0.4507 -1.8505  0.0382
 1402TIP3    H225698   6.240   5.363   5.663  0.1944  0.1198  0.5892
 1403TIP3   OH225699   0.205   1.944   3.628 -0.5023  0.4790  0.1085
 1403TIP3    H125700   0.201   1.851   3.651  1.0223 -0.1406 -1.8611
 1403TIP3    H225701   0.113   1.969   3.617 -0.9008 -1.1335 -0.5329
 1404TIP3   OH225702   1.885   5.916  15.896  0.8275  0.3001  0.2725
 1404TIP3    H125703   1.824   5.893  15.826  1.0023 -3.7439  1.2107
 1404TIP3    H225704   1.959   5.956  15.850  0.1124 -0.4541 -1.6579
 1405TIP3   OH225705   3.398   5.054   1.926 -0.5305  0.8768 -0.3353
 1405TIP3    H125706   3.460   4.989   1.958 -1.1595 -0.1157 -1.0992
 1405TIP3    H225707   3.393   5.119   1.997  0.4842  0.3766  0.2192
 1406TIP3   OH225708   3.619   1.155   0.394  0.0146  0.3687  0.0600
 1406TIP3    H125709   3.600   1.220   0.326  0.5117  0.9609  0.4747
 1406TIP3    H225710   3.568   1.184   0.469  1.8771  1.5352  0.9400
 1407TIP3   OH225711   1.594   4.223  14.734 -0.1112  0.3314  0.1765
 1407TIP3    H125712   1.596   4.319  14.734 -3.4260  0.5439 -0.1976
 1407TIP3    H225713   1.669   4.197  14.681  0.0167  2.7997 -1.0146
 1408TIP3   OH225714   3.518   4.847   3.100  0.0077 -0.1889 -0.1259
 1408TIP3    H125715   3.528   4.913   3.031 -1.8955  0.0317 -0.2332
 1408TIP3    H225716   3.552   4.766   3.061  2.3418  0.6469 -0.0011
 1409TIP3   OH225717   6.698   2.257   3.156  0.1837  0.1185 -0.3203
 1409TIP3    H125718   6.742   2.310   3.222  1.0561 -1.1425  0.1553
 1409TIP3    H225719   6.614   2.235   3.196  1.7329 -2.9171  1.7054
 1410TIP3   OH225720   5.670   3.936   3.161  0.0599  0.2830  0.4358
 1410TIP3    H125721   5.599   4.000   3.159 -0.0607  0.1897  1.4485
 1410TIP3    H225722   5.638   3.866   3.219  1.3006  0.6436  1.5944
 1411TIP3   OH225723   2.391   5.390  11.855  0.2210 -0.0476  0.3789
 1411TIP3    H125724   2.403   5.309  11.806  1.1845 -1.7339  3.1577
 1411TIP3    H225725   2.431   5.372  11.940 -0.6942  2.9240  1.5452
 1412TIP3   OH225726   5.895   0.699  14.372  0.0699 -0.3851 -0.0661
 1412TIP3    H125727   5.863   0.789  14.359  0.5232 -0.2905 -0.5235
 1412TIP3    H225728   5.815   0.646  14.377 -0.2182 -0.5460 -3.9071
 1413TIP3   OH225729   1.592   2.386   2.430 -0.6671  0.3185 -0.6688
 1413TIP3    H125730   1.650   2.328   2.380 -0.0788 -0.7635  1.1570
 1413TIP3    H225731   1.643   2.467   2.440 -0.8584  0.6069 -1.9174
 1414TIP3   OH225732   5.859   5.063  12.179 -0.6173  0.4957  0.7185
 1414TIP3    H125733   5.794   5.130  12.199 -0.2659  0.9590  0.3317
 1414TIP3    H225734   5.867   5.012  12.260  0.5931  2.1753  1.7263
 1415TIP3   OH225735   1.197   4.254   4.595  0.1635  0.2084 -0.1013
 1415TIP3    H125736   1.229   4.166   4.615 -0.3017  0.1507  0.4241
 1415TIP3    H225737   1.139   4.243   4.519  0.6517  0.1719 -0.4690
 1416TIP3   OH225738   2.829   1.266   1.608  0.0255  0.3148 -1.0770
 1416TIP3    H125739   2.876   1.202   1.661 -0.4205  0.9691  0.1401
 1416TIP3    H225740   2.770   1.213   1.554 -1.4181 -0.2813  0.9684
 1417TIP3   OH225741   1.262   5.478   1.707  0.3829  0.8942  0.3372
 1417TIP3    H125742   1.340   5.485   1.763 -1.8540  1.2654  3.7293
 1417TIP3    H225743   1.296   5.452   1.622  4.1631  0.5804  1.7370
 1418TIP3   OH225744   1.192   4.327  16.966  0.2906  0.5141 -0.0422
 1418TIP3    H125745   1.173   4.400  16.907 -1.5852 -1.0826 -1.5417
 1418TIP3    H225746   1.160   4.356  17.051  1.6487  2.2691 -0.0756
 1419TIP3   OH225747   2.775   4.051  17.653  0.2623 -0.3385  0.0466
 1419TIP3    H125748   2.726   4.030  17.574  0.0876 -0.8233  0.2811
 1419TIP3    H225749   2.728   4.007  17.724 -0.2502  1.0251  0.5952
 1420TIP3   OH225750   6.568   1.393  11.422  0.8159  0.0984 -0.3689
 1420TIP3    H125751   6.523   1.394  11.507  2.6072  0.8446  0.6205
 1420TIP3    H225752   6.589   1.301  11.407  0.9885  0.0214  0.2935
 1421TIP3   OH225753   4.249   6.607  12.868  0.3444  0.4460  0.3242
 1421TIP3    H125754   4.220   6.647  12.786 -1.0083 -2.4136 -0.7576
 1421TIP3    H225755   4.181   6.630  12.931  0.0181  0.5541 -0.0575
 1422TIP3   OH225756   1.050   4.590  15.792  0.3682  0.1501 -0.2876
 1422TIP3    H125757   1.124   4.530  15.805  0.2792  0.5465  2.6262
 1422TIP3    H225758   1.078   4.648  15.722  1.9024 -1.0938 -0.7624
 1423TIP3   OH225759   2.416   6.705  17.218 -0.4459  0.0684 -0.3296
 1423TIP3    H125760   2.473   6.668  17.150  0.2452  0.0305  0.2538
 1423TIP3    H225761   2.375   6.629  17.259 -1.3267  0.1246 -1.0932
 1424TIP3   OH225762   0.885   0.954  16.093 -0.2345  0.0843  0.2096
 1424TIP3    H125763   0.959   0.913  16.047 -1.2963 -2.5627  0.6339
 1424TIP3    H225764   0.925   0.995  16.170  0.8122 -1.8239  0.7661
 1425TIP3   OH225765   6.006   1.178  15.543  0.0074  0.7076 -0.0046
 1425TIP3    H125766   6.036   1.268  15.557 -0.5618  0.9432 -0.3010
 1425TIP3    H225767   5.935   1.166  15.606 -0.4733  0.7418 -0.5388
 1426TIP3   OH225768   3.060   2.716   1.980  0.1220 -0.8991  0.0026
 1426TIP3    H125769   3.086   2.808   1.980  2.1481 -1.3714  2.3338
 1426TIP3    H225770   2.987   2.712   2.042  0.8934 -1.0200  0.9274
 1427TIP3   OH225771   3.053   4.427   1.893  0.0876 -0.0692 -0.5277
 1427TIP3    H125772   2.962   4.399   1.897  0.1074 -0.2441 -1.2545
 1427TIP3    H225773   3.085   4.416   1.983 -0.3648 -0.8145 -0.4496
 1428TIP3   OH225774   3.640   0.766  15.119 -0.4269  0.1381  0.0522
 1428TIP3    H125775   3.711   0.763  15.183  0.4724  0.3516 -0.9144
 1428TIP3    H225776   3.684   0.768  15.034 -1.5959  0.0992 -0.5726
 1429TIP3   OH225777   5.986   1.146   0.522 -0.1003 -0.2688  0.4145
 1429TIP3    H125778   6.041   1.112   0.592  0.2798 -1.3173 -0.3589
 1429TIP3    H225779   5.941   1.069   0.488  0.6676 -0.0199 -1.2864
 1430TIP3   OH225780   0.453   3.290   3.799 -0.1727 -0.6202  0.0210
 1430TIP3    H125781   0.535   3.339   3.800  0.6742 -1.8859 -1.7904
 1430TIP3    H225782   0.385   3.358   3.800  0.9204  0.5212 -0.2483
 1431TIP3   OH225783   3.603   2.307   6.500  0.6850  0.1050  0.3628
 1431TIP3    H125784   3.527   2.327   6.554  0.6402  0.6333  0.1060
 1431TIP3    H225785   3.613   2.383   6.443  2.2117  0.6683  1.3070
 1432TIP3   OH225786   3.747   1.791   1.479  0.3261 -0.1861  0.1449
 1432TIP3    H125787   3.726   1.880   1.508 -0.8538  0.2943 -1.9830
 1432TIP3    H225788   3.666   1.742   1.490  0.6632 -0.7250  0.2977
 1433TIP3   OH225789   5.225   3.212   3.368 -0.0230 -0.5826  0.5257
 1433TIP3    H125790   5.165   3.168   3.429 -0.1805 -1.4917 -0.2651
 1433TIP3    H225791   5.169   3.273   3.319  0.3699  1.3988  2.3609
 1434TIP3   OH225792   6.115   3.835  15.254  0.7127  0.3089  0.0486
 1434TIP3    H125793   6.141   3.923  15.227  1.1990  0.0496 -0.3341
 1434TIP3    H225794   6.169   3.777  15.202  1.0178 -0.2156  0.9354
 1435TIP3   OH225795   6.132   6.058   2.541  0.2509  0.9529  0.3724
 1435TIP3    H125796   6.062   6.012   2.496  1.2243  0.0471 -0.2622
 1435TIP3    H225797   6.107   6.056   2.633 -0.0953 -0.2187  0.2718
 1436TIP3   OH225798   4.988   4.038   3.135  0.3963 -0.1804 -0.1180
 1436TIP3    H125799   4.903   4.012   3.169  0.2691 -1.1027 -1.0772
 1436TIP3    H225800   5.049   3.971   3.167  0.7936  0.4933  0.5968
 1437TIP3   OH225801   3.527   3.743  15.615  0.2382 -1.1335 -0.0799
 1437TIP3    H125802   3.489   3.774  15.698  2.2349  0.9368  0.1609
 1437TIP3    H225803   3.542   3.823  15.565 -0.0424 -2.2761 -2.0891
 1438TIP3   OH225804   5.422   0.332   3.345 -0.0044  0.0070  0.8092
 1438TIP3    H125805   5.517   0.322   3.338 -0.0577 -0.1326  0.2393
 1438TIP3    H225806   5.389   0.242   3.341 -0.2952  0.1727 -1.1939
 1439TIP3   OH225807   1.173   5.748  16.767 -0.8028 -0.4681 -0.0117
 1439TIP3    H125808   1.092   5.740  16.816  0.0678 -1.1680  1.3877
 1439TIP3    H225809   1.194   5.659  16.739  0.4584 -0.6279  1.3294
 1440TIP3   OH225810   0.568   5.393  11.485 -0.0239  0.3837  0.2047
 1440TIP3    H125811   0.587   5.303  11.457  0.4823  0.8562 -1.0380
 1440TIP3    H225812   0.473   5.394  11.497  0.1228 -0.7144  1.7682
 1441TIP3   OH225813   4.112   6.735  12.262  0.2429 -0.0133  0.3490
 1441TIP3    H125814   4.043   6.722  12.327 -0.8241 -1.2374 -0.9616
 1441TIP3    H225815   4.095   6.822  12.226 -0.3500 -0.1150  0.3717
 1442TIP3   OH225816   2.093   1.101   1.620  0.1391 -0.0119  0.2331
 1442TIP3    H125817   2.153   1.143   1.682 -0.4675 -0.7867  1.3768
 1442TIP3    H225818   2.078   1.014   1.657  0.1213 -0.6711 -1.2594
 1443TIP3   OH225819   1.979   2.525   2.412  0.2598 -0.5733  0.1950
 1443TIP3    H125820   2.060   2.496   2.454  1.0942  1.6857  0.2472
 1443TIP3    H225821   2.003   2.538   2.320  0.5150  1.8690  0.5477
 1444TIP3   OH225822   0.113   0.216  15.962  0.1709  0.1167  0.4546
 1444TIP3    H125823   0.018   0.224  15.967  0.3044  1.5804  0.9741
 1444TIP3    H225824   0.132   0.132  16.005 -0.9744 -1.0224 -1.1325
 1445TIP3   OH225825   1.645   4.897  11.356 -0.2419  0.1271 -0.3550
 1445TIP3    H125826   1.654   4.862  11.267 -1.1083 -2.2563  0.4181
 1445TIP3    H225827   1.733   4.923  11.381  0.5184 -1.6997 -0.9757
 1446TIP3   OH225828   2.835   1.509  14.310  0.1270 -0.3634  0.1911
 1446TIP3    H125829   2.750   1.545  14.336 -0.6259 -2.2413  0.4950
 1446TIP3    H225830   2.826   1.493  14.216  0.2627 -0.2410  0.1578
 1447TIP3   OH225831   1.024   5.481  11.586  0.5603 -0.2024 -0.1490
 1447TIP3    H125832   0.985   5.476  11.673  0.1491  0.6271 -0.2688
 1447TIP3    H225833   1.118   5.488  11.602  0.5333 -0.6028  0.2050
 1448TIP3   OH225834   5.771   6.385  16.713  0.2950  0.6612  0.4488
 1448TIP3    H125835   5.802   6.461  16.762  0.5317  2.0707 -1.7523
 1448TIP3    H225836   5.682   6.371  16.745  0.7024  0.9938  1.8167
 1449TIP3   OH225837   4.595   5.596  11.375 -0.7254 -0.4493 -0.1309
 1449TIP3    H125838   4.539   5.525  11.343 -0.8756  0.2098 -1.4116
 1449TIP3    H225839   4.566   5.611  11.465 -1.2332 -1.4598 -0.1089
 1450TIP3   OH225840   3.960   0.518  11.478  0.1697 -0.1311 -0.0634
 1450TIP3    H125841   3.914   0.558  11.405 -1.0040 -1.1321  0.0991
 1450TIP3    H225842   4.036   0.475  11.438  0.3227  0.5175 -0.4906
 1451TIP3   OH225843   6.649   4.257  12.931  0.4103  0.3583  0.1024
 1451TIP3    H125844   6.578   4.237  12.871  1.1085 -1.0400 -0.3020
 1451TIP3    H225845   6.685   4.340  12.899 -1.1466  1.2025  0.4599
 1452TIP3   OH225846   1.078   5.228  11.015  0.1005 -0.4515 -0.0502
 1452TIP3    H125847   1.074   5.216  11.110 -1.1068  0.4913  0.0585
 1452TIP3    H225848   1.059   5.142  10.979  2.0671 -1.1751  0.5181
 1453TIP3   OH225849   1.268   4.710   2.854 -0.4509 -0.0918  0.1459
 1453TIP3    H125850   1.256   4.765   2.931  1.2517 -1.4245  1.4398
 1453TIP3    H225851   1.351   4.739   2.817  0.2653 -1.4643  0.6133
 1454TIP3   OH225852   3.574   2.450  16.137  0.2444  0.1692  0.2187
 1454TIP3    H125853   3.532   2.423  16.219  3.0648  0.2474  1.8004
 1454TIP3    H225854   3.616   2.370  16.104  1.2916  0.6893  0.2582
 1455TIP3   OH225855   5.808   1.557   5.563 -0.0691 -0.0637 -0.1718
 1455TIP3    H125856   5.729   1.564   5.509  0.4489  3.7775 -0.7069
 1455TIP3    H225857   5.795   1.623   5.632  0.7484 -2.5388  2.5646
 1456TIP3   OH225858   3.621   6.215  17.559 -0.3686  0.0708  0.1569
 1456TIP3    H125859   3.612   6.260  17.643 -0.0702 -1.9846  1.3659
 1456TIP3    H225860   3.624   6.285  17.495 -1.9482  1.6871  1.7192
 1457TIP3   OH225861   0.203   1.658   3.179 -0.1008  0.7153  0.6220
 1457TIP3    H125862   0.229   1.590   3.117  0.9206  0.8785  0.8408
 1457TIP3    H225863   0.180   1.733   3.124  0.3783  0.7199  0.4215
 1458TIP3   OH225864   0.282   5.530  13.125  0.4176  0.2156 -0.5321
 1458TIP3    H125865   0.290   5.450  13.178  1.7730 -0.8103 -2.1697
 1458TIP3    H225866   0.354   5.586  13.154  0.1914  0.3349 -0.2005
 1459TIP3   OH225867   1.639   1.181  16.059  0.1610 -0.2504 -0.1075
 1459TIP3    H125868   1.641   1.089  16.086 -0.1549  0.0012  0.8098
 1459TIP3    H225869   1.558   1.215  16.098  0.2612  0.4143 -0.4671
 1460TIP3   OH225870   1.775   2.730   3.656  0.3145  0.0579 -0.7819
 1460TIP3    H125871   1.833   2.762   3.724 -1.8151 -0.5931  1.4989
 1460TIP3    H225872   1.791   2.787   3.581  2.6359  0.9093  0.2716
 1461TIP3   OH225873   1.105   3.961   5.867 -0.2451  0.3200 -0.2814
 1461TIP3    H125874   1.131   3.882   5.914 -0.4260 -0.7157 -1.8549
 1461TIP3    H225875   1.135   4.033   5.923 -0.0327 -0.8402  1.1638
 1462TIP3   OH225876   5.010   5.814  15.072 -0.1074  0.1190  0.2492
 1462TIP3    H125877   4.951   5.873  15.119  0.6021  0.6689  0.4536
 1462TIP3    H225878   4.964   5.795  14.990 -0.7158  0.2830  0.5466
 1463TIP3   OH225879   5.444   6.404  12.130 -0.8213  0.5558  0.0768
 1463TIP3    H125880   5.376   6.355  12.084  0.3586 -0.0687 -1.0822
 1463TIP3    H225881   5.498   6.337  12.172 -0.9400  1.0426  1.0326
 1464TIP3   OH225882   6.472   0.349  12.901 -0.1509  0.5936 -0.0620
 1464TIP3    H125883   6.535   0.329  12.971  0.9022  1.0582 -0.8448
 1464TIP3    H225884   6.387   0.336  12.941  0.4372  0.3346  1.1572
 1465TIP3   OH225885   6.446   3.057   1.471  0.5618  0.5895  0.0407
 1465TIP3    H125886   6.443   3.051   1.567  0.7567 -1.9005 -0.0322
 1465TIP3    H225887   6.382   2.992   1.441 -0.7227  2.4676 -1.5820
 1466TIP3   OH225888   0.874   6.548   4.378  0.3440 -0.7177  0.3042
 1466TIP3    H125889   0.794   6.533   4.327  0.7407 -1.0780 -0.2231
 1466TIP3    H225890   0.900   6.461   4.408 -0.4804 -0.4113  2.0854
 1467TIP3   OH225891   3.997   0.496  16.176  0.0941  0.3332 -0.5726
 1467TIP3    H125892   4.004   0.407  16.211  2.9850  0.2556 -1.1125
 1467TIP3    H225893   3.952   0.545  16.245  2.2762 -0.6340  1.7008
 1468TIP3   OH225894   1.706   1.973   5.598 -0.4689  0.2476 -0.1669
 1468TIP3    H125895   1.738   1.996   5.511 -0.1921  0.7964  0.0750
 1468TIP3    H225896   1.674   2.056   5.635 -0.7686 -0.0161  0.1794
 1469TIP3   OH225897   6.621   3.566   4.239  0.6699  0.2858  0.3072
 1469TIP3    H125898   6.640   3.638   4.178  2.4241  0.6442  1.2153
 1469TIP3    H225899   6.551   3.600   4.295 -1.0202 -0.0747 -1.4882
 1470TIP3   OH225900   2.066   2.746   4.974 -0.1845  0.1234 -0.2046
 1470TIP3    H125901   2.130   2.684   4.940 -2.3928 -1.9276 -0.9176
 1470TIP3    H225902   2.111   2.788   5.047  1.5463 -2.1670  0.1951
 1471TIP3   OH225903   4.465   5.832  14.296 -0.7472 -0.2065 -0.5284
 1471TIP3    H125904   4.500   5.837  14.385  0.7687 -1.6187 -0.9807
 1471TIP3    H225905   4.381   5.788  14.306 -0.3919 -0.7453  0.1829
 1472TIP3   OH225906   2.647   5.213   6.080  0.3723  0.1549  0.5409
 1472TIP3    H125907   2.617   5.205   5.989  0.8201 -1.8155  0.5107
 1472TIP3    H225908   2.576   5.176   6.132  1.0810 -0.9573  0.7682
 1473TIP3   OH225909   1.814   0.461  11.971 -0.8046  0.1766 -0.6047
 1473TIP3    H125910   1.772   0.528  11.917 -0.9079  1.0519  0.5203
 1473TIP3    H225911   1.891   0.435  11.921 -2.7310 -1.6414 -2.8288
 1474TIP3   OH225912   2.410   4.401   3.651  0.6798 -0.9050  0.6595
 1474TIP3    H125913   2.463   4.336   3.696  0.7741 -1.2877  0.0176
 1474TIP3    H225914   2.473   4.454   3.602  0.6917  0.2705  1.8899
 1475TIP3   OH225915   2.627   2.905  14.612 -0.6030 -0.5877 -0.0296
 1475TIP3    H125916   2.690   2.842  14.646  0.5075 -0.4981 -1.8042
 1475TIP3    H225917   2.673   2.989  14.615 -1.3582 -0.1749  0.4532
 1476TIP3   OH225918   1.500   1.550  14.562 -0.2126 -0.0084  0.3422
 1476TIP3    H125919   1.476   1.458  14.555 -0.8653  0.3053 -2.7245
 1476TIP3    H225920   1.585   1.549  14.605 -0.0758 -2.0448  0.1336
 1477TIP3   OH225921   1.056   2.262  13.241 -0.5015  0.0946  0.1917
 1477TIP3    H125922   1.062   2.231  13.331  1.4807 -1.9980 -0.5633
 1477TIP3    H225923   0.979   2.218  13.205 -0.9833  0.5191  0.6841
 1478TIP3   OH225924   4.908   1.367  13.819 -0.0300  0.1760 -0.2335
 1478TIP3    H125925   4.833   1.327  13.861 -0.4451 -2.5563 -3.1911
 1478TIP3    H225926   4.975   1.371  13.887 -1.9076  0.0975  1.7273
 1479TIP3   OH225927   3.318   3.347   6.251  0.1247  0.0428 -0.3198
 1479TIP3    H125928   3.413   3.352   6.257  0.1298 -0.8158  0.5169
 1479TIP3    H225929   3.297   3.256   6.271 -0.9889  0.6191  1.4089
 1480TIP3   OH225930   1.620   1.416   0.669  0.0823  0.9057 -0.1404
 1480TIP3    H125931   1.674   1.457   0.601  0.6256  0.0826 -0.2226
 1480TIP3    H225932   1.623   1.322   0.649  0.3242  0.6386  1.0602
 1481TIP3   OH225933   1.948   3.073  15.660  0.6198  0.1068 -0.1265
 1481TIP3    H125934   1.864   3.046  15.697  0.3542  0.7399 -0.2521
 1481TIP3    H225935   1.996   3.109  15.735  0.7939 -0.2895 -0.0468
 1482TIP3   OH225936   1.113   1.528   4.360 -0.1220 -0.0466 -0.0113
 1482TIP3    H125937   1.106   1.611   4.408  0.3941  2.0124 -3.1715
 1482TIP3    H225938   1.194   1.489   4.393  1.5298  2.4800 -0.7740
 1483TIP3   OH225939   3.361   6.554   2.276 -1.0737 -0.1127 -0.0497
 1483TIP3    H125940   3.272   6.526   2.299 -0.7227  0.4251  2.1646
 1483TIP3    H225941   3.417   6.482   2.303 -0.6991  0.1513 -0.1089
 1484TIP3   OH225942   4.698   2.186  14.584  0.4264  0.3508  0.4328
 1484TIP3    H125943   4.669   2.122  14.518 -0.6499  0.8980  0.3611
 1484TIP3    H225944   4.650   2.266  14.563 -2.2722 -0.2319  3.5934
 1485TIP3   OH225945   6.046   0.033   1.282  0.0986  0.2728  0.4437
 1485TIP3    H125946   6.100   0.066   1.354 -1.4722 -0.6418  2.1496
 1485TIP3    H225947   5.956   0.038   1.316 -1.0700  2.3862 -2.5047
 1486TIP3   OH225948   3.945   1.113  16.341  0.1608 -0.6504 -0.1531
 1486TIP3    H125949   3.944   1.053  16.267 -0.2662 -1.9560  0.8761
 1486TIP3    H225950   4.021   1.085  16.394 -1.4692 -1.9860  1.6280
 1487TIP3   OH225951   0.677   0.556  17.635  0.0957  0.1309  0.1567
 1487TIP3    H125952   0.609   0.490  17.644 -0.2585  0.5795  0.8369
 1487TIP3    H225953   0.759   0.508  17.644 -0.1442 -0.3313 -0.1255
 1488TIP3   OH225954   6.539   5.723  11.004  0.5196 -0.1595 -0.2781
 1488TIP3    H125955   6.502   5.638  10.981  0.5097 -0.6088  1.3085
 1488TIP3    H225956   6.464   5.776  11.028  0.6295 -0.0456 -0.1846
 1489TIP3   OH225957   6.565   6.391   4.037 -1.0565 -0.3848  1.0335
 1489TIP3    H125958   6.472   6.398   4.014 -0.9394 -0.1734  0.6040
 1489TIP3    H225959   6.583   6.469   4.089 -0.8110  0.2596  0.0028
 1490TIP3   OH225960   5.381   2.636  14.638  0.0930  0.0318  0.2281
 1490TIP3    H125961   5.352   2.642  14.729 -1.6757  0.0151 -0.3024
 1490TIP3    H225962   5.460   2.691  14.635  0.5963 -0.5242  1.8978
 1491TIP3   OH225963   2.880   3.127   4.887 -0.2465  0.2405  0.0066
 1491TIP3    H125964   2.894   3.193   4.820 -0.9684  0.6373  0.2261
 1491TIP3    H225965   2.800   3.082   4.860 -0.8300  0.7397  0.8427
 1492TIP3   OH225966   3.365   2.999  15.986  0.0345 -0.5813 -0.0872
 1492TIP3    H125967   3.415   2.999  15.904 -1.7904  0.3417 -1.2492
 1492TIP3    H225968   3.325   3.085  15.991 -1.0360 -1.1008  1.0669
 1493TIP3   OH225969   0.362   0.122  14.671 -0.4829 -1.0028  0.2651
 1493TIP3    H125970   0.417   0.191  14.635 -0.2671 -1.6017 -0.5644
 1493TIP3    H225971   0.355   0.057  14.602 -1.0477 -1.6173  0.8758
 1494TIP3   OH225972   3.273   5.533  13.048  0.5103 -0.6773  0.6761
 1494TIP3    H125973   3.252   5.547  13.140 -5.1094 -0.2165 -0.3025
 1494TIP3    H225974   3.261   5.619  13.007  0.8934 -1.2546 -0.7261
 1495TIP3   OH225975   6.006   2.860  15.862  0.3582 -0.1721 -0.0030
 1495TIP3    H125976   5.967   2.802  15.927  0.2669 -0.3852 -0.2478
 1495TIP3    H225977   6.053   2.925  15.914  1.8679 -1.4240  0.2708
 1496TIP3   OH225978   4.674   6.062   1.250  0.2554  0.4920 -0.2925
 1496TIP3    H125979   4.611   5.990   1.257  2.1349 -1.3210 -1.1352
 1496TIP3    H225980   4.663   6.094   1.160 -2.3975  3.1544  0.8044
 1497TIP3   OH225981   4.001   2.182   3.431 -0.2037  0.3020 -0.1235
 1497TIP3    H125982   3.975   2.228   3.351  0.4984 -0.4185 -0.7763
 1497TIP3    H225983   4.095   2.198   3.439  0.2949 -1.9136 -0.9832
 1498TIP3   OH225984   1.956   5.702  14.154 -0.1078 -0.0413 -0.2362
 1498TIP3    H125985   2.035   5.756  14.155 -0.1609  0.0676  1.5408
 1498TIP3    H225986   1.886   5.763  14.131 -0.0368  0.4782  0.8624
 1499TIP3   OH225987   2.482   4.202   3.238  0.0089  0.0726  0.2747
 1499TIP3    H125988   2.428   4.251   3.176 -0.1714 -1.1974 -0.6259
 1499TIP3    H225989   2.424   4.186   3.313 -0.5814 -0.4345 -0.2707
 1500TIP3   OH225990   4.314   0.038   5.716 -0.3730  0.7110  0.1942
 1500TIP3    H125991   4.224   0.006   5.713 -0.0388 -0.4312  1.5574
 1500TIP3    H225992   4.318   0.090   5.796 -0.3736  2.6421 -0.9888
 1501TIP3   OH225993   5.918   6.626  11.574  0.3325 -0.9559 -0.1785
 1501TIP3    H125994   5.930   6.641  11.667  0.4470  2.5587 -0.6496
 1501TIP3    H225995   5.845   6.564  11.569 -1.3813  0.6983  2.2565
 1502TIP3   OH225996   3.543   4.250   0.642  0.2406 -0.1391  0.2110
 1502TIP3    H125997   3.592   4.323   0.604 -0.1835 -0.3074 -0.6882
 1502TIP3    H225998   3.501   4.288   0.719 -0.6317  0.8126 -0.6929
 1503TIP3   OH225999   5.410   3.329  12.048 -0.4696  0.0736  0.3096
 1503TIP3    H126000   5.474   3.263  12.022 -2.3672 -1.6310 -0.2898
 1503TIP3    H226001   5.359   3.288  12.117 -0.6541  1.5665  1.1061
 1504TIP3   OH226002   0.162   4.976  13.246 -0.1042 -0.1179  0.1968
 1504TIP3    H126003   0.151   5.049  13.308  1.1910  0.4006 -0.1536
 1504TIP3    H226004   0.188   5.018  13.164  0.7687 -0.9757  0.0154
 1505TIP3   OH226005   0.151   2.647   3.807 -0.4711  0.0104 -0.4940
 1505TIP3    H126006   0.083   2.581   3.820 -1.4347  0.8608 -1.0598
 1505TIP3    H226007   0.156   2.693   3.891 -0.3503 -0.2819 -0.3414
 1506TIP3   OH226008   0.243   1.179  13.038 -0.0241  0.1577  0.9318
 1506TIP3    H126009   0.264   1.133  13.119  2.7579  0.7111  0.6390
 1506TIP3    H226010   0.324   1.225  13.015  0.5212 -2.5300 -3.8665
 1507TIP3   OH226011   4.800   4.753   0.054  0.2917  0.0063  0.2866
 1507TIP3    H126012   4.802   4.710   0.140  0.8711 -3.1816 -1.1726
 1507TIP3    H226013   4.891   4.753   0.025  0.0424  0.6089 -0.5395
 1508TIP3   OH226014   0.355   4.689  13.615  0.0190  0.6160 -0.2277
 1508TIP3    H126015   0.275   4.643  13.639  2.1331 -1.8049  2.9164
 1508TIP3    H226016   0.327   4.779  13.596 -3.5441 -0.4961 -0.8846
 1509TIP3   OH226017   5.456   5.196  12.055  0.1132  0.7916  0.4903
 1509TIP3    H126018   5.423   5.210  11.966  2.8248  0.4385 -0.6693
 1509TIP3    H226019   5.451   5.283  12.096 -1.0361  0.9879 -0.0245
 1510TIP3   OH226020   6.380   0.275   2.788  0.3714  0.6160 -0.3961
 1510TIP3    H126021   6.431   0.227   2.723  0.5127 -0.8510  0.7512
 1510TIP3    H226022   6.438   0.282   2.864 -0.4686  0.6045  0.2590
 1511TIP3   OH226023   4.543   2.910  12.743  0.2848  0.1938 -0.6383
 1511TIP3    H126024   4.477   2.977  12.756  0.2781 -0.0062  0.4520
 1511TIP3    H226025   4.575   2.889  12.831 -1.4884 -2.9947 -0.5965
 1512TIP3   OH226026   0.995   1.022  17.499 -0.1095 -0.6463 -0.2515
 1512TIP3    H126027   0.984   1.102  17.550  1.5083  0.0183 -0.8726
 1512TIP3    H226028   1.020   1.053  17.412 -0.1806 -1.8086 -0.7017
 1513TIP3   OH226029   5.251   4.773  16.543 -0.7956  0.7708 -0.1869
 1513TIP3    H126030   5.176   4.752  16.598 -0.8230 -0.0767 -0.5269
 1513TIP3    H226031   5.326   4.775  16.603 -0.7972 -0.3091 -0.1347
 1514TIP3   OH226032   0.427   1.756  11.465 -0.2897  0.2484 -0.8486
 1514TIP3    H126033   0.346   1.749  11.415  0.3169 -0.5950 -1.7605
 1514TIP3    H226034   0.496   1.744  11.400  0.5847  1.0596 -0.1104
 1515TIP3   OH226035   4.161   3.833  15.062  0.3898 -0.4561 -0.5207
 1515TIP3    H126036   4.146   3.868  14.975  0.8882 -0.0300 -0.4413
 1515TIP3    H226037   4.161   3.738  15.050 -3.2892 -0.6289 -0.3786
 1516TIP3   OH226038   2.033   6.527   0.807 -0.0284  0.0970  0.4567
 1516TIP3    H126039   2.071   6.464   0.746  0.8693  0.7433  0.3212
 1516TIP3    H226040   2.097   6.598   0.810  0.1467 -0.0823  2.4345
 1517TIP3   OH226041   3.555   4.116  16.309 -0.3543 -0.0754  0.2907
 1517TIP3    H126042   3.460   4.120  16.294 -0.1111 -0.2032 -1.5092
 1517TIP3    H226043   3.576   4.022  16.304 -0.1540 -0.0738  0.9675
 1518TIP3   OH226044   4.412   1.473  13.970 -0.5159  0.1165  0.1171
 1518TIP3    H126045   4.416   1.378  13.982 -0.4782 -0.0194 -0.8949
 1518TIP3    H226046   4.321   1.496  13.989 -0.7975 -0.2867 -0.7029
 1519TIP3   OH226047   2.728   2.148  15.601 -0.0356 -0.5568  0.1588
 1519TIP3    H126048   2.776   2.076  15.642  1.7546 -0.7540 -2.0509
 1519TIP3    H226049   2.794   2.215  15.585 -0.6947 -0.3067 -1.8572
 1520TIP3   OH226050   1.681   5.119   5.568 -0.6645 -0.3011 -0.1194
 1520TIP3    H126051   1.596   5.128   5.610  0.1628 -2.6017  2.3266
 1520TIP3    H226052   1.700   5.025   5.573  1.6961  0.0493 -1.2858
 1521TIP3   OH226053   3.452   4.933  17.318 -0.1707 -0.2994  0.3798
 1521TIP3    H126054   3.501   4.879  17.380 -2.1981 -0.9633  1.4796
 1521TIP3    H226055   3.519   4.970  17.261  1.5916 -1.2157  1.7545
 1522TIP3   OH226056   0.815   6.569  12.391  1.0641  0.5850  0.1324
 1522TIP3    H126057   0.819   6.600  12.482 -1.7440  0.2179  0.4962
 1522TIP3    H226058   0.884   6.503  12.385  1.1431  0.4165  2.1106
 1523TIP3   OH226059   5.274   1.935  14.117  0.1578  0.4901  0.0910
 1523TIP3    H126060   5.285   1.845  14.147 -1.4985 -0.2375 -1.3210
 1523TIP3    H226061   5.180   1.950  14.118  0.4410  2.6601  1.4187
 1524TIP3   OH226062   5.835   4.614  11.919  0.6989 -0.6857 -0.0522
 1524TIP3    H126063   5.785   4.678  11.868  2.2619  0.7842  0.1906
 1524TIP3    H226064   5.772   4.582  11.984 -0.0512  0.8586  0.0376
 1525TIP3   OH226065   0.535   1.267  17.488  0.3078  0.0044  0.3225
 1525TIP3    H126066   0.492   1.350  17.510  1.0043  0.1170  1.3248
 1525TIP3    H226067   0.619   1.270  17.535  0.1112 -1.5042  0.8331
 1526TIP3   OH226068   0.511   4.138   0.239 -0.0094 -0.1731 -0.5566
 1526TIP3    H126069   0.517   4.205   0.171 -1.0648 -1.2807 -1.7652
 1526TIP3    H226070   0.592   4.087   0.229  0.4671  0.4574 -0.0787
 1527TIP3   OH226071   3.374   3.959  17.010 -0.9302 -0.5119 -0.0807
 1527TIP3    H126072   3.307   4.027  17.011  0.9601  1.5549 -1.8724
 1527TIP3    H226073   3.414   3.967  16.923  1.5415 -1.7127  0.8658
 1528TIP3   OH226074   5.771   6.428   2.756 -0.4663  0.6793  0.9059
 1528TIP3    H126075   5.760   6.396   2.666 -1.9027  0.4542  1.1480
 1528TIP3    H226076   5.812   6.355   2.802  3.3312  1.8444 -0.2094
 1529TIP3   OH226077   2.422   1.127   5.694  0.1154 -0.3437 -0.1789
 1529TIP3    H126078   2.471   1.208   5.707  2.8446 -2.0372  0.8917
 1529TIP3    H226079   2.343   1.154   5.647  1.3543  2.7675 -0.7020
 1530TIP3   OH226080   5.019   3.660   1.463 -0.1107  0.1182  0.2777
 1530TIP3    H126081   5.091   3.704   1.509 -1.0837  0.8576  1.1648
 1530TIP3    H226082   5.056   3.578   1.432  1.4845  1.0651 -0.4762
 1531TIP3   OH226083   0.782   4.834  17.624  0.5006  0.5782 -0.0315
 1531TIP3    H126084   0.758   4.745  17.648 -0.4831  1.3317  1.9800
 1531TIP3    H226085   0.742   4.848  17.538  0.8510 -0.9560 -0.4684
 1532TIP3   OH226086   6.585   3.994   2.274 -0.3521  0.0525  0.2207
 1532TIP3    H126087   6.602   4.062   2.340 -0.9502 -1.1182  1.6338
 1532TIP3    H226088   6.564   4.043   2.195 -0.9145  1.5276  1.2371
 1533TIP3   OH226089   1.502   6.467  14.657 -0.0780  0.6230 -0.2736
 1533TIP3    H126090   1.515   6.385  14.609 -1.8604 -0.2677  0.6968
 1533TIP3    H226091   1.427   6.508  14.615 -1.9530 -0.3707  1.8707
 1534TIP3   OH226092   0.219   3.676  17.520  0.2300  0.1264  0.3956
 1534TIP3    H126093   0.216   3.748  17.457  1.9678  0.3128  0.4750
 1534TIP3    H226094   0.188   3.715  17.602 -0.9081  0.1939 -0.0555
 1535TIP3   OH226095   4.725   0.478  12.923  0.1233  0.3259  0.0882
 1535TIP3    H126096   4.742   0.394  12.965 -0.3296  0.7405  1.1433
 1535TIP3    H226097   4.629   0.485  12.920  0.1268  0.1276 -1.4278
 1536TIP3   OH226098   6.276   2.858  12.220  0.1390  0.5703 -0.2735
 1536TIP3    H126099   6.237   2.880  12.135  1.9846 -0.1409 -1.3855
 1536TIP3    H226100   6.230   2.779  12.248 -1.0048  1.2371 -0.2151
 1537TIP3   OH226101   3.579   0.275   0.105  0.8932  0.1259  0.1998
 1537TIP3    H126102   3.652   0.333   0.082 -0.7607  2.0766 -0.4485
 1537TIP3    H226103   3.545   0.245   0.020 -0.7776  1.5429  0.3280
 1538TIP3   OH226104   5.716   1.564  13.411  0.4093  0.1614  0.6225
 1538TIP3    H126105   5.724   1.638  13.350  0.2770 -0.5517 -0.2880
 1538TIP3    H226106   5.804   1.554  13.447  1.1409 -0.8858 -1.2698
 1539TIP3   OH226107   3.041   0.056   4.594 -0.1856 -0.0101  0.2621
 1539TIP3    H126108   3.040   0.011   4.679 -1.5555 -0.3684  0.0908
 1539TIP3    H226109   2.988   0.134   4.608 -0.1956  0.0654 -0.1869
 1540TIP3   OH226110   3.611   6.481   1.560 -0.3292 -0.1814 -0.3762
 1540TIP3    H126111   3.567   6.512   1.639 -0.1566 -0.3651 -0.2101
 1540TIP3    H226112   3.684   6.542   1.547  1.1872 -1.6086  1.0280
 1541TIP3   OH226113   0.513   2.525   1.022 -0.7253 -0.5828  0.1251
 1541TIP3    H126114   0.596   2.480   1.033 -0.6626 -0.5138 -0.0549
 1541TIP3    H226115   0.484   2.545   1.111 -0.7558 -0.9801  0.2036
 1542TIP3   OH226116   2.400   4.006   3.645 -0.4125 -0.7344  0.4581
 1542TIP3    H126117   2.388   3.952   3.567  0.2154 -1.1273  0.6309
 1542TIP3    H226118   2.443   3.949   3.708 -0.0545 -0.1394  0.7642
 1543TIP3   OH226119   1.314   1.188  16.670 -0.0636 -0.5329  0.1306
 1543TIP3    H126120   1.260   1.145  16.604  0.6288 -0.7395 -0.3104
 1543TIP3    H226121   1.366   1.117  16.708  0.0327 -0.3068  0.4273
 1544TIP3   OH226122   3.484   0.627  13.504 -0.1147  0.1821  0.0129
 1544TIP3    H126123   3.418   0.682  13.463 -0.2486 -0.5200 -0.7258
 1544TIP3    H226124   3.474   0.541  13.463  0.4373 -0.2662  0.7727
 1545TIP3   OH226125   3.097   0.118   3.613  0.8196  0.7883 -0.9926
 1545TIP3    H126126   3.144   0.129   3.695  2.5230 -0.6736 -1.6971
 1545TIP3    H226127   3.006   0.104   3.639  1.4066 -0.1952  0.7053
 1546TIP3   OH226128   5.242   6.027  16.844 -0.2314 -0.6972  0.0379
 1546TIP3    H126129   5.150   6.045  16.862 -0.3522  0.0764 -1.2333
 1546TIP3    H226130   5.272   6.102  16.793  0.8493 -1.3874 -0.3893
 1547TIP3   OH226131   5.752   2.851  11.877  0.2344  0.4084  0.0859
 1547TIP3    H126132   5.792   2.935  11.854 -1.9147  1.4362 -0.2177
 1547TIP3    H226133   5.681   2.840  11.814  1.7527 -2.7715 -1.2734
 1548TIP3   OH226134   3.120   6.655   1.325 -0.1198  0.1886  0.4041
 1548TIP3    H126135   3.066   6.692   1.394 -0.0254  0.9595  0.0717
 1548TIP3    H226136   3.207   6.648   1.364  0.0058  0.9245  0.2710
 1549TIP3   OH226137   5.195   4.588   0.200 -0.2232  0.0632  0.3005
 1549TIP3    H126138   5.170   4.630   0.117 -0.8108 -2.8519 -1.1187
 1549TIP3    H226139   5.290   4.574   0.192 -0.4468 -1.2032 -0.4362
 1550TIP3   OH226140   3.099   0.784  16.683  0.0928  0.0122  0.0855
 1550TIP3    H126141   3.008   0.790  16.710 -0.2998  2.0129 -1.4259
 1550TIP3    H226142   3.150   0.801  16.762 -0.8987  0.5937  0.6107
 1551TIP3   OH226143   0.110   3.629   3.048 -0.7821  0.4091  0.7320
 1551TIP3    H126144   0.035   3.645   2.990 -0.5864  2.1032  0.8835
 1551TIP3    H226145   0.083   3.556   3.103 -1.9913  0.4545  0.2385
 1552TIP3   OH226146   0.653   4.600   0.352 -0.8685  0.0033  0.0955
 1552TIP3    H126147   0.666   4.523   0.408 -0.8366  1.6674  2.5103
 1552TIP3    H226148   0.713   4.587   0.279 -1.4857 -2.6531 -0.0368
 1553TIP3   OH226149   0.629   6.397  16.703  0.2135  0.0221  0.5594
 1553TIP3    H126150   0.606   6.315  16.747 -0.3859  0.0995  0.3893
 1553TIP3    H226151   0.556   6.415  16.644  0.6725  0.3061  0.0672
 1554TIP3   OH226152   2.002   3.592   2.914  0.1115 -0.1782  0.0474
 1554TIP3    H126153   1.955   3.550   2.842 -0.4157  1.6264 -0.7208
 1554TIP3    H226154   1.933   3.633   2.967  0.7017  1.9608 -0.7359
 1555TIP3   OH226155   6.628   5.920  12.169  0.4082 -0.0906  0.3189
 1555TIP3    H126156   6.559   5.857  12.186  0.5726 -0.1352  0.8285
 1555TIP3    H226157   6.652   5.954  12.255  1.2994 -0.3724  0.1993
 1556TIP3   OH226158   3.330   4.928   4.101  0.2667 -0.3121  0.1428
 1556TIP3    H126159   3.379   4.995   4.148 -0.7489 -0.2730  1.1816
 1556TIP3    H226160   3.369   4.927   4.014  0.6820  1.2248  0.2780
 1557TIP3   OH226161   3.348   6.568  13.559 -0.4128 -0.4251 -0.4526
 1557TIP3    H126162   3.405   6.500  13.522  0.3698 -1.3313  2.1470
 1557TIP3    H226163   3.273   6.571  13.501  0.5257 -2.0144 -1.8402
 1558TIP3   OH226164   0.459   6.462   6.425 -0.0952 -0.0801  0.2453
 1558TIP3    H126165   0.549   6.479   6.398  0.1761  0.2154  1.2979
 1558TIP3    H226166   0.459   6.368   6.447  0.0699  0.0021  0.6187
 1559TIP3   OH226167   1.925   4.004  17.538  0.2706 -0.3691  0.1335
 1559TIP3    H126168   1.919   3.999  17.443  0.8444 -0.6805  0.1124
 1559TIP3    H226169   1.835   4.022  17.566  0.2750  0.8026 -0.5258
 1560TIP3   OH226170   3.950   6.050  16.167 -0.0306 -0.6003  0.3401
 1560TIP3    H126171   3.929   6.131  16.120 -0.0112 -2.1192 -2.5135
 1560TIP3    H226172   3.883   6.044  16.235 -0.9633  1.0549 -0.3609
 1561TIP3   OH226173   5.375   2.075   0.344  0.0305  0.1611  0.6442
 1561TIP3    H126174   5.367   2.004   0.409  0.8988 -0.3594  0.2065
 1561TIP3    H226175   5.292   2.075   0.297 -0.2991  0.0017  1.2167
 1562TIP3   OH226176   2.200   2.578   0.399 -0.0935 -0.2786 -0.6944
 1562TIP3    H126177   2.208   2.518   0.473 -0.7964 -0.3897 -0.6963
 1562TIP3    H226178   2.177   2.662   0.439 -1.1174 -0.4853 -0.8125
 1563TIP3   OH226179   2.872   0.480  13.163  0.4309 -0.1869 -0.1026
 1563TIP3    H126180   2.927   0.413  13.203  0.2711 -1.8547 -2.4457
 1563TIP3    H226181   2.928   0.521  13.096 -0.5513 -0.6275 -1.2403
 1564TIP3   OH226182   5.339   2.556  16.809  0.0172  0.2518 -0.2837
 1564TIP3    H126183   5.295   2.524  16.730 -0.3929  2.9655 -1.2573
 1564TIP3    H226184   5.429   2.572  16.782  0.5234 -1.1019  0.5125
 1565TIP3   OH226185   0.439   3.346  12.526 -0.5487  0.1839 -0.6922
 1565TIP3    H126186   0.514   3.288  12.537  0.6884  1.6141 -1.1072
 1565TIP3    H226187   0.465   3.427  12.571 -2.5471  0.1640  0.5794
 1566TIP3   OH226188   0.641   6.473  16.996 -0.2774 -1.2325  0.8448
 1566TIP3    H126189   0.565   6.462  17.054 -1.5528  2.4706  0.1706
 1566TIP3    H226190   0.607   6.456  16.908 -0.5840  0.8267  0.4951
 1567TIP3   OH226191   5.878   1.266  11.196  0.1849  0.1742  0.2974
 1567TIP3    H126192   5.782   1.267  11.195  0.1612 -0.7535 -0.0560
 1567TIP3    H226193   5.901   1.193  11.138  1.1037  0.3350  0.4499
 1568TIP3   OH226194   3.140   3.472  12.418  0.2748 -0.2140 -0.0511
 1568TIP3    H126195   3.061   3.492  12.367 -0.8212 -2.0427  0.8583
 1568TIP3    H226196   3.108   3.448  12.505  1.9869  0.8506  0.9332
 1569TIP3   OH226197   3.885   5.195   4.945  0.1853  0.3231 -0.4781
 1569TIP3    H126198   3.951   5.227   4.883 -0.5265  0.2516 -1.2940
 1569TIP3    H226199   3.844   5.275   4.978  0.3765  0.3505 -0.3013
 1570TIP3   OH226200   5.886   4.551   1.106  0.3582  0.2048  0.2727
 1570TIP3    H126201   5.946   4.487   1.070  0.1028 -0.0385  0.2781
 1570TIP3    H226202   5.843   4.590   1.029  0.3267  0.1881  0.2818
 1571TIP3   OH226203   2.312   1.238  12.524  0.7114 -0.5149 -0.2388
 1571TIP3    H126204   2.228   1.279  12.502  1.0342 -0.3302 -1.1688
 1571TIP3    H226205   2.375   1.311  12.525  1.6764 -1.1311 -3.8536
 1572TIP3   OH226206   5.391   1.751   6.066  0.5408 -0.0775  0.9790
 1572TIP3    H126207   5.411   1.739   6.159  3.5755  0.2024  0.4875
 1572TIP3    H226208   5.406   1.844   6.050 -2.8045  0.5325  0.6938
 1573TIP3   OH226209   5.338   2.900   3.112  0.5195  0.1375  0.0153
 1573TIP3    H126210   5.294   2.836   3.168 -1.3011  1.1143 -0.2046
 1573TIP3    H226211   5.395   2.949   3.171 -2.6162  2.3069  1.5734
 1574TIP3   OH226212   4.535   4.536  14.460 -0.5808  0.3042 -0.4133
 1574TIP3    H126213   4.566   4.615  14.505 -1.9344  0.8988 -0.4876
 1574TIP3    H226214   4.440   4.541  14.466 -0.6880 -1.3092 -0.4680
 1575TIP3   OH226215   2.751   3.486   4.896 -0.3135  0.1583  0.2972
 1575TIP3    H126216   2.740   3.430   4.973  1.4115  0.5118  0.8533
 1575TIP3    H226217   2.684   3.553   4.904 -2.2396 -1.5797 -0.2166
 1576TIP3   OH226218   3.848   4.772  13.041 -0.1284 -0.2176 -0.1027
 1576TIP3    H126219   3.862   4.763  12.947 -0.0488  0.9210 -0.2142
 1576TIP3    H226220   3.753   4.762  13.051 -0.2157  0.2811 -0.3890
 1577TIP3   OH226221   5.796   1.226  12.355 -0.5291  0.5637  0.2781
 1577TIP3    H126222   5.709   1.266  12.366 -2.2142 -2.7152  0.1627
 1577TIP3    H226223   5.797   1.198  12.263 -0.7512 -2.1539  1.0139
 1578TIP3   OH226224   5.280   1.043  13.547 -0.3003 -0.1529  0.2863
 1578TIP3    H126225   5.290   1.104  13.474  0.1058 -0.2664  0.2455
 1578TIP3    H226226   5.187   1.018  13.545  0.0913 -1.6275 -1.3773
 1579TIP3   OH226227   5.312   6.529   2.281  0.3516 -0.1392 -0.6001
 1579TIP3    H126228   5.353   6.485   2.206 -0.1763  1.1634 -1.7038
 1579TIP3    H226229   5.218   6.527   2.260  0.1601 -0.1239  0.2405
 1580TIP3   OH226230   3.561   4.705  13.005 -0.4245  0.2218 -0.0837
 1580TIP3    H126231   3.495   4.690  12.937  1.0972 -2.5770 -1.0669
 1580TIP3    H226232   3.578   4.618  13.042  2.8487  0.7595 -0.0267
 1581TIP3   OH226233   3.769   5.850   1.461  0.0641  0.2176  0.1567
 1581TIP3    H126234   3.683   5.815   1.436  0.3077 -1.6978  1.6969
 1581TIP3    H226235   3.821   5.772   1.483  1.6870  1.4219  0.8123
 1582TIP3   OH226236   0.303   2.966  11.816 -0.0988 -0.6446 -0.5248
 1582TIP3    H126237   0.274   3.019  11.891 -1.3591 -0.3679 -1.1916
 1582TIP3    H226238   0.229   2.910  11.796  0.5440 -1.3197 -1.0390
 1583TIP3   OH226239   3.709   1.966  11.993 -0.4271 -0.3857  0.2160
 1583TIP3    H126240   3.744   2.055  11.985 -1.8212  0.0493 -1.7685
 1583TIP3    H226241   3.628   1.977  12.044 -0.5229 -0.5368  0.0960
 1584TIP3   OH226242   2.388   1.946  15.392 -0.9787  0.6069 -0.2492
 1584TIP3    H126243   2.302   1.984  15.407 -0.6979  0.9002  0.7057
 1584TIP3    H226244   2.447   1.998  15.446 -0.3675 -0.2814 -0.0267
 1585TIP3   OH226245   2.808   1.307  15.525 -0.0666 -0.0683  0.3415
 1585TIP3    H126246   2.718   1.298  15.493  0.0543  3.1035 -1.2656
 1585TIP3    H226247   2.860   1.253  15.465 -0.5347  0.9594 -1.0266
 1586TIP3   OH226248   4.975   5.241  13.246  0.0261 -0.3533  0.1266
 1586TIP3    H126249   4.968   5.148  13.267  1.2135 -0.2580  1.0399
 1586TIP3    H226250   5.067   5.262  13.260 -0.2820  1.0222  0.1939
 1587TIP3   OH226251   2.424   1.079   2.100 -0.1912 -0.3588 -0.0816
 1587TIP3    H126252   2.368   1.096   2.175 -1.5392 -1.8186 -0.6814
 1587TIP3    H226253   2.411   1.154   2.042  1.4959  1.1882  1.4197
 1588TIP3   OH226254   5.778   5.307   2.619 -0.7519  0.3480 -0.2403
 1588TIP3    H126255   5.781   5.240   2.550 -3.7922 -0.3727  0.1608
 1588TIP3    H226256   5.756   5.388   2.573  0.2242  0.5048 -0.4344
 1589TIP3   OH226257   5.006   0.235   4.643 -0.3342 -0.2223  0.0547
 1589TIP3    H126258   4.985   0.259   4.734  0.7831 -0.7259  0.4625
 1589TIP3    H226259   5.027   0.142   4.647 -2.9950 -0.9601 -1.2352
 1590TIP3   OH226260   0.702   5.478  11.706 -0.8683  0.3639  0.0306
 1590TIP3    H126261   0.702   5.414  11.778  0.6718 -1.4445 -1.4833
 1590TIP3    H226262   0.663   5.432  11.633  2.0901  0.3320 -1.6880
 1591TIP3   OH226263   3.130   6.283   6.222  0.0091 -0.1644 -0.2412
 1591TIP3    H126264   3.052   6.314   6.266 -0.5410 -1.7582 -0.0167
 1591TIP3    H226265   3.201   6.339   6.254 -0.3240 -1.3290  2.8095
 1592TIP3   OH226266   5.459   4.685   4.932  0.1191 -0.2281 -0.0994
 1592TIP3    H126267   5.373   4.669   4.893 -0.0081 -2.2839  0.8758
 1592TIP3    H226268   5.514   4.615   4.898  0.6137 -0.6786  1.5443
 1593TIP3   OH226269   4.701   0.037  12.651 -0.4652 -0.5113  0.7242
 1593TIP3    H126270   4.743  -0.043  12.618  0.6770 -0.8740  2.8833
 1593TIP3    H226271   4.654   0.009  12.730 -2.0680  0.5442  0.2083
 1594TIP3   OH226272   0.763   5.859  15.185 -0.5141 -0.0798  0.3633
 1594TIP3    H126273   0.853   5.851  15.216  0.1851  1.2656 -1.1947
 1594TIP3    H226274   0.721   5.918  15.248 -0.5765 -1.3237  1.5386
 1595TIP3   OH226275   6.579   5.151  16.778 -0.2976  0.0423  0.3381
 1595TIP3    H126276   6.551   5.205  16.704  0.5348  0.0194 -0.0137
 1595TIP3    H226277   6.634   5.210  16.830 -0.6181 -0.0364  0.7634
 1596TIP3   OH226278   3.271   1.912   5.575 -0.0616 -0.5943 -0.1857
 1596TIP3    H126279   3.364   1.908   5.595  0.1410  2.0833 -0.2243
 1596TIP3    H226280   3.256   1.840   5.514  1.5022 -2.3380  1.3437
 1597TIP3   OH226281   1.479   6.073  14.955  0.2529 -0.3601 -0.6109
 1597TIP3    H126282   1.501   6.082  14.862  0.8898  1.0939 -0.3468
 1597TIP3    H226283   1.430   6.153  14.976  2.8442  0.9087  1.0217
 1598TIP3   OH226284   2.437   5.372  14.203  0.4016 -0.3123 -0.1355
 1598TIP3    H126285   2.488   5.448  14.175  0.6728  0.1581  1.4934
 1598TIP3    H226286   2.414   5.326  14.122  1.3663  0.7785 -1.0546
 1599TIP3   OH226287   2.697   6.073  16.781 -0.1989  0.3623  0.1102
 1599TIP3    H126288   2.629   6.135  16.809 -1.0092  0.5734 -2.1565
 1599TIP3    H226289   2.650   6.006  16.732  0.8573 -1.3240  1.2785
 1600TIP3   OH226290   3.904   2.859   2.605 -0.2787  0.1183  0.7483
 1600TIP3    H126291   3.869   2.945   2.629 -0.2613 -0.0438  1.3711
 1600TIP3    H226292   3.837   2.821   2.547 -0.0966  0.7154  0.1449
 1601TIP3   OH226293   3.023   1.326  16.048  0.0777 -0.0159 -0.2978
 1601TIP3    H126294   3.022   1.394  15.981  0.0140  0.0178 -0.2624
 1601TIP3    H226295   2.958   1.354  16.112  0.6548  0.3362  0.1518
 1602TIP3   OH226296   5.941   3.746   3.197 -0.2077 -0.2592 -0.4837
 1602TIP3    H126297   5.926   3.772   3.288  1.8894 -0.8072  0.0558
 1602TIP3    H226298   5.872   3.791   3.148 -2.0370 -0.7508  1.4626
 1603TIP3   OH226299   2.412   0.948   3.376  0.0367 -0.7999 -0.0811
 1603TIP3    H126300   2.372   1.021   3.329  2.0590 -0.1545 -0.9206
 1603TIP3    H226301   2.489   0.926   3.324 -0.3654 -3.3871  0.3033
 1604TIP3   OH226302   5.423   2.955  12.844 -0.3123  0.0774 -0.3620
 1604TIP3    H126303   5.386   3.036  12.879  0.6577  0.7516 -0.8418
 1604TIP3    H226304   5.364   2.930  12.773  0.3122  1.3681 -1.3998
 1605TIP3   OH226305   5.606   2.279   2.808  0.4288 -0.4623  0.8058
 1605TIP3    H126306   5.557   2.197   2.815 -0.5852  0.0834  0.3281
 1605TIP3    H226307   5.640   2.280   2.719 -0.5186  0.1329  0.4284
 1606TIP3   OH226308   1.476   6.110  16.249  0.1720 -0.3192 -0.1851
 1606TIP3    H126309   1.514   6.197  16.261 -1.0734  0.1579  0.4327
 1606TIP3    H226310   1.500   6.085  16.160  1.5070  0.1644  0.0198
 1607TIP3   OH226311   0.968   3.091  12.450 -0.5646 -0.1298  0.2327
 1607TIP3    H126312   1.028   3.016  12.444 -0.7627 -0.1814 -1.6906
 1607TIP3    H226313   0.885   3.052  12.478  0.1067 -0.1089  2.5417
 1608TIP3   OH226314   5.231   4.117  16.681 -0.0971  0.1402 -0.2911
 1608TIP3    H126315   5.161   4.182  16.680 -0.4867 -0.1485  2.0293
 1608TIP3    H226316   5.306   4.162  16.719 -0.1915 -0.5674  0.7839
 1609TIP3   OH226317   3.427   4.578  11.191 -0.3420  0.2330  0.5403
 1609TIP3    H126318   3.510   4.624  11.205 -0.8565  0.3710  4.1887
 1609TIP3    H226319   3.450   4.504  11.136  1.7973  1.3081 -0.1278
 1610TIP3   OH226320   3.350   3.018   3.898  0.2835 -0.1851  0.1461
 1610TIP3    H126321   3.320   3.075   3.969  0.9987 -1.3278  1.4230
 1610TIP3    H226322   3.287   3.032   3.828  0.2715  1.9315  0.5133
 1611TIP3   OH226323   6.150   6.462  14.649 -0.1856 -0.1699  0.1350
 1611TIP3    H126324   6.218   6.476  14.715 -0.6777 -0.0236  0.6290
 1611TIP3    H226325   6.193   6.415  14.578  0.4259 -0.0690  0.4359
 1612TIP3   OH226326   2.229   3.997   0.272 -0.2515 -0.2661 -0.3878
 1612TIP3    H126327   2.144   3.952   0.273 -0.9862  0.9891 -1.4065
 1612TIP3    H226328   2.289   3.938   0.317 -1.5354 -1.4661 -0.1813
 1613TIP3   OH226329   3.630   5.468   0.533 -0.2692  0.2166  0.2250
 1613TIP3    H126330   3.645   5.515   0.615 -0.6325 -0.2685  0.5745
 1613TIP3    H226331   3.692   5.396   0.533  2.5123  2.3855 -1.7514
 1614TIP3   OH226332   5.029   6.477   2.210 -0.5837 -0.3047  0.3998
 1614TIP3    H126333   5.080   6.398   2.229 -1.1752 -1.0085 -0.8404
 1614TIP3    H226334   4.942   6.444   2.185  0.2109  0.3564 -4.0769
 1615TIP3   OH226335   1.977   1.254   3.672  0.1492  0.4608 -0.4038
 1615TIP3    H126336   1.973   1.348   3.690  2.6238  1.0406 -2.2997
 1615TIP3    H226337   2.062   1.226   3.706 -0.8725 -1.3439  0.8634
 1616TIP3   OH226338   0.026   1.684   0.190 -0.0602 -0.6894 -0.0907
 1616TIP3    H126339  -0.038   1.619   0.219  1.2310 -1.1825  1.8552
 1616TIP3    H226340  -0.024   1.766   0.184 -0.8023 -0.9029  2.0530
 1617TIP3   OH226341   4.430   2.142   2.912 -0.1906  0.9846  0.7708
 1617TIP3    H126342   4.445   2.051   2.885 -0.4151  1.0167  0.5294
 1617TIP3    H226343   4.334   2.148   2.921 -0.1296  1.0178  1.4272
 1618TIP3   OH226344   1.228   2.768  14.510  0.3196 -0.5267 -0.1472
 1618TIP3    H126345   1.294   2.701  14.491  1.8808  0.4774  1.4466
 1618TIP3    H226346   1.160   2.722  14.558  1.3006 -1.0328  0.7915
 1619TIP3   OH226347   5.309   1.024   1.523 -0.3040 -0.0558 -0.0648
 1619TIP3    H126348   5.243   1.054   1.585 -0.0671  0.6121 -0.1342
 1619TIP3    H226349   5.293   1.075   1.444 -0.4026 -0.6788 -0.4547
 1620TIP3   OH226350   0.795   4.213   3.520 -0.2946  0.6405  0.8891
 1620TIP3    H126351   0.854   4.165   3.578  2.5360  2.5303 -0.2029
 1620TIP3    H226352   0.771   4.291   3.570 -1.6805  0.0476  1.1950
 1621TIP3   OH226353   5.663   4.360  17.095  0.2518  0.3050  0.4009
 1621TIP3    H126354   5.697   4.392  17.011 -0.1635  0.1773  0.1782
 1621TIP3    H226355   5.719   4.285  17.117  0.0161 -0.0041 -0.0392
 1622TIP3   OH226356   5.596   3.713  15.619 -0.2598  0.4527 -0.3016
 1622TIP3    H126357   5.570   3.803  15.598 -1.8225 -0.0936 -0.8560
 1622TIP3    H226358   5.580   3.704  15.712  1.1899  1.1334  0.0412
 1623TIP3   OH226359   6.245   2.635   3.811  0.2287  0.0916  0.4521
 1623TIP3    H126360   6.267   2.542   3.813  1.3811  0.2550 -1.6130
 1623TIP3    H226361   6.150   2.638   3.797  0.0804 -0.7513  1.2323
 1624TIP3   OH226362   5.830   4.106  14.115 -0.9053  0.3844  0.3167
 1624TIP3    H126363   5.804   4.022  14.078  2.3951 -0.7637  0.3153
 1624TIP3    H226364   5.923   4.096  14.135 -0.0829  4.4014 -0.6754
 1625TIP3   OH226365   4.303   5.274  14.732 -0.0902  0.5991  0.1987
 1625TIP3    H126366   4.293   5.199  14.674 -2.8334  0.5549  0.5900
 1625TIP3    H226367   4.377   5.323  14.696  0.0079 -0.8305 -1.6982
 1626TIP3   OH226368   3.396   4.016   6.348  0.0589  1.0237 -0.6019
 1626TIP3    H126369   3.313   3.971   6.337 -0.1896  1.6100 -1.1770
 1626TIP3    H226370   3.461   3.945   6.352 -0.3490  0.5957 -1.2444
 1627TIP3   OH226371   5.443   4.184  12.437 -0.0872  0.7053 -0.7340
 1627TIP3    H126372   5.499   4.138  12.500 -1.6154 -0.8277 -0.4308
 1627TIP3    H226373   5.356   4.146  12.449 -1.0366  2.3992 -1.8024
 1628TIP3   OH226374   0.764   4.856   5.748  0.3182 -0.0093 -0.5603
 1628TIP3    H126375   0.697   4.925   5.748  1.0009  0.6993  0.9059
 1628TIP3    H226376   0.844   4.900   5.774  1.4492 -0.8160 -2.4912
 1629TIP3   OH226377   1.993   0.441   1.107 -0.3022 -1.0444 -0.4446
 1629TIP3    H126378   2.017   0.533   1.096 -2.3126 -0.2697  0.9825
 1629TIP3    H226379   1.898   0.443   1.122 -0.0711 -3.0886  2.0423
 1630TIP3   OH226380   4.113   5.638   2.339 -0.3653  0.9072 -0.1480
 1630TIP3    H126381   4.145   5.666   2.425 -0.9507  1.2535 -0.0404
 1630TIP3    H226382   4.108   5.719   2.287 -0.0213  0.7009 -0.5062
 1631TIP3   OH226383   0.309   0.598  15.450  1.0687 -0.4341  0.0801
 1631TIP3    H126384   0.334   0.688  15.427  1.1422 -0.5330 -0.2236
 1631TIP3    H226385   0.247   0.572  15.382 -1.2499  0.4171  1.7503
 1632TIP3   OH226386   5.043   4.057   6.102 -0.5916 -0.0566  0.6165
 1632TIP3    H126387   4.977   3.987   6.100  0.3692 -1.0581  1.7916
 1632TIP3    H226388   5.045   4.085   6.193  0.6877 -0.1613  0.6386
 1633TIP3   OH226389   1.502   2.716   4.188 -0.5843 -0.1133 -0.5425
 1633TIP3    H126390   1.422   2.746   4.232  0.8026 -0.4895  2.4925
 1633TIP3    H226391   1.514   2.777   4.116 -1.6117  2.3131  1.2067
 1634TIP3   OH226392   0.924   5.037   0.051  0.1166 -0.1125  0.4335
 1634TIP3    H126393   0.874   4.963   0.015  0.7539 -0.4601  0.2517
 1634TIP3    H226394   0.956   5.084  -0.026 -0.9720  0.8495  0.5325
 1635TIP3   OH226395   4.604   5.902   2.193 -0.0124 -0.2328 -0.8311
 1635TIP3    H126396   4.693   5.923   2.166 -0.5968  1.8747 -1.3039
 1635TIP3    H226397   4.549   5.930   2.119 -0.9954 -3.3877 -1.4848
 1636TIP3   OH226398   1.924   3.197   5.561  0.0290 -0.5074 -0.1122
 1636TIP3    H126399   1.850   3.233   5.513  0.4201  0.4043 -0.0448
 1636TIP3    H226400   1.948   3.265   5.624  1.6026 -0.3303 -0.8493
 1637TIP3   OH226401   1.980   1.653  17.174  0.0191  0.1443 -0.4344
 1637TIP3    H126402   1.892   1.617  17.177 -0.0008  0.2523  1.1596
 1637TIP3    H226403   2.020   1.613  17.097 -0.8473 -1.2679 -0.1866
 1638TIP3   OH226404   6.016   4.706   6.815 -0.3973 -0.4073 -0.3365
 1638TIP3    H126405   5.944   4.768   6.805 -0.9308 -1.0315 -0.4540
 1638TIP3    H226406   6.025   4.665   6.728 -0.6979 -1.1788 -0.0172
 1639TIP3   OH226407   6.083   6.384  11.519 -0.3378  0.3828  0.0499
 1639TIP3    H126408   6.026   6.435  11.575  1.2506  0.1647  1.9932
 1639TIP3    H226409   6.039   6.382  11.434 -2.7802  0.8419  1.2356
 1640TIP3   OH226410   6.341   0.217  15.748 -0.0219  0.3304 -0.2227
 1640TIP3    H126411   6.414   0.154  15.744  1.0862  1.5352  0.1963
 1640TIP3    H226412   6.307   0.208  15.837 -0.1540  0.0092 -0.3052
 1641TIP3   OH226413   5.767   5.670   6.596 -0.4606  0.7101 -0.1365
 1641TIP3    H126414   5.685   5.627   6.572 -0.0599  0.4445 -1.0921
 1641TIP3    H226415   5.746   5.763   6.594 -0.4286  0.7242 -1.7646
 1642TIP3   OH226416   6.093   2.786  12.028  0.0454 -0.1322 -0.1767
 1642TIP3    H126417   6.086   2.805  11.935  0.4384 -1.2513 -0.4521
 1642TIP3    H226418   6.035   2.850  12.070 -0.1487  0.3742 -1.1790
 1643TIP3   OH226419   2.811   3.101  14.937 -0.4154  0.1947  0.3772
 1643TIP3    H126420   2.844   3.188  14.956  2.2736 -0.6133 -0.1507
 1643TIP3    H226421   2.860   3.073  14.859 -1.4235 -1.6734  0.3556
 1644TIP3   OH226422   3.361   0.646   0.095  0.1703  0.1352 -0.3821
 1644TIP3    H126423   3.306   0.585   0.046 -1.5752  2.1826 -1.1313
 1644TIP3    H226424   3.359   0.614   0.185 -1.0794 -0.6433 -0.6656
 1645TIP3   OH226425   5.313   0.157  13.190  0.4354 -0.1568  0.9585
 1645TIP3    H126426   5.249   0.086  13.195 -0.2186  0.5045  2.5634
 1645TIP3    H226427   5.396   0.116  13.214 -0.0236 -0.3107  2.3662
 1646TIP3   OH226428   4.348   0.974  13.747  0.2176 -0.1619 -0.3756
 1646TIP3    H126429   4.337   1.019  13.663 -0.5522  0.8515  0.2442
 1646TIP3    H226430   4.311   1.034  13.812 -0.8658 -1.7122  0.4972
 1647TIP3   OH226431   1.812   2.231  13.410 -0.4142 -0.1534 -0.0424
 1647TIP3    H126432   1.787   2.311  13.364  2.6504  2.0611  1.8348
 1647TIP3    H226433   1.829   2.168  13.340  0.1418  1.8231 -1.7897
 1648TIP3   OH226434   0.337   0.100   1.802  0.1619  0.0169 -0.0167
 1648TIP3    H126435   0.340   0.008   1.829  0.2671  0.0671  0.1484
 1648TIP3    H226436   0.251   0.111   1.762 -0.8052  0.4223  2.0656
 1649TIP3   OH226437   0.005   4.959  13.652 -0.2268  0.0055 -0.4799
 1649TIP3    H126438  -0.016   4.927  13.740 -1.3400  1.4628 -0.1689
 1649TIP3    H226439  -0.050   4.907  13.594  1.7654 -2.1799 -0.5596
 1650TIP3   OH226440   1.552   4.222   4.311  0.3199  0.1331  0.0228
 1650TIP3    H126441   1.512   4.186   4.390 -0.6322 -0.9682 -0.9154
 1650TIP3    H226442   1.619   4.158   4.286  0.6929  0.5290 -0.0159
 1651TIP3   OH226443   6.380   5.998   6.160 -0.0613  0.2006  0.2389
 1651TIP3    H126444   6.464   5.969   6.195 -0.6227  0.7962  2.2125
 1651TIP3    H226445   6.352   6.067   6.221 -1.1828  1.2144 -1.3594
 1652TIP3   OH226446   0.254   0.209   0.139 -0.5969 -0.5957  0.1812
 1652TIP3    H126447   0.161   0.230   0.143 -0.6673 -0.8363 -0.1082
 1652TIP3    H226448   0.273   0.199   0.046 -0.2520 -0.4275  0.2300
 1653TIP3   OH226449   6.291   4.764  15.489 -0.0577  0.1011 -0.0749
 1653TIP3    H126450   6.256   4.836  15.540 -0.7507 -0.9794  1.0118
 1653TIP3    H226451   6.331   4.705  15.553  0.8801 -0.2812 -0.9779
 1654TIP3   OH226452   1.653   5.895   3.596 -0.6602  0.1705 -0.4565
 1654TIP3    H126453   1.727   5.877   3.538  0.8999  0.4406  1.3790
 1654TIP3    H226454   1.633   5.987   3.582  0.3340  0.4804  0.0989
 1655TIP3   OH226455   5.550   0.596   5.774 -0.4181 -0.3984  0.0789
 1655TIP3    H126456   5.477   0.625   5.829  0.1939 -0.7964  1.1240
 1655TIP3    H226457   5.528   0.506   5.751 -0.5645 -0.3056 -0.1516
 1656TIP3   OH226458   4.819   5.577  17.558 -0.3199  0.1893 -0.2242
 1656TIP3    H126459   4.886   5.514  17.532  1.4592  1.1710  1.6811
 1656TIP3    H226460   4.738   5.545  17.517  1.2496 -1.1194 -2.5041
 1657TIP3   OH226461   3.063   5.950   3.264  0.7737  0.3078  0.4563
 1657TIP3    H126462   3.140   5.996   3.230  0.0294  0.5599 -0.9379
 1657TIP3    H226463   3.072   5.956   3.359  2.4454  0.3771  0.3290
 1658TIP3   OH226464   3.640   2.209   0.663  0.1650 -0.0405 -0.3469
 1658TIP3    H126465   3.635   2.117   0.637 -0.4422  0.1672 -1.0099
 1658TIP3    H226466   3.731   2.221   0.690  0.3403 -0.7461 -0.5970
 1659TIP3   OH226467   1.541   5.277   0.812 -0.1290 -0.3670 -0.9273
 1659TIP3    H126468   1.570   5.275   0.721 -0.1886 -1.0889 -0.9408
 1659TIP3    H226469   1.589   5.205   0.854 -1.0364 -0.8412 -0.6841
 1660TIP3   OH226470   3.418   4.256   1.359  0.0672 -0.3305  0.1676
 1660TIP3    H126471   3.466   4.261   1.277  1.8808 -1.5411  1.0979
 1660TIP3    H226472   3.444   4.335   1.408  0.5278 -0.6075  0.3700
 1661TIP3   OH226473   6.638   0.804  16.401  0.5354 -0.3403  0.1766
 1661TIP3    H126474   6.717   0.842  16.362  0.6617  0.1034  0.8444
 1661TIP3    H226475   6.575   0.877  16.404 -0.2321 -0.9211 -1.2064
 1662TIP3   OH226476   0.450   6.584  13.887 -0.0387  0.3979 -0.1268
 1662TIP3    H126477   0.529   6.531  13.879 -0.1850 -0.2475  2.1253
 1662TIP3    H226478   0.387   6.541  13.828  1.0223  0.4983 -1.3934
 1663TIP3   OH226479   6.379   6.014  16.802 -0.1247 -0.0091 -0.4701
 1663TIP3    H126480   6.322   6.034  16.729  0.1025 -0.9085 -0.9091
 1663TIP3    H226481   6.466   6.045  16.774 -0.2178  0.5494 -0.1650
 1664TIP3   OH226482   0.679   3.526  13.156 -0.0545 -0.1381  0.1259
 1664TIP3    H126483   0.601   3.577  13.134 -0.4404 -0.6145  0.3728
 1664TIP3    H226484   0.663   3.493  13.244  0.9895  0.8107  0.7125
 1665TIP3   OH226485   3.281   5.773   1.207 -0.1046 -0.8370  0.2415
 1665TIP3    H126486   3.241   5.747   1.124  0.5459 -0.6537 -0.1316
 1665TIP3    H226487   3.373   5.747   1.199 -0.3923 -2.4605  1.5984
 1666TIP3   OH226488   4.445   5.235  16.946  0.3476 -0.0612 -0.1955
 1666TIP3    H126489   4.505   5.183  16.892 -0.0953  0.6230 -1.3822
 1666TIP3    H226490   4.503   5.290  17.000  0.8551  1.3669 -2.0851
 1667TIP3   OH226491   3.445   2.644  12.636  0.2637  0.3013  0.2305
 1667TIP3    H126492   3.494   2.562  12.645  1.4944  1.2133  2.8619
 1667TIP3    H226493   3.356   2.622  12.662  0.3816 -0.3727  0.0766
 1668TIP3   OH226494   6.640   5.506   3.764  0.5183 -0.3062  0.1150
 1668TIP3    H126495   6.706   5.484   3.698 -0.4116  1.0432 -1.3381
 1668TIP3    H226496   6.690   5.530   3.842  1.7010 -0.3639 -0.6072
 1669TIP3   OH226497   3.270   1.303   0.006  0.3543  0.2968 -0.3112
 1669TIP3    H126498   3.180   1.273   0.022  0.5432 -0.0134  0.1939
 1669TIP3    H226499   3.259   1.391  -0.029 -0.1559  0.2035 -0.3969
 1670TIP3   OH226500   3.895   4.742   1.094  0.3637 -0.0299 -0.2396
 1670TIP3    H126501   3.987   4.768   1.105 -0.4280  2.6271  0.8683
 1670TIP3    H226502   3.878   4.755   1.000  1.3531 -1.6485 -0.6904
 1671TIP3   OH226503   5.915   3.399   0.341  0.1633  0.2768  0.5760
 1671TIP3    H126504   5.859   3.412   0.264 -0.7226  0.9844  1.3131
 1671TIP3    H226505   5.883   3.318   0.380  0.0023  0.3997  0.7012
 1672TIP3   OH226506   5.503   1.898  16.895 -0.3553  0.3969 -0.3435
 1672TIP3    H126507   5.567   1.943  16.841  0.2014  2.5808  1.9530
 1672TIP3    H226508   5.537   1.808  16.903 -0.6468 -0.1467 -3.7113
 1673TIP3   OH226509   1.078   5.743   5.800  0.4485 -0.5425 -0.1795
 1673TIP3    H126510   1.140   5.811   5.829 -0.9862  1.0027 -0.6085
 1673TIP3    H226511   1.110   5.663   5.842  2.5695  0.2423 -0.1600
 1674TIP3   OH226512   1.201   1.363  11.212  0.9071 -0.6621  0.6425
 1674TIP3    H126513   1.128   1.387  11.268  1.6605  0.3170  1.2219
 1674TIP3    H226514   1.279   1.381  11.264  1.6495  0.8014 -0.8825
 1675TIP3   OH226515   3.929   0.651  15.957 -0.2834 -0.0059 -0.3970
 1675TIP3    H126516   3.984   0.730  15.954 -0.1663 -0.0996 -1.0105
 1675TIP3    H226517   3.974   0.593  16.019  0.9045 -0.4861 -1.6446
 1676TIP3   OH226518   2.913   5.206  16.186 -0.8499  0.1323 -0.0510
 1676TIP3    H126519   2.893   5.141  16.253  0.4694 -1.0099 -0.7233
 1676TIP3    H226520   2.841   5.269  16.192 -0.8293  0.0286  2.3561
 1677TIP3   OH226521   2.641   1.426  12.969  0.1075 -0.5646 -0.2023
 1677TIP3    H126522   2.610   1.336  12.977  0.7166 -0.7020  0.8324
 1677TIP3    H226523   2.676   1.447  13.056  1.4124  0.1184 -0.8618
 1678TIP3   OH226524   5.297   3.758  17.198  0.3685  0.6019 -0.0701
 1678TIP3    H126525   5.306   3.663  17.207 -1.2828  0.3412 -0.7002
 1678TIP3    H226526   5.366   3.784  17.137  0.2475 -0.3451 -0.6180
 1679TIP3   OH226527   0.022   3.728  12.358 -0.2256 -0.1477 -0.7733
 1679TIP3    H126528  -0.002   3.733  12.450  1.1283  0.2319 -0.4199
 1679TIP3    H226529  -0.061   3.716  12.312 -0.9338 -0.1672  0.4754
 1680TIP3   OH226530   2.321   1.247  16.274 -0.5205  0.2508  0.1662
 1680TIP3    H126531   2.291   1.321  16.327 -0.0272  1.4605 -1.1572
 1680TIP3    H226532   2.416   1.256  16.272 -0.5413  0.3904 -1.1042
 1681TIP3   OH226533   0.567   4.390   3.669 -0.2478 -0.2986 -0.4439
 1681TIP3    H126534   0.527   4.306   3.650  1.9656 -1.4547 -0.3398
 1681TIP3    H226535   0.550   4.405   3.762  0.1433 -1.1081 -0.2369
 1682TIP3   OH226536   3.815   6.588  16.041  0.1723  0.0089 -0.0228
 1682TIP3    H126537   3.889   6.596  16.100  1.4310 -1.3157 -1.3321
 1682TIP3    H226538   3.836   6.648  15.969 -1.1436  1.3023  0.6167
 1683TIP3   OH226539   1.547   6.266  15.728 -0.1693  0.4224  0.2711
 1683TIP3    H126540   1.493   6.328  15.776 -0.6498  0.3439 -0.1654
 1683TIP3    H226541   1.577   6.314  15.651 -2.4168 -0.5211 -1.3062
 1684TIP3   OH226542   5.107   3.473   0.262  0.0706 -0.4612 -0.2139
 1684TIP3    H126543   5.199   3.448   0.252  0.3561  0.2912  0.4169
 1684TIP3    H226544   5.058   3.401   0.221  0.9351 -0.8452 -0.6059
 1685TIP3   OH226545   6.218   4.315  13.397 -0.4190  0.9289  0.2522
 1685TIP3    H126546   6.287   4.374  13.367  0.3580  0.0290  0.1893
 1685TIP3    H226547   6.151   4.319  13.329  0.7101 -0.0681 -0.9864
 1686TIP3   OH226548   3.395   2.148  12.389  0.4968  0.2713 -0.4010
 1686TIP3    H126549   3.346   2.075  12.426 -0.9835  1.6867  0.6114
 1686TIP3    H226550   3.486   2.119  12.389  0.1277 -1.0332  1.2717
 1687TIP3   OH226551   0.210   3.530   4.620  0.3809 -0.1580 -0.6355
 1687TIP3    H126552   0.194   3.541   4.713  1.8209  0.8922 -0.4841
 1687TIP3    H226553   0.131   3.485   4.587 -0.6932  0.5818  0.8290
 1688TIP3   OH226554   0.505   4.839   5.933 -0.3142  0.2553  0.5847
 1688TIP3    H126555   0.423   4.849   5.981  0.4720  1.3010  1.7715
 1688TIP3    H226556   0.567   4.803   5.997  0.3840  0.2867 -0.0503
 1689TIP3   OH226557   4.551   4.234  12.517 -0.2701  0.4727  0.4225
 1689TIP3    H126558   4.629   4.189  12.483  0.5784  1.2165  1.3204
 1689TIP3    H226559   4.477   4.187  12.478  0.6265 -0.1492 -0.5775
 1690TIP3   OH226560   6.403   5.065  15.921 -0.4448  0.1096 -0.7731
 1690TIP3    H126561   6.411   5.159  15.936  0.3506 -0.0466 -0.1106
 1690TIP3    H226562   6.363   5.058  15.834 -0.2120  1.0566 -0.9723
 1691TIP3   OH226563   1.738   0.577   3.091 -0.1953  0.2969 -0.1295
 1691TIP3    H126564   1.795   0.634   3.143  0.3256 -0.5287  0.2241
 1691TIP3    H226565   1.649   0.609   3.109 -0.0422 -0.0782  1.4489
 1692TIP3   OH226566   2.823   2.994   1.657  0.2446  0.1984  0.4217
 1692TIP3    H126567   2.758   3.041   1.709 -0.6425  2.0276 -2.1643
 1692TIP3    H226568   2.905   3.039   1.676  0.1417  0.1608  0.9962
 1693TIP3   OH226569   1.554   5.682  15.262 -0.3431 -0.7356  0.0374
 1693TIP3    H126570   1.609   5.617  15.218 -1.2230 -0.5744 -1.3749
 1693TIP3    H226571   1.596   5.696  15.347  1.5213 -0.9615 -0.7891
 1694TIP3   OH226572   5.670   6.255  12.203 -0.1202  0.4728 -0.3995
 1694TIP3    H126573   5.695   6.174  12.158  0.1572  1.2324 -1.6519
 1694TIP3    H226574   5.713   6.250  12.288  0.0241 -0.6161 -0.5275
 1695TIP3   OH226575   3.160   2.061  12.770 -0.2745 -0.2815 -0.1691
 1695TIP3    H126576   3.200   2.000  12.831  0.7921  0.9976  0.4660
 1695TIP3    H226577   3.105   2.117  12.825 -1.1155 -0.5489 -0.7156
 1696TIP3   OH226578   2.034   3.697  12.348  1.0332  0.6697  0.4355
 1696TIP3    H126579   1.998   3.619  12.308 -0.0267  0.6809  1.3079
 1696TIP3    H226580   2.085   3.665  12.423  0.5950  0.7978  0.7963
 1697TIP3   OH226581   4.045   5.600   4.042 -0.6101  0.3809  0.3073
 1697TIP3    H126582   4.100   5.536   4.087 -0.1429  1.1247  0.7980
 1697TIP3    H226583   3.980   5.546   3.995  1.2367 -0.5824 -1.2786
 1698TIP3   OH226584   3.357   0.134  10.882  0.4363  0.1140  0.1339
 1698TIP3    H126585   3.425   0.086  10.834  0.3746  0.1045  0.0572
 1698TIP3    H226586   3.352   0.090  10.967  0.2855 -0.0991  0.0133
 1699TIP3   OH226587   6.515   0.157  10.545  0.4127 -0.5509  0.3087
 1699TIP3    H126588   6.551   0.073  10.517  0.2595 -0.1861 -1.0596
 1699TIP3    H226589   6.581   0.193  10.604  0.1442 -1.9348  1.5068
 1700TIP3   OH226590   2.281   2.123   6.033  0.5877 -0.2138 -0.3670
 1700TIP3    H126591   2.338   2.198   6.018  0.3440  0.1332  0.3675
 1700TIP3    H226592   2.236   2.143   6.116 -1.3142 -0.0176 -1.3815
 1701TIP3   OH226593   2.840   4.908   2.829 -0.4782  0.0238 -0.0419
 1701TIP3    H126594   2.821   4.937   2.740 -1.7905 -2.3628 -0.6455
 1701TIP3    H226595   2.936   4.906   2.834 -0.3741  1.3948 -0.9293
 1702TIP3   OH226596   2.811   4.325  16.553  0.4785 -0.1752  0.9975
 1702TIP3    H126597   2.859   4.393  16.507  0.2567  0.8557  2.2262
 1702TIP3    H226598   2.728   4.318  16.507  1.0747 -0.6784 -0.0288
 1703TIP3   OH226599   2.889   0.736  16.368 -0.2664  0.4935  0.7470
 1703TIP3    H126600   2.963   0.676  16.380  0.0562  0.9238  0.9082
 1703TIP3    H226601   2.925   0.823  16.385 -0.4800  0.8483 -0.4733
 1704TIP3   OH226602   2.231   3.741  15.837  0.0522 -0.2470 -0.9106
 1704TIP3    H126603   2.138   3.759  15.850  0.3151  1.8165 -1.5724
 1704TIP3    H226604   2.233   3.656  15.793 -1.5491 -0.0902 -1.3450
 1705TIP3   OH226605   1.352   4.953   3.857  0.3376 -0.3219  0.0127
 1705TIP3    H126606   1.278   5.013   3.862 -0.0925 -0.8595  0.1153
 1705TIP3    H226607   1.418   4.993   3.914  0.2282  0.2876 -0.2756
 1706TIP3   OH226608   6.675   4.818   6.042 -0.4330 -0.7481  0.4422
 1706TIP3    H126609   6.630   4.735   6.061 -0.7364 -0.3282  1.6323
 1706TIP3    H226610   6.734   4.831   6.116 -0.9175  0.4567  0.6337
 1707TIP3   OH226611   5.561   4.885   2.527  0.0075  0.2517 -0.4508
 1707TIP3    H126612   5.505   4.937   2.584 -1.1147 -1.1787 -0.1926
 1707TIP3    H226613   5.630   4.852   2.584 -0.1592  0.1826 -0.2895
 1708TIP3   OH226614   0.783   0.324   5.213 -0.3890  0.6118  0.1621
 1708TIP3    H126615   0.871   0.332   5.176 -0.8568 -0.6485 -1.3419
 1708TIP3    H226616   0.797   0.285   5.300  0.5226  0.3661 -0.0880
 1709TIP3   OH226617   6.444   1.903   0.414  0.2977  0.0195 -0.2447
 1709TIP3    H126618   6.540   1.899   0.415  0.3717 -0.8022 -2.8002
 1709TIP3    H226619   6.424   1.989   0.378 -0.0272  0.8562  1.7962
 1710TIP3   OH226620   0.591   1.372  14.731  0.2597 -0.8454  0.1230
 1710TIP3    H126621   0.609   1.412  14.646  0.1387 -1.7911 -0.3609
 1710TIP3    H226622   0.535   1.435  14.776  0.9640  0.0185 -0.1808
 1711TIP3   OH226623   0.165   4.518  15.791 -0.0961  0.7954  0.2363
 1711TIP3    H126624   0.119   4.554  15.715  1.7407 -1.4644 -2.0938
 1711TIP3    H226625   0.181   4.427  15.769  1.5570  0.3487  2.8728
 1712TIP3   OH226626   1.312   0.294   3.755 -0.7667 -0.0539 -0.2032
 1712TIP3    H126627   1.399   0.319   3.724 -0.6061 -1.4753 -0.9939
 1712TIP3    H226628   1.262   0.375   3.755  0.7473  0.9347  0.9653
 1713TIP3   OH226629   2.136   3.973   6.810  0.3518 -0.6908  0.8675
 1713TIP3    H126630   2.059   3.922   6.786 -0.0792 -0.1164  1.0162
 1713TIP3    H226631   2.185   3.983   6.728 -0.7943  0.7310  0.3381
 1714TIP3   OH226632   0.867   2.387  11.604 -0.0503 -0.2190  0.6055
 1714TIP3    H126633   0.881   2.398  11.510 -1.9791 -0.7140  0.2200
 1714TIP3    H226634   0.852   2.293  11.616  0.5599 -0.2215  1.4783
 1715TIP3   OH226635   1.743   0.750  17.273 -0.2501  0.4582  0.1657
 1715TIP3    H126636   1.810   0.749  17.342 -0.7582  2.9158  0.7902
 1715TIP3    H226637   1.767   0.825  17.218 -2.5076  1.4589  0.4565
 1716TIP3   OH226638   6.652   0.044   4.157  0.3904 -0.3376 -0.4665
 1716TIP3    H126639   6.678   0.127   4.117  0.3326  1.1192  2.3261
 1716TIP3    H226640   6.566   0.061   4.195  1.5841 -0.6676  2.6757
 1717TIP3   OH226641   2.309   0.330  13.162 -0.4096 -0.0353 -0.7846
 1717TIP3    H126642   2.230   0.375  13.132  0.6598  1.7480 -1.0736
 1717TIP3    H226643   2.335   0.378  13.241 -0.7420 -1.9171  0.5294
 1718TIP3   OH226644   4.940   3.489  13.575 -0.7611  0.0978 -0.0507
 1718TIP3    H126645   4.886   3.567  13.563  0.0992  0.5618 -1.0742
 1718TIP3    H226646   4.946   3.479  13.670 -0.5195  1.5392  0.1078
 1719TIP3   OH226647   1.419   3.733   1.882  0.0954  1.1807 -0.1007
 1719TIP3    H126648   1.463   3.769   1.805  0.7557 -1.8007 -1.2969
 1719TIP3    H226649   1.327   3.729   1.858  0.1221  1.3941 -0.2383
 1720TIP3   OH226650   5.116   3.995  14.355 -0.1081 -0.0728  0.5110
 1720TIP3    H126651   5.135   4.072  14.408 -2.1167 -0.2374  1.5483
 1720TIP3    H226652   5.152   3.922  14.405  1.6777  0.1040 -0.4095
 1721TIP3   OH226653   1.085   6.675   4.240 -0.0980 -0.0835  0.2373
 1721TIP3    H126654   1.000   6.638   4.263 -0.0784  0.2754  0.9067
 1721TIP3    H226655   1.123   6.612   4.179 -0.1830 -1.0353  1.1335
 1722TIP3   OH226656   3.929   2.309   3.668  0.2570 -0.1765 -0.3152
 1722TIP3    H126657   3.876   2.312   3.589 -0.7800 -1.4280  0.2954
 1722TIP3    H226658   4.007   2.260   3.644  0.8031  0.9841 -1.0051
 1723TIP3   OH226659   3.888   3.869   5.311 -0.1388  0.2720  0.1038
 1723TIP3    H126660   3.945   3.843   5.239  1.2554 -0.9962  1.5966
 1723TIP3    H226661   3.872   3.963   5.297 -0.8987 -0.1684 -2.4590
 1724TIP3   OH226662   5.730   2.923   5.915 -0.1434 -0.0984  0.4812
 1724TIP3    H126663   5.647   2.907   5.960  0.3710  0.0988  1.5451
 1724TIP3    H226664   5.718   2.886   5.828 -0.4993 -2.3564  1.4203
 1725TIP3   OH226665   1.970   1.445  16.945 -0.3592  0.5164 -0.0688
 1725TIP3    H126666   2.043   1.506  16.934  0.4009 -0.2882  0.5181
 1725TIP3    H226667   1.995   1.368  16.895  0.1179 -0.5495  1.7299
 1726TIP3   OH226668   4.579   5.403   5.587  0.2613 -0.4690 -0.0741
 1726TIP3    H126669   4.625   5.351   5.654 -3.9769 -1.3471  2.5122
 1726TIP3    H226670   4.550   5.481   5.634 -0.0613  0.5356 -1.8715
 1727TIP3   OH226671   4.881   0.986   5.296  0.7464  0.7430 -0.0372
 1727TIP3    H126672   4.920   0.899   5.310 -1.0403  0.1234  1.4312
 1727TIP3    H226673   4.899   1.006   5.204  0.8724 -1.3629 -0.5167
 1728TIP3   OH226674   0.059   0.691  12.686  0.0399 -0.0516  0.1674
 1728TIP3    H126675  -0.031   0.722  12.676  0.7605  2.3618  0.4628
 1728TIP3    H226676   0.093   0.688  12.596  0.0803  0.4481  0.1629
 1729TIP3   OH226677   0.988   1.316  17.508 -0.0404  0.1549  0.3299
 1729TIP3    H126678   0.903   1.318  17.553 -1.0441 -1.2197 -1.3826
 1729TIP3    H226679   1.010   1.408  17.494 -0.9896  0.5429  1.2636
 1730TIP3   OH226680   6.328   5.304  13.627 -0.0577 -0.4536  0.1715
 1730TIP3    H126681   6.264   5.268  13.566  3.3830 -2.6026 -2.5801
 1730TIP3    H226682   6.313   5.257  13.709 -1.6308 -1.2727 -0.5436
 1731TIP3   OH226683   4.029   3.922   6.554  0.1879 -0.2483  0.4186
 1731TIP3    H126684   4.097   3.989   6.553  0.7897 -0.8442 -0.5329
 1731TIP3    H226685   4.077   3.839   6.548 -0.5990 -0.7105  0.3496
 1732TIP3   OH226686   6.304   3.038   1.148 -0.6436  0.3149  0.2590
 1732TIP3    H126687   6.289   3.129   1.125 -0.7772  0.6313  1.5073
 1732TIP3    H226688   6.256   3.026   1.230  0.6350 -0.4518  0.9263
 1733TIP3   OH226689   3.250   2.515  14.184 -0.1253 -0.0315  0.2369
 1733TIP3    H126690   3.175   2.457  14.173 -0.7205  0.8599 -0.6454
 1733TIP3    H226691   3.235   2.584  14.120  1.5369  0.0806 -0.0691
 1734TIP3   OH226692   6.696   6.087   5.003 -0.1277 -0.1873  0.2881
 1734TIP3    H126693   6.603   6.093   5.025 -0.0112  1.9793  0.3733
 1734TIP3    H226694   6.725   6.008   5.048 -1.5246  0.1245  1.8567
 1735TIP3   OH226695   3.605   6.696  16.198  0.8043  0.2145 -0.2981
 1735TIP3    H126696   3.521   6.703  16.154  1.5128  1.9906 -1.4646
 1735TIP3    H226697   3.660   6.646  16.138  0.4082 -1.7167  0.8411
 1736TIP3   OH226698   0.346   6.415  12.184  0.8196  0.3436 -0.7662
 1736TIP3    H126699   0.396   6.383  12.259  0.4396  1.0367 -0.2034
 1736TIP3    H226700   0.348   6.510  12.192 -2.6087  0.4625  0.7393
 1737TIP3   OH226701   6.183   4.894  17.243 -0.3678 -0.1781  0.0462
 1737TIP3    H126702   6.170   4.971  17.298 -0.7599 -0.4435  0.3341
 1737TIP3    H226703   6.202   4.929  17.156  2.5887  0.3186  0.7752
 1738TIP3   OH226704   6.609   3.771   1.568  0.1279 -0.4869  0.2993
 1738TIP3    H126705   6.634   3.768   1.475  2.8175  1.1444  0.8560
 1738TIP3    H226706   6.691   3.762   1.615 -1.1874 -1.2739  2.5813
 1739TIP3   OH226707   4.426   4.637   6.597 -0.2260 -0.1896  0.1230
 1739TIP3    H126708   4.436   4.566   6.533  0.4283  0.7234 -0.8213
 1739TIP3    H226709   4.352   4.688   6.565  0.2740  0.4275 -0.0750
 1740TIP3   OH226710   1.620   4.294  13.484 -0.0241  0.8407  0.0544
 1740TIP3    H126711   1.681   4.227  13.453 -0.7272  0.9188 -1.5833
 1740TIP3    H226712   1.566   4.248  13.549  1.8867  0.8471  1.7358
 1741TIP3   OH226713   3.058   3.133   1.713  0.6977 -0.3691  0.2066
 1741TIP3    H126714   3.148   3.109   1.734  0.5690 -1.2765 -0.2193
 1741TIP3    H226715   3.062   3.225   1.688  1.4889 -0.3872  0.2589
 1742TIP3   OH226716   3.077   4.915  13.762  0.2747 -0.5499  0.0442
 1742TIP3    H126717   3.015   4.941  13.830 -1.2293  1.4489 -1.9068
 1742TIP3    H226718   3.157   4.963  13.782  0.4910 -1.4473  1.4023
 1743TIP3   OH226719   0.784   3.885  15.815 -0.3026 -0.0920 -0.5873
 1743TIP3    H126720   0.810   3.958  15.872 -0.5856 -1.7234  1.8038
 1743TIP3    H226721   0.854   3.880  15.750  2.1307 -0.3874  1.8578
 1744TIP3   OH226722   3.160   6.324  11.842 -0.1207 -0.0639  0.3262
 1744TIP3    H126723   3.143   6.379  11.766  1.3512  2.6452  1.8011
 1744TIP3    H226724   3.229   6.370  11.890 -0.6145 -1.9098  3.0368
 1745TIP3   OH226725   5.645   4.522   5.181  0.1420 -0.3423  0.6161
 1745TIP3    H126726   5.639   4.522   5.277 -0.1852  2.3427  0.6772
 1745TIP3    H226727   5.729   4.565   5.162 -0.0263 -0.3926 -0.2993
 1746TIP3   OH226728   6.351   3.528   0.773  0.1592 -0.3260  0.1254
 1746TIP3    H126729   6.285   3.459   0.767  0.2339 -0.3428 -0.6211
 1746TIP3    H226730   6.308   3.605   0.734 -0.3229  0.3677  1.9395
 1747TIP3   OH226731   3.306   5.212   6.130 -0.9628  0.6734  0.2565
 1747TIP3    H126732   3.355   5.260   6.062 -1.3002  1.4238  0.5333
 1747TIP3    H226733   3.285   5.279   6.196  0.7812 -0.3328  1.9296
 1748TIP3   OH226734   6.157   4.800   1.004  0.1456 -0.1962 -0.0510
 1748TIP3    H126735   6.171   4.710   0.977  2.5717 -0.4674  1.7478
 1748TIP3    H226736   6.227   4.849   0.961  0.3461  0.3810  0.9071
 1749TIP3   OH226737   1.603   3.211  16.526 -0.2606 -0.6379 -0.3668
 1749TIP3    H126738   1.630   3.122  16.546 -1.4629 -1.4007 -1.8939
 1749TIP3    H226739   1.652   3.235  16.448  0.2922  0.1837  0.2130
 1750TIP3   OH226740   4.739   5.150   1.058 -0.1428 -0.0372  0.0744
 1750TIP3    H126741   4.744   5.245   1.066  0.7060  0.0488 -1.2332
 1750TIP3    H226742   4.648   5.129   1.081 -0.5218  1.1596 -0.2699
 1751TIP3   OH226743   3.235   3.381   0.080 -0.1477  0.0416 -0.0978
 1751TIP3    H126744   3.299   3.421   0.138 -0.1904  0.6470 -0.4573
 1751TIP3    H226745   3.163   3.443   0.077 -0.0902  0.0779 -0.8930
 1752TIP3   OH226746   5.898   6.648  16.801 -0.0259  0.1638 -0.0740
 1752TIP3    H126747   5.912   6.681  16.712 -1.3248  0.1585 -0.3028
 1752TIP3    H226748   5.806   6.667  16.819  0.4046  0.8500  1.5670
 1753TIP3   OH226749   4.913   0.615  12.763 -0.0719  0.3390 -0.2936
 1753TIP3    H126750   4.827   0.576  12.783  0.6083 -0.2594  1.7434
 1753TIP3    H226751   4.906   0.704  12.796  1.0239 -0.6246  2.9323
 1754TIP3   OH226752   0.661   6.392   5.647  0.3710 -0.1188  0.1076
 1754TIP3    H126753   0.587   6.368   5.703  0.8828 -3.5332 -0.4456
 1754TIP3    H226754   0.624   6.454   5.584 -1.7372 -0.8244  0.5596
 1755TIP3   OH226755   2.121   5.096   0.795 -0.1055 -0.0289  0.1949
 1755TIP3    H126756   2.185   5.091   0.723 -0.4102 -2.6406 -0.0043
 1755TIP3    H226757   2.043   5.132   0.754 -0.3896 -1.8123 -0.9582
 1756TIP3   OH226758   4.993   1.043   1.133  0.1816 -0.3065 -0.0706
 1756TIP3    H126759   4.943   1.085   1.203  0.3163 -2.0974  1.1661
 1756TIP3    H226760   4.957   1.080   1.052 -1.0506  0.6739  0.8842
 1757TIP3   OH226761   5.893   4.878  13.879  0.0620  0.1404  0.6508
 1757TIP3    H126762   5.860   4.965  13.901 -0.9896  0.2027 -0.9947
 1757TIP3    H226763   5.814   4.825  13.869  0.6749 -1.8634  4.4980
 1758TIP3   OH226764   5.567   2.687   1.241  0.6844  0.7049  0.7187
 1758TIP3    H126765   5.653   2.707   1.205  0.3556  0.4334 -0.2720
 1758TIP3    H226766   5.584   2.624   1.311  1.2793  0.5305  0.4268
 1759TIP3   OH226767   3.563   5.514   3.812  0.3204  0.4400 -0.1828
 1759TIP3    H126768   3.540   5.539   3.722 -0.5837  0.3527  0.0140
 1759TIP3    H226769   3.481   5.524   3.861  0.8555  0.6672  0.6739
 1760TIP3   OH226770   3.121   4.040   6.196  0.0216 -0.3065  0.0112
 1760TIP3    H126771   3.042   4.020   6.145  1.2887 -1.9953 -1.3939
 1760TIP3    H226772   3.118   3.980   6.270 -0.2423 -0.0276  0.2307
 1761TIP3   OH226773   5.265   4.794  11.124  0.1767  0.2753 -0.0046
 1761TIP3    H126774   5.198   4.862  11.123 -1.2671 -1.0311  1.0839
 1761TIP3    H226775   5.216   4.713  11.107  1.3731 -0.7899  1.3749
 1762TIP3   OH226776   6.649   0.799   3.185  0.1392  0.2169  0.0091
 1762TIP3    H126777   6.658   0.848   3.267  0.4930  1.3367 -0.6694
 1762TIP3    H226778   6.687   0.857   3.119 -1.2205 -0.1369 -1.1358
 1763TIP3   OH226779   5.977   4.272  17.523  0.1542 -0.1520 -0.2565
 1763TIP3    H126780   5.982   4.329  17.446 -0.2687 -0.5318 -0.5729
 1763TIP3    H226781   5.884   4.272  17.547  0.2732 -0.0950  0.2114
 1764TIP3   OH226782   1.512   3.397   0.982  0.4695  0.0071  0.2159
 1764TIP3    H126783   1.544   3.354   0.903  0.3116 -1.3887  0.8822
 1764TIP3    H226784   1.424   3.362   0.995 -0.1624  1.4702  0.1216
 1765TIP3   OH226785   0.073   1.743  11.511 -0.5490  0.0345  0.6568
 1765TIP3    H126786   0.070   1.664  11.457 -2.0765  0.6440 -0.1930
 1765TIP3    H226787   0.061   1.711  11.601 -0.3042 -0.7615  0.4146
 1766TIP3   OH226788   4.886   1.514  16.182 -0.4811 -0.6787  0.2803
 1766TIP3    H126789   4.915   1.479  16.098  0.4404  1.0547 -0.1633
 1766TIP3    H226790   4.951   1.481  16.245 -0.4005 -0.8787  0.0938
 1767TIP3   OH226791   0.486   5.926  14.961  0.3235  0.4438 -0.5967
 1767TIP3    H126792   0.485   5.971  15.046 -0.0117  0.1771 -0.4544
 1767TIP3    H226793   0.400   5.945  14.923  0.9194  1.5945 -1.4413
 1768TIP3   OH226794   2.910   0.824   3.822  0.5562  0.0368  0.3803
 1768TIP3    H126795   2.860   0.744   3.805  1.4161 -0.9451  2.1069
 1768TIP3    H226796   2.918   0.866   3.737 -0.2590 -1.5252 -0.5163
 1769TIP3   OH226797   2.518   6.630   4.480  0.4807  0.2827 -0.0847
 1769TIP3    H126798   2.577   6.569   4.436 -1.0661 -0.8066 -0.6905
 1769TIP3    H226799   2.551   6.633   4.570  2.7494  1.3852 -0.8584
 1770TIP3   OH226800   2.008   5.003   5.153  0.1847  0.6134  0.1981
 1770TIP3    H126801   2.073   4.971   5.090  0.7578  0.2406  0.9583
 1770TIP3    H226802   1.932   5.027   5.100 -1.3100 -4.2275 -0.3506
 1771TIP3   OH226803   2.434   4.954  12.105 -0.2636  0.0861 -0.1886
 1771TIP3    H126804   2.437   4.979  12.013  1.0425  0.3180 -0.1075
 1771TIP3    H226805   2.486   4.873  12.110  2.0066  1.4975  0.7165
 1772TIP3   OH226806   2.565   6.562  12.505  0.7438  0.7890  0.1830
 1772TIP3    H126807   2.571   6.657  12.511 -1.2292  0.9447  0.3249
 1772TIP3    H226808   2.521   6.536  12.586  0.0926 -0.1142 -0.4503
 1773TIP3   OH226809   2.643   5.859  11.436 -0.3259  0.0862 -0.0269
 1773TIP3    H126810   2.653   5.858  11.531  1.2525 -1.1882 -0.1632
 1773TIP3    H226811   2.551   5.883  11.422 -0.5826  0.3381  1.7985
 1774TIP3   OH226812   2.693   0.840   4.719  0.2621 -0.0638  0.4242
 1774TIP3    H126813   2.645   0.831   4.801  0.6471 -1.2496  0.5348
 1774TIP3    H226814   2.693   0.753   4.681  0.6370  0.3371 -0.5303
 1775TIP3   OH226815   2.183   1.379   5.028 -0.5475 -0.3534  0.2680
 1775TIP3    H126816   2.220   1.316   4.966  0.3079  0.4570 -0.0635
 1775TIP3    H226817   2.182   1.462   4.981 -2.5835 -0.2753  0.3534
 1776TIP3   OH226818   5.942   3.060  14.590  0.3560 -0.4274  0.0786
 1776TIP3    H126819   5.985   3.068  14.675  1.0564 -1.2335 -0.1751
 1776TIP3    H226820   6.015   3.057  14.527 -0.1305 -0.4329 -0.4906
 1777TIP3   OH226821   2.950   5.352  13.335 -0.4204  0.1551 -0.3784
 1777TIP3    H126822   2.986   5.332  13.249  3.6894 -1.3767  1.4273
 1777TIP3    H226823   2.913   5.269  13.365 -1.4920  0.5836 -0.4771
 1778TIP3   OH226824   5.072   4.720  15.085 -0.4823  0.2437  0.0448
 1778TIP3    H126825   5.048   4.696  14.996 -2.0701 -0.0521  0.5173
 1778TIP3    H226826   5.104   4.639  15.124 -0.0044  0.3206 -0.1862
 1779TIP3   OH226827   1.488   0.659   1.666  0.5874  0.8489  0.2644
 1779TIP3    H126828   1.507   0.620   1.752  0.9936 -1.2594 -0.7129
 1779TIP3    H226829   1.510   0.752   1.676 -0.0660  0.8155  2.6263
 1780TIP3   OH226830   5.817   1.571  14.200  0.1592  0.2872  0.9049
 1780TIP3    H126831   5.815   1.564  14.104 -0.7346  0.2152  0.9279
 1780TIP3    H226832   5.906   1.601  14.219  0.4698 -0.0617  0.0780
 1781TIP3   OH226833   1.636   5.383  11.835  0.1886  0.2446  0.7324
 1781TIP3    H126834   1.675   5.457  11.882  2.9149 -0.9259  0.5315
 1781TIP3    H226835   1.680   5.306  11.873  1.7027 -0.8420 -2.8387
 1782TIP3   OH226836   5.217   1.159   1.237 -0.7739 -0.0738  0.0137
 1782TIP3    H126837   5.134   1.116   1.217 -1.3076  1.1710 -0.4817
 1782TIP3    H226838   5.244   1.200   1.155 -0.4063  0.7528  0.5396
 1783TIP3   OH226839   1.688   4.754   1.166 -0.0490  0.1064 -0.3085
 1783TIP3    H126840   1.744   4.679   1.148 -0.4438 -0.0754 -0.8000
 1783TIP3    H226841   1.600   4.723   1.149 -0.2121  0.6880 -0.5562
 1784TIP3   OH226842   1.960   0.471   5.966 -0.0520 -0.2841 -0.1677
 1784TIP3    H126843   1.887   0.475   5.905 -0.6387 -1.4699  0.4375
 1784TIP3    H226844   1.979   0.378   5.976  2.0664 -0.0030 -0.9031
 1785TIP3   OH226845   2.260   5.236  15.638  0.1064 -0.0248  0.2410
 1785TIP3    H126846   2.253   5.190  15.722  1.1295 -1.3308 -0.3529
 1785TIP3    H226847   2.221   5.175  15.574  0.3885  0.4515 -0.3958
 1786TIP3   OH226848   1.824   4.210   3.374 -0.5621  0.3180  0.0687
 1786TIP3    H126849   1.753   4.167   3.421 -0.9299  1.1346  0.2920
 1786TIP3    H226850   1.902   4.194   3.427 -0.9421  1.0748  0.8682
 1787TIP3   OH226851   1.540   2.708  15.799 -0.6209 -0.3949 -0.2970
 1787TIP3    H126852   1.594   2.787  15.808  0.9768 -1.3912 -0.7932
 1787TIP3    H226853   1.456   2.741  15.768 -0.0056  1.1320 -0.4739
 1788TIP3   OH226854   6.185   4.513   3.807 -0.2009 -0.1875 -0.6872
 1788TIP3    H126855   6.242   4.474   3.873 -2.3863 -0.6235  1.0454
 1788TIP3    H226856   6.237   4.586   3.771  1.7184 -1.0369  0.2030
 1789TIP3   OH226857   3.238   1.202  11.198  0.2321  0.2106 -0.2901
 1789TIP3    H126858   3.172   1.134  11.184 -0.7586  1.2752 -0.9927
 1789TIP3    H226859   3.190   1.284  11.192  1.2444  0.9922  1.3982
 1790TIP3   OH226860   2.627   3.429  15.232  0.1291  0.3038 -0.2813
 1790TIP3    H126861   2.692   3.415  15.300 -0.9494 -0.7931  0.5724
 1790TIP3    H226862   2.608   3.523  15.235  1.9886  0.7414 -0.8953
 1791TIP3   OH226863   5.924   1.906   0.909  0.0854 -0.1097  0.1654
 1791TIP3    H126864   5.831   1.889   0.927  0.0372 -0.5223 -0.4407
 1791TIP3    H226865   5.942   1.988   0.954 -0.8498  0.5390 -0.5925
 1792TIP3   OH226866   4.890   0.782   4.778 -0.0319  0.1271  0.0360
 1792TIP3    H126867   4.848   0.797   4.863 -0.2369 -1.9678  0.3601
 1792TIP3    H226868   4.850   0.847   4.719 -0.8966  0.6923  1.2094
 1793TIP3   OH226869   0.501   0.292   5.493  0.0932  0.4000  0.1084
 1793TIP3    H126870   0.500   0.388   5.504  1.0249  0.5214 -0.7486
 1793TIP3    H226871   0.587   0.265   5.526  0.8621  0.1778 -1.9430
 1794TIP3   OH226872   0.350   1.659  10.968  0.2084  0.0357 -0.2999
 1794TIP3    H126873   0.286   1.596  10.935  0.0530  0.1243 -0.1704
 1794TIP3    H226874   0.418   1.662  10.900 -1.8213  2.8685 -2.4220
 1795TIP3   OH226875   4.532   1.291  16.977  0.0182  0.1760  0.0181
 1795TIP3    H126876   4.606   1.238  17.004  0.6659  1.6704  1.3615
 1795TIP3    H226877   4.544   1.304  16.883 -0.5714 -2.5606 -0.5299
 1796TIP3   OH226878   0.341   5.255  13.531 -0.7311  0.2386  0.4327
 1796TIP3    H126879   0.319   5.333  13.584 -3.4688 -0.4563  0.4528
 1796TIP3    H226880   0.376   5.193  13.595 -1.0386  0.5266  0.8934
 1797TIP3   OH226881   1.084   2.172  11.907 -0.5342 -0.8325  0.0781
 1797TIP3    H126882   1.072   2.228  11.830 -0.9040  0.5733  1.1246
 1797TIP3    H226883   1.065   2.229  11.982  1.6772 -1.6017  1.3284
 1798TIP3   OH226884   1.723   4.711   4.056 -0.6225 -0.2694 -0.0752
 1798TIP3    H126885   1.771   4.793   4.043  1.1753 -1.1659  0.5019
 1798TIP3    H226886   1.790   4.648   4.084 -2.1041 -1.7054  0.4329
 1799TIP3   OH226887   3.260   1.048  13.554  0.1368 -0.0668  0.0917
 1799TIP3    H126888   3.177   1.054  13.508 -0.4971 -0.1416  1.1754
 1799TIP3    H226889   3.327   1.051  13.486 -0.7727 -0.6043 -0.8430
 1800TIP3   OH226890   4.670   3.168  12.893 -0.2948 -0.1804  0.2203
 1800TIP3    H126891   4.679   3.263  12.887  0.2367 -0.1249  1.5282
 1800TIP3    H226892   4.760   3.135  12.895 -0.4533 -0.6021  1.0234
 1801TIP3   OH226893   5.768   0.207   2.327 -0.3109 -0.1688  0.5128
 1801TIP3    H126894   5.729   0.123   2.301  1.4414 -1.7474  2.6015
 1801TIP3    H226895   5.707   0.244   2.389 -1.9169  1.0300 -1.6415
 1802TIP3   OH226896   3.757   6.258  16.707  0.5479  0.2969 -0.1345
 1802TIP3    H126897   3.821   6.222  16.645  0.1971  1.6249 -1.3178
 1802TIP3    H226898   3.793   6.343  16.731  0.8204 -0.3136  1.7770
 1803TIP3   OH226899   1.741   0.347   5.802  0.0385  0.3966 -0.0901
 1803TIP3    H126900   1.786   0.272   5.841  0.0654  0.1648 -0.5589
 1803TIP3    H226901   1.707   0.314   5.718  0.1425  0.9355 -0.3509
 1804TIP3   OH226902   5.563   2.890   4.416 -0.7738  0.2330 -0.0392
 1804TIP3    H126903   5.641   2.837   4.403 -1.6493 -1.0382 -0.3604
 1804TIP3    H226904   5.535   2.914   4.327 -2.1795 -1.5458 -0.1406
 1805TIP3   OH226905   3.095   2.776  14.783 -0.1296 -0.1816 -0.0621
 1805TIP3    H126906   3.003   2.778  14.759 -0.0107 -0.6139 -0.5807
 1805TIP3    H226907   3.108   2.856  14.836 -0.8670 -0.2973  0.3097
 1806TIP3   OH226908   6.019   5.316  13.138  0.0291 -0.4869 -0.1635
 1806TIP3    H126909   6.055   5.330  13.050 -1.8340 -1.0210 -1.0783
 1806TIP3    H226910   6.055   5.388  13.191  0.6788  0.2308 -1.5238
 1807TIP3   OH226911   0.496   5.125   1.152 -0.1918  0.2968  0.3895
 1807TIP3    H126912   0.451   5.149   1.233  0.2777 -0.3571  0.8579
 1807TIP3    H226913   0.461   5.038   1.131 -0.5811  0.6200 -0.3129
 1808TIP3   OH226914   5.016   4.286  15.844  0.1096  0.7464  0.2711
 1808TIP3    H126915   5.022   4.201  15.800  3.0322  1.0109 -0.0201
 1808TIP3    H226916   4.932   4.322  15.816 -2.2400 -2.8135  1.9544
 1809TIP3   OH226917   1.484   5.569   1.144  0.4916 -0.1317  0.2531
 1809TIP3    H126918   1.470   5.539   1.234 -2.6425 -1.6137 -0.5720
 1809TIP3    H226919   1.451   5.659   1.143 -0.1586 -0.3644  0.4344
 1810TIP3   OH226920   2.070   5.279   3.914 -0.0444  0.9222  0.6989
 1810TIP3    H126921   2.104   5.357   3.957  1.8941  1.9123 -2.3548
 1810TIP3    H226922   1.977   5.298   3.901 -0.3353  1.2314  2.9267
 1811TIP3   OH226923   6.556   4.342   4.387  0.2316 -0.0915  0.5059
 1811TIP3    H126924   6.533   4.268   4.331 -0.9478  1.2329 -0.8498
 1811TIP3    H226925   6.580   4.302   4.471  1.6630 -2.1133 -0.7943
 1812TIP3   OH226926   3.987   4.294  14.373  0.7452  0.4850 -0.0715
 1812TIP3    H126927   3.918   4.335  14.425  0.7555  0.0441  0.2949
 1812TIP3    H226928   4.002   4.210  14.415  2.4354  1.1090  0.6744
 1813TIP3   OH226929   1.925   2.847  15.203  0.6270 -0.2647  0.1696
 1813TIP3    H126930   1.881   2.925  15.237  1.0942 -0.7350  1.9333
 1813TIP3    H226931   1.884   2.832  15.118 -1.5364  0.2210  1.0681
 1814TIP3   OH226932   1.962   4.265  12.802 -0.1206 -0.7121  0.1638
 1814TIP3    H126933   2.004   4.195  12.852 -1.9469 -0.9507  1.4879
 1814TIP3    H226934   1.874   4.232  12.784 -0.4695  0.5846 -0.6647
 1815TIP3   OH226935   4.492   6.165  16.764 -0.3800  0.4384 -0.3693
 1815TIP3    H126936   4.547   6.223  16.711  0.6616 -1.1955 -1.1626
 1815TIP3    H226937   4.447   6.110  16.700  0.2651 -1.0169  0.3847
 1816TIP3   OH226938   5.177   1.179   0.397 -0.4839  0.0064  0.0770
 1816TIP3    H126939   5.250   1.238   0.376 -0.3637 -0.4804 -0.9581
 1816TIP3    H226940   5.182   1.110   0.330 -0.0193 -1.7338  1.8006
 1817TIP3   OH226941   3.347   1.999   2.322 -0.2507  0.7648  0.5478
 1817TIP3    H126942   3.305   1.950   2.393  1.0362 -0.4763  0.5043
 1817TIP3    H226943   3.329   1.947   2.243  1.6299 -0.0315  0.5826
 1818TIP3   OH226944   6.409   5.747  15.509 -0.2694 -0.3883  0.0005
 1818TIP3    H126945   6.354   5.824  15.494 -2.7316 -1.5619  2.1167
 1818TIP3    H226946   6.427   5.748  15.603  1.5814 -1.2151 -0.3023
 1819TIP3   OH226947   2.451   3.419  15.455  0.0408 -0.0819  0.2984
 1819TIP3    H126948   2.481   3.425  15.364 -1.6427 -0.8838 -0.3536
 1819TIP3    H226949   2.523   3.375  15.501  0.2157 -1.2644 -1.0305
 1820TIP3   OH226950   2.502   1.521  15.775 -0.0152 -0.0936 -0.3795
 1820TIP3    H126951   2.553   1.464  15.833  0.9861 -1.6823 -2.6987
 1820TIP3    H226952   2.568   1.570  15.726 -0.8220  0.7507 -0.6514
 1821TIP3   OH226953   2.988   1.141   5.168 -0.0727 -0.0321 -0.3411
 1821TIP3    H126954   2.894   1.138   5.155 -0.2710  0.3501  0.8896
 1821TIP3    H226955   3.023   1.069   5.115 -1.1273 -0.7090 -0.1290
 1822TIP3   OH226956   1.063   3.546   2.013 -0.1127 -0.0199  0.1596
 1822TIP3    H126957   0.988   3.603   1.994 -0.4159 -1.0057 -1.8563
 1822TIP3    H226958   1.133   3.577   1.956 -0.0861 -1.2336 -0.4978
 1823TIP3   OH226959   3.387   6.377  13.173 -0.2546  0.0538  0.0832
 1823TIP3    H126960   3.293   6.387  13.188 -0.3637 -1.1381  0.2746
 1823TIP3    H226961   3.423   6.362  13.261  0.0193 -0.1915 -0.0713
 1824TIP3   OH226962   3.398   1.535  17.298 -0.4207 -0.5242 -0.2904
 1824TIP3    H126963   3.401   1.511  17.206 -0.2916 -2.1828  0.1166
 1824TIP3    H226964   3.480   1.503  17.335 -1.5714 -2.3662  0.9075
 1825TIP3   OH226965   4.581   2.874   4.348  0.2108 -0.0140 -0.0178
 1825TIP3    H126966   4.669   2.837   4.342  1.2021  1.8052  2.1690
 1825TIP3    H226967   4.528   2.803   4.384  1.8686  0.2390  3.2265
 1826TIP3   OH226968   5.396   1.601  16.575 -0.0456 -0.4663  0.6141
 1826TIP3    H126969   5.458   1.603  16.502 -0.4371 -1.3175  0.2505
 1826TIP3    H226970   5.367   1.692  16.584 -1.0432 -0.5438 -1.2234
 1827TIP3   OH226971   5.107   0.417  12.361 -0.3926 -0.2575  0.1376
 1827TIP3    H126972   5.040   0.478  12.393  0.7024  0.9424  0.2373
 1827TIP3    H226973   5.156   0.393  12.440  0.2308  0.0677 -0.1512
 1828TIP3   OH226974   1.731   1.540  14.321 -0.5347  0.1019  0.2020
 1828TIP3    H126975   1.738   1.557  14.415 -1.5802  1.4855  0.0698
 1828TIP3    H226976   1.681   1.458  14.315 -1.4171  0.5712  0.8598
 1829TIP3   OH226977   0.098   5.251   2.427 -0.1849 -0.9615  0.3903
 1829TIP3    H126978   0.091   5.294   2.512  1.8552 -2.1652  1.2406
 1829TIP3    H226979   0.012   5.263   2.387 -0.3705  1.9947  1.4308
 1830TIP3   OH226980   6.543   0.650   4.881 -0.0239 -0.3139  0.1221
 1830TIP3    H126981   6.627   0.610   4.855  0.2465  0.0072  0.4929
 1830TIP3    H226982   6.568   0.725   4.934 -0.5281  0.4232 -0.6675
 1831TIP3   OH226983   1.422   3.416  16.604 -0.5090 -0.0493 -0.2153
 1831TIP3    H126984   1.470   3.487  16.562 -1.1836  0.5246 -0.0365
 1831TIP3    H226985   1.480   3.340  16.597  0.6106  0.7257  0.4079
 1832TIP3   OH226986   6.464   3.096  15.985  0.6481  0.3537  0.6368
 1832TIP3    H126987   6.531   3.065  16.045 -0.5610  0.9660  2.3829
 1832TIP3    H226988   6.508   3.163  15.932  1.1355  1.7245  2.6639
 1833TIP3   OH226989   2.350   2.110   4.234  0.0396  0.8546 -0.4083
 1833TIP3    H126990   2.420   2.126   4.171  1.1453 -0.4763  0.4557
 1833TIP3    H226991   2.296   2.189   4.230  0.4834  1.1064 -2.4823
 1834TIP3   OH226992   3.366   2.753   6.277 -0.3691  0.1706  0.2749
 1834TIP3    H126993   3.374   2.662   6.305 -1.3433 -0.5798 -1.7167
 1834TIP3    H226994   3.427   2.801   6.334  0.1175 -1.6969  1.4064
 1835TIP3   OH226995   3.265   2.754  14.558  0.1478  0.2232  0.1025
 1835TIP3    H126996   3.189   2.744  14.616 -0.0891 -0.7725 -0.3647
 1835TIP3    H226997   3.339   2.762  14.618 -0.2925  1.0134  0.5584
 1836TIP3   OH226998   6.577   2.631   1.780 -0.2414  0.0286 -0.3194
 1836TIP3    H126999   6.635   2.659   1.709 -0.8764  1.5518 -0.2710
 1836TIP3    H227000   6.637   2.608   1.851  0.3617 -0.2229 -0.8921
 1837TIP3   OH227001   1.097   5.729   4.883  0.2578  0.3190  0.3074
 1837TIP3    H127002   1.174   5.746   4.937  0.8533  0.8109 -0.6540
 1837TIP3    H227003   1.131   5.727   4.793 -0.7749  0.0292 -0.0950
 1838TIP3   OH227004   2.518   5.189  12.748 -0.0979 -0.7130  0.0568
 1838TIP3    H127005   2.529   5.141  12.666 -1.6090  0.3255 -0.8022
 1838TIP3    H227006   2.423   5.195  12.760  0.0859  0.0319  1.3633
 1839TIP3   OH227007   2.097   0.320  15.194  0.0815  0.2054  0.4467
 1839TIP3    H127008   2.140   0.237  15.173 -1.8797 -0.6228 -0.5151
 1839TIP3    H227009   2.164   0.370  15.241  1.5881 -1.5747  0.3175
 1840TIP3   OH227010   6.259   6.202   4.948  0.0094 -0.1165  0.4049
 1840TIP3    H127011   6.210   6.195   5.030 -1.1955 -0.4017 -0.3050
 1840TIP3    H227012   6.192   6.192   4.880  0.8971  0.6545 -0.6163
 1841TIP3   OH227013   3.301   2.776   3.991  0.7797 -0.0875 -0.4292
 1841TIP3    H127014   3.378   2.719   3.982  1.7580  1.2763 -0.9768
 1841TIP3    H227015   3.334   2.864   3.974 -1.1389  0.4290 -1.8221
 1842TIP3   OH227016   4.953   1.764  11.910  0.4840  0.3418 -0.3639
 1842TIP3    H127017   4.892   1.702  11.950 -0.9435  1.4633 -0.7175
 1842TIP3    H227018   4.941   1.844  11.961  1.0267  0.8283 -1.0009
 1843TIP3   OH227019   3.971   6.326   0.988  0.1451 -0.0431 -0.5570
 1843TIP3    H127020   3.899   6.309   0.927 -0.1654  0.8571 -0.4598
 1843TIP3    H227021   3.957   6.264   1.059 -0.9190  0.5353 -0.2313
 1844TIP3   OH227022   3.017   2.442  12.509 -0.0254  0.6055  0.2385
 1844TIP3    H127023   2.964   2.362  12.504  0.9959 -0.0259 -0.9451
 1844TIP3    H227024   2.953   2.511  12.529 -0.7309 -0.6599  2.8965
 1845TIP3   OH227025   4.014   1.737   0.268 -0.4507 -0.5307  0.3009
 1845TIP3    H127026   4.009   1.727   0.173  2.7505  1.4529 -0.2151
 1845TIP3    H227027   3.938   1.792   0.289  0.6124  1.8928 -1.6961
 1846TIP3   OH227028   6.263   2.550   4.712 -0.2129 -0.5056  0.0115
 1846TIP3    H127029   6.181   2.575   4.670 -0.0429  0.7408  0.3899
 1846TIP3    H227030   6.331   2.572   4.649  0.0366  1.2905  0.8538
 1847TIP3   OH227031   3.578   3.360   3.262  0.0310 -0.1008 -0.1123
 1847TIP3    H127032   3.545   3.364   3.352  2.1634  1.0640  0.6974
 1847TIP3    H227033   3.562   3.448   3.227 -0.1022 -0.3226 -0.6126
 1848TIP3   OH227034   3.374   3.794  14.458  0.1791 -0.2713 -0.2569
 1848TIP3    H127035   3.419   3.709  14.459  1.4870  0.4090  0.9676
 1848TIP3    H227036   3.430   3.850  14.404  0.2108  0.2764  0.3390
 1849TIP3   OH227037   4.101   1.160   5.982 -0.1446 -0.9306  0.5785
 1849TIP3    H127038   4.179   1.127   6.025  0.7780  1.2351  0.6549
 1849TIP3    H227039   4.030   1.145   6.045  0.3130 -2.2011  0.8155
 1850TIP3   OH227040   6.301   4.986   2.950  0.6763  0.1971  0.0400
 1850TIP3    H127041   6.352   5.028   2.881  1.5866  0.7315  1.0217
 1850TIP3    H227042   6.346   4.902   2.964  0.1702 -0.1529 -0.3721
 1851TIP3   OH227043   6.070   0.459   4.914 -0.1596 -0.2523  0.2476
 1851TIP3    H127044   6.164   0.472   4.922 -0.1514 -0.4289  0.4541
 1851TIP3    H227045   6.056   0.368   4.942 -0.2079 -0.7009 -1.1398
 1852TIP3   OH227046   4.773   5.904  14.295  0.1275 -0.3950  0.5788
 1852TIP3    H127047   4.739   5.972  14.238 -1.5458  0.5928  2.6191
 1852TIP3    H227048   4.812   5.951  14.369  1.1333 -1.6342  0.8888
 1853TIP3   OH227049   5.396   5.109   1.212  0.3662  0.3635  0.0110
 1853TIP3    H127050   5.378   5.032   1.266  0.8648 -0.2723 -0.7013
 1853TIP3    H227051   5.318   5.118   1.157  0.7214 -0.2597 -0.6133
 1854TIP3   OH227052   2.289   0.891  12.648 -0.1505  0.3404  0.1225
 1854TIP3    H127053   2.347   0.954  12.691 -0.6275 -0.4224  1.9639
 1854TIP3    H227054   2.225   0.866  12.715 -3.7755  2.4088 -2.2217
 1855TIP3   OH227055   6.076   0.039   5.011 -0.4045 -0.3144  0.3500
 1855TIP3    H127056   6.120   0.108   4.962 -3.2189  0.1122 -1.8995
 1855TIP3    H227057   6.083   0.066   5.103  3.2931 -0.0396  0.1374
 1856TIP3   OH227058   3.972   0.484   6.646  0.4576  0.5472  0.9104
 1856TIP3    H127059   3.876   0.490   6.645  0.4409  0.2601 -0.3529
 1856TIP3    H227060   3.992   0.411   6.588  1.4927  1.4319  0.1215
 1857TIP3   OH227061   4.967   4.092  11.597 -0.0353  0.1007  0.3186
 1857TIP3    H127062   5.004   4.079  11.684 -0.1049  0.0888  0.3470
 1857TIP3    H227063   4.928   4.007  11.576  0.1795  0.0366  0.1803
 1858TIP3   OH227064   5.649   1.456   3.099 -0.5114  0.4781  0.4655
 1858TIP3    H127065   5.675   1.533   3.048 -0.1417  0.5190  0.7137
 1858TIP3    H227066   5.608   1.398   3.035  0.4780  0.2717  0.0015
 1859TIP3   OH227067   1.076   3.217  17.295  0.1402  0.5209 -0.4617
 1859TIP3    H127068   1.006   3.279  17.275  0.1595  0.3734 -0.9968
 1859TIP3    H227069   1.090   3.227  17.389 -0.3223  0.8396 -0.4221
 1860TIP3   OH227070   1.831   3.041  17.589 -0.3428 -0.1439 -0.0717
 1860TIP3    H127071   1.819   3.031  17.495 -0.1370  2.1785 -0.3837
 1860TIP3    H227072   1.925   3.027  17.603 -0.2899  0.0013 -0.2839
 1861TIP3   OH227073   3.489   5.537   5.656 -0.4216 -0.3790 -0.4768
 1861TIP3    H127074   3.411   5.486   5.637 -1.4888  1.2244 -0.5728
 1861TIP3    H227075   3.488   5.548   5.751 -0.5631  0.0192 -0.5234
 1862TIP3   OH227076   5.650   2.799  13.484  0.1895 -0.1618  0.6375
 1862TIP3    H127077   5.597   2.756  13.552  0.1573  0.1762  0.8277
 1862TIP3    H227078   5.741   2.785  13.513  0.2002 -0.5580  0.4224
 1863TIP3   OH227079   3.007   2.694   6.575  0.4165 -0.6601 -0.0818
 1863TIP3    H127080   2.980   2.603   6.587  2.3191 -0.9442  2.9172
 1863TIP3    H227081   2.970   2.740   6.650  3.3714  0.0144  1.0809
 1864TIP3   OH227082   5.527   6.351   3.985 -0.4881  0.6209  0.1590
 1864TIP3    H127083   5.504   6.415   4.053 -0.2805  1.5634 -0.6340
 1864TIP3    H227084   5.443   6.313   3.960 -0.5594  0.1911  0.9958
 1865TIP3   OH227085   0.767   4.471  13.771  0.6954  0.3481  0.4700
 1865TIP3    H127086   0.721   4.489  13.689  0.9833 -1.4226 -0.1215
 1865TIP3    H227087   0.852   4.515  13.761  0.1311  1.5063  0.5309
 1866TIP3   OH227088   1.786   1.649   2.045 -0.5750  0.2369 -0.5019
 1866TIP3    H127089   1.732   1.694   1.980  0.8355 -0.6765 -2.4323
 1866TIP3    H227090   1.726   1.588   2.088 -1.6217  1.0962 -0.7140
 1867TIP3   OH227091   3.418   0.893  15.260 -0.1998 -0.1424 -0.6266
 1867TIP3    H127092   3.389   0.842  15.335 -1.1432 -1.0531 -1.5759
 1867TIP3    H227093   3.501   0.852  15.234  1.6574  1.9438  1.5827
 1868TIP3   OH227094   1.021   6.210  10.423  0.7850  0.0832  0.0075
 1868TIP3    H127095   1.033   6.283  10.362  0.5226 -1.1439 -1.5920
 1868TIP3    H227096   1.078   6.141  10.389  0.0923 -0.8732  0.7465
 1869TIP3   OH227097   6.169   4.628   2.842  0.0970  0.2485 -0.1776
 1869TIP3    H127098   6.169   4.587   2.929  1.4843  0.4466 -0.0582
 1869TIP3    H227099   6.080   4.661   2.831 -0.6612 -1.4947  0.3361
 1870TIP3   OH227100   3.428   6.549   1.094 -0.3025 -0.1505 -0.1420
 1870TIP3    H127101   3.479   6.515   1.167 -1.9964 -0.1875  1.0564
 1870TIP3    H227102   3.404   6.638   1.121  1.0318  0.7602 -1.7039
 1871TIP3   OH227103   6.478   2.902   5.332  0.2560  0.4053 -0.4091
 1871TIP3    H127104   6.470   2.959   5.256  0.2643  0.6243 -0.2478
 1871TIP3    H227105   6.526   2.955   5.396 -1.9372  1.1765  0.6928
 1872TIP3   OH227106   5.129   1.824  12.251  0.3100 -0.3177  0.1970
 1872TIP3    H127107   5.070   1.863  12.187  1.2830 -1.1229 -1.2545
 1872TIP3    H227108   5.075   1.811  12.329 -0.3727  2.7273  0.3667
 1873TIP3   OH227109   6.402   3.109  14.678 -0.4512 -0.2228 -0.0985
 1873TIP3    H127110   6.474   3.081  14.623  0.7521  0.8051  0.8715
 1873TIP3    H227111   6.414   3.204  14.686 -0.7051 -0.3061  1.7064
 1874TIP3   OH227112   0.781   5.454   6.985 -0.4751  0.3281 -0.3882
 1874TIP3    H127113   0.833   5.475   6.907  0.8854  0.8524  0.6229
 1874TIP3    H227114   0.765   5.538   7.027 -1.1276  0.0446 -0.0594
 1875TIP3   OH227115   5.311   5.795   0.797 -0.1528  0.1770  0.3483
 1875TIP3    H127116   5.402   5.804   0.826 -0.3712  0.6522  0.9144
 1875TIP3    H227117   5.316   5.739   0.720  1.0492  3.2941 -2.0520
 1876TIP3   OH227118   2.962   0.096  13.519  0.3876  0.2943 -0.1362
 1876TIP3    H127119   2.953   0.107  13.614 -0.3327  2.4947 -0.4025
 1876TIP3    H227120   3.047   0.134  13.498 -0.2323  1.5032 -0.5583
 1877TIP3   OH227121   3.339   5.356  17.392  0.4854  0.1106  0.1993
 1877TIP3    H127122   3.379   5.436  17.359 -0.5881  0.5546 -0.0856
 1877TIP3    H227123   3.323   5.303  17.314 -1.2784  0.8004  0.0474
 1878TIP3   OH227124   0.036   6.210   5.811  0.0281  0.0887 -0.4121
 1878TIP3    H127125  -0.007   6.226   5.895 -0.0178  1.1926 -0.6337
 1878TIP3    H227126   0.027   6.292   5.763  0.5318 -0.3528 -1.2924
 1879TIP3   OH227127   4.375   6.585  17.625 -0.1950 -0.2971 -0.0382
 1879TIP3    H127128   4.321   6.662  17.637  0.2837 -0.1719  1.6346
 1879TIP3    H227129   4.377   6.543  17.711 -1.1654 -2.6866 -1.0830
 1880TIP3   OH227130   4.996   5.618  14.570 -0.4808 -0.4411 -0.8175
 1880TIP3    H127131   5.090   5.629  14.583 -0.5824 -1.0918  0.5714
 1880TIP3    H227132   4.980   5.525  14.587 -1.1451 -0.6963 -2.6292
 1881TIP3   OH227133   1.672   3.342   0.770 -0.0507 -0.3167 -0.0701
 1881TIP3    H127134   1.647   3.265   0.720 -2.0222  0.1451  0.1447
 1881TIP3    H227135   1.691   3.409   0.703  3.7396 -1.4268 -0.3709
 1882TIP3   OH227136   3.407   0.607   5.338  0.2903 -1.1535  0.7327
 1882TIP3    H127137   3.430   0.515   5.322 -0.3783 -1.5225  1.7698
 1882TIP3    H227138   3.486   0.645   5.377  1.2574 -0.7399 -1.5023
 1883TIP3   OH227139   3.833   1.862   2.223 -0.0967 -0.1628  0.8670
 1883TIP3    H127140   3.857   1.776   2.255  0.0094 -1.0376 -1.3511
 1883TIP3    H227141   3.742   1.852   2.193 -0.0739  0.4878  0.5484
 1884TIP3   OH227142   2.944   3.116   5.709 -0.0719 -0.3209 -0.0643
 1884TIP3    H127143   3.013   3.149   5.766  0.8446  0.6609 -1.6715
 1884TIP3    H227144   2.950   3.170   5.631 -2.5936 -0.3061 -0.3193
 1885TIP3   OH227145   5.979   3.478   3.285  0.1533  0.2717 -0.4125
 1885TIP3    H127146   5.980   3.573   3.275  3.1220  0.9395  3.6429
 1885TIP3    H227147   5.915   3.461   3.353 -0.2542 -0.6586 -1.0049
 1886TIP3   OH227148   0.561   6.386   1.016  0.2904 -0.2880  0.2125
 1886TIP3    H127149   0.517   6.380   0.931  1.0492 -1.2092 -0.1296
 1886TIP3    H227150   0.654   6.384   0.996  0.4806 -0.3558  1.0573
 1887TIP3   OH227151   3.052   3.189   2.232 -0.8206  0.1716  0.5456
 1887TIP3    H127152   2.982   3.162   2.172  0.2420 -0.5232 -0.4151
 1887TIP3    H227153   3.036   3.283   2.247 -1.9441  0.0240  0.3494
 1888TIP3   OH227154   3.818   3.199  14.197 -0.2222 -0.2270  0.0632
 1888TIP3    H127155   3.864   3.240  14.271  0.3764 -0.1738 -0.3296
 1888TIP3    H227156   3.871   3.222  14.121 -0.2915 -1.0910 -0.2578
 1889TIP3   OH227157   3.963   1.725   1.186  0.9017 -0.4774 -0.4360
 1889TIP3    H127158   4.040   1.778   1.207  0.1097  0.2361  0.7935
 1889TIP3    H227159   3.889   1.785   1.196 -0.0859 -1.9070  1.6078
 1890TIP3   OH227160   5.051   0.074  13.147  0.2082  0.8870  0.1632
 1890TIP3    H127161   5.013   0.040  13.066  0.1394  0.6026  0.3167
 1890TIP3    H227162   5.001   0.032  13.217  1.6254 -0.4706  0.3996
 1891TIP3   OH227163   1.541   6.470  13.199  0.0164 -0.1859 -0.3801
 1891TIP3    H127164   1.549   6.394  13.141 -2.2689  0.1690 -1.2689
 1891TIP3    H227165   1.540   6.545  13.139  1.5131  0.5302  0.4327
 1892TIP3   OH227166   3.053   1.566  12.001  0.2362 -0.3296  0.4638
 1892TIP3    H127167   3.024   1.537  11.914  1.8691  1.4098 -0.7490
 1892TIP3    H227168   2.974   1.598  12.043 -1.0217 -3.2777  0.6036
 1893TIP3   OH227169   6.081   1.769   4.513 -0.4114  0.4931  0.0606
 1893TIP3    H127170   6.134   1.842   4.542  1.0148 -0.6758  0.4909
 1893TIP3    H227171   5.999   1.777   4.563 -0.9162  2.5978 -0.9903
 1894TIP3   OH227172   0.215   2.141   4.776 -0.1977 -0.3086 -0.3907
 1894TIP3    H127173   0.183   2.231   4.785  0.7540  0.1053 -0.9950
 1894TIP3    H227174   0.310   2.149   4.769 -0.2423 -1.0684 -3.4339
 1895TIP3   OH227175   0.142   6.546   0.852  0.0750  0.3735 -0.0056
 1895TIP3    H127176   0.138   6.641   0.863  1.6013  0.5497 -0.6241
 1895TIP3    H227177   0.171   6.513   0.937 -0.1750  0.4891  0.1251
 1896TIP3   OH227178   1.457   5.093   1.487  0.1035  0.6650 -0.0884
 1896TIP3    H127179   1.477   5.023   1.426 -0.1408 -0.2013  0.8089
 1896TIP3    H227180   1.417   5.162   1.433  1.8207  0.8186 -1.2600
 1897TIP3   OH227181   5.732   3.316  17.066  0.3188  0.1560  0.1076
 1897TIP3    H127182   5.793   3.382  17.100  1.8923 -0.6925 -0.9421
 1897TIP3    H227183   5.720   3.254  17.138 -0.0829  0.8301  0.6350
 1898TIP3   OH227184   3.914   0.233  11.468 -0.2795 -0.0558  0.0979
 1898TIP3    H127185   3.879   0.316  11.499 -2.1401 -0.6467 -0.2573
 1898TIP3    H227186   4.004   0.252  11.444  0.4350  1.0888  3.1363
 1899TIP3   OH227187   4.061   5.987  11.517 -0.5268  0.2881  0.1763
 1899TIP3    H127188   4.023   5.981  11.605 -1.1558  0.5832 -0.0745
 1899TIP3    H227189   4.082   6.079  11.506 -0.2825  0.2229  0.0779
 1900TIP3   OH227190   0.189   4.541   5.577  0.4246 -0.0084 -0.1479
 1900TIP3    H127191   0.143   4.605   5.631  1.6289  1.1326 -0.4189
 1900TIP3    H227192   0.278   4.576   5.569  0.8047 -1.1422 -1.2542
 1901TIP3   OH227193   0.168   3.669  17.185  0.5448  0.8015 -0.3711
 1901TIP3    H127194   0.264   3.670  17.187  0.5961  2.5955  2.5252
 1901TIP3    H227195   0.146   3.676  17.092  3.2702  3.0298 -0.9994
 1902TIP3   OH227196   0.778   5.267   4.659 -0.2563  0.0862 -0.2365
 1902TIP3    H127197   0.709   5.238   4.718  0.6854  0.6809  1.2211
 1902TIP3    H227198   0.763   5.362   4.650  0.2038  0.1712 -0.1305
 1903TIP3   OH227199   3.265   5.951  16.011  0.0613 -0.4472  0.7328
 1903TIP3    H127200   3.238   5.979  15.923  0.5504  1.1074  1.0351
 1903TIP3    H227201   3.340   6.007  16.032 -0.9034  0.2105  2.6813
 1904TIP3   OH227202   1.513   4.412   1.642 -0.2224  0.0290  0.1734
 1904TIP3    H127203   1.584   4.440   1.700  0.5366  1.3888 -1.3457
 1904TIP3    H227204   1.536   4.322   1.619  1.4909  0.6876 -0.9113
 1905TIP3   OH227205   1.175   4.912   3.046  0.0668 -0.0089  0.3021
 1905TIP3    H127206   1.113   4.907   2.974 -1.0273  0.1420  1.2146
 1905TIP3    H227207   1.191   5.006   3.057  0.1828 -0.0280  0.3017
 1906TIP3   OH227208   2.625   1.045   4.134 -0.0570  0.3234 -0.0847
 1906TIP3    H127209   2.532   1.035   4.157  0.7215 -0.9563  3.0643
 1906TIP3    H227210   2.642   0.974   4.072 -0.5670 -1.4920  1.7326
 1907TIP3   OH227211   1.601   2.715  14.497 -0.0458 -0.5197  0.3637
 1907TIP3    H127212   1.516   2.683  14.468 -1.1348 -1.3829  3.9776
 1907TIP3    H227213   1.663   2.646  14.471 -1.0688 -1.6588  0.8473
 1908TIP3   OH227214   4.760   1.771  13.947  0.0233 -0.1101  0.1390
 1908TIP3    H127215   4.848   1.738  13.961  0.3871  1.3854  1.5958
 1908TIP3    H227216   4.703   1.703  13.983  0.6769 -0.1152  1.2138
 1909TIP3   OH227217   5.855   6.118   5.285  0.4665 -0.1508  0.2730
 1909TIP3    H127218   5.788   6.123   5.217 -0.0362  1.5515  0.8473
 1909TIP3    H227219   5.832   6.040   5.336 -1.0670  0.3884  0.4393
 1910TIP3   OH227220   0.548   6.570  14.815 -0.0935  0.2380 -0.0369
 1910TIP3    H127221   0.554   6.620  14.733  1.1769  2.8500  1.5247
 1910TIP3    H227222   0.637   6.567  14.849 -0.2839 -2.3751  0.4578
 1911TIP3   OH227223   4.443   0.933   1.936 -0.0067 -0.1328  0.0011
 1911TIP3    H127224   4.424   0.974   1.852 -0.8264 -0.4148  0.0367
 1911TIP3    H227225   4.478   1.004   1.990 -1.1848  0.4810 -0.0085
 1912TIP3   OH227226   3.994   0.339  13.769  0.0647  0.0592  0.1532
 1912TIP3    H127227   4.041   0.264  13.733  1.3569  1.5017 -1.3497
 1912TIP3    H227228   3.951   0.379  13.694 -0.6827  0.7728  0.9357
 1913TIP3   OH227229   4.343   4.939   4.739  0.6124 -0.1452  0.0317
 1913TIP3    H127230   4.404   4.899   4.801  0.4344 -0.9067 -0.2720
 1913TIP3    H227231   4.273   4.975   4.793  0.9024 -0.0186  0.3249
 1914TIP3   OH227232   3.605   5.066  17.164 -1.0287 -0.5219 -0.4895
 1914TIP3    H127233   3.628   5.029  17.079 -1.1346 -0.0970 -0.7035
 1914TIP3    H227234   3.626   5.159  17.157 -0.9364 -0.5038 -0.0137
 1915TIP3   OH227235   6.484   0.815  12.603 -0.1067  0.2253  0.2032
 1915TIP3    H127236   6.405   0.764  12.619 -0.0528  0.2909  0.6777
 1915TIP3    H227237   6.487   0.824  12.508  1.0171 -2.4670 -0.1188
 1916TIP3   OH227238   0.719   3.129   6.214 -0.7386  0.1077 -0.1865
 1916TIP3    H127239   0.672   3.071   6.274 -2.0877  0.1429 -1.1567
 1916TIP3    H227240   0.810   3.120   6.239 -1.0468 -1.4680  0.5224
 1917TIP3   OH227241   6.599   6.413  11.728 -0.3415 -0.6811 -0.0303
 1917TIP3    H127242   6.683   6.369  11.715 -0.3855 -0.7026 -0.2498
 1917TIP3    H227243   6.621   6.494  11.772 -0.2236 -0.7688  0.0727
 1918TIP3   OH227244   3.356   0.429  10.966  0.1284  0.1793 -0.1600
 1918TIP3    H127245   3.402   0.508  10.993  0.5932  0.0773 -0.6145
 1918TIP3    H227246   3.368   0.368  11.039  1.3234 -0.0790 -0.5450
 1919TIP3   OH227247   0.851   2.803  16.535  0.8663 -0.3241  0.5780
 1919TIP3    H127248   0.856   2.898  16.542  1.1935 -0.3193  0.2854
 1919TIP3    H227249   0.758   2.786  16.515  0.8256 -0.0592  0.5359
 1920TIP3   OH227250   4.707   3.032   6.425  0.0190  0.5074 -0.0584
 1920TIP3    H127251   4.652   2.973   6.477  0.1354 -0.5611 -1.0896
 1920TIP3    H227252   4.796   3.004   6.444  0.0303 -1.1021 -2.0944
 1921TIP3   OH227253   5.830   4.673  15.197 -0.4019 -0.3966  0.2730
 1921TIP3    H127254   5.923   4.686  15.218 -0.3194 -0.8569  0.1883
 1921TIP3    H227255   5.791   4.640  15.278 -0.4176 -0.5710  0.1928
 1922TIP3   OH227256   4.192   0.448   4.403 -0.7486  0.1221 -0.2779
 1922TIP3    H127257   4.146   0.448   4.487 -1.1098 -0.5467 -0.4702
 1922TIP3    H227258   4.262   0.513   4.414  0.5261 -1.4117  1.2650
 1923TIP3   OH227259   3.549   6.115   5.943  0.3836 -0.1844  0.3762
 1923TIP3    H127260   3.580   6.070   5.865 -0.0366  0.0659  0.0638
 1923TIP3    H227261   3.477   6.171   5.913  0.5179  0.2617  0.8615
 1924TIP3   OH227262   0.912   3.578  15.455  0.1144  0.3236  0.0056
 1924TIP3    H127263   0.897   3.672  15.449 -1.4681  0.2379  1.6114
 1924TIP3    H227264   0.872   3.553  15.539  4.0685 -1.1139  1.7115
 1925TIP3   OH227265   4.933   5.269   5.025 -0.2236 -0.1863 -0.4033
 1925TIP3    H127266   4.840   5.283   5.007 -0.2102  1.2614  0.4634
 1925TIP3    H227267   4.936   5.247   5.118  0.2689 -0.7758 -0.5507
 1926TIP3   OH227268   1.909   2.674   1.314  0.1932  0.0775  0.2320
 1926TIP3    H127269   1.932   2.670   1.406  0.4242  0.7584  0.2093
 1926TIP3    H227270   1.816   2.698   1.313  0.0807 -0.3545  0.2924
 1927TIP3   OH227271   2.941   3.575  13.247 -0.1157 -0.0906 -1.0831
 1927TIP3    H127272   2.910   3.664  13.232 -1.2966 -0.5448 -1.4583
 1927TIP3    H227273   2.886   3.542  13.318 -0.0624 -0.7088 -1.3238
 1928TIP3   OH227274   3.362   2.261   5.030 -0.1571 -0.2495  0.2453
 1928TIP3    H127275   3.437   2.251   4.971 -1.0118 -0.4952 -0.8271
 1928TIP3    H227276   3.366   2.184   5.087 -0.0738 -0.7107 -0.3718
 1929TIP3   OH227277   3.682   3.791   5.475 -0.7761  0.2355  0.1674
 1929TIP3    H127278   3.773   3.800   5.448 -0.8942  0.8175 -0.0556
 1929TIP3    H227279   3.632   3.831   5.404 -1.2287 -0.3689  0.1299
 1930TIP3   OH227280   0.224   6.525  17.221 -0.2275  0.0441  0.4439
 1930TIP3    H127281   0.253   6.441  17.255 -2.1478  0.0129  2.2175
 1930TIP3    H227282   0.262   6.590  17.281  2.0350  0.6229 -1.4524
 1931TIP3   OH227283   1.610   0.808  14.281 -0.6977 -0.0125  0.4388
 1931TIP3    H127284   1.683   0.748  14.269 -0.9860 -0.6545  1.6589
 1931TIP3    H227285   1.650   0.894  14.286 -0.3754  0.0815 -2.4298
 1932TIP3   OH227286   6.528   6.227   2.728 -0.1893 -0.0160 -0.0885
 1932TIP3    H127287   6.571   6.260   2.807 -0.7418 -3.1878  1.7143
 1932TIP3    H227288   6.592   6.167   2.689 -0.9072 -0.5035 -0.5322
 1933TIP3   OH227289   6.421   2.598   3.476 -0.3955  0.0873  0.1794
 1933TIP3    H127290   6.326   2.614   3.481 -0.2885  0.9265 -0.3290
 1933TIP3    H227291   6.456   2.641   3.554 -0.5359 -1.2525  1.0329
 1934TIP3   OH227292   4.530   5.023   2.587 -0.0052 -0.3251  0.8841
 1934TIP3    H127293   4.592   4.950   2.592  0.2352 -0.1542  0.4303
 1934TIP3    H227294   4.583   5.100   2.605 -0.7005 -0.4358  3.8840
 1935TIP3   OH227295   6.574   5.309  12.740  0.0669 -0.0740 -0.1104
 1935TIP3    H127296   6.541   5.232  12.786 -1.6009 -0.5102 -1.8830
 1935TIP3    H227297   6.525   5.382  12.777  1.1582  0.0811  1.0938
 1936TIP3   OH227298   1.982   5.273  12.291 -0.0394  0.1837  0.4680
 1936TIP3    H127299   1.975   5.334  12.364  1.9472 -0.1943  1.0113
 1936TIP3    H227300   1.893   5.240  12.279 -0.7416  1.6018  1.5231
 1937TIP3   OH227301   4.564   5.908   1.521 -0.0929 -0.3256 -0.1807
 1937TIP3    H127302   4.544   5.960   1.442  0.5578  1.2207  0.6266
 1937TIP3    H227303   4.525   5.823   1.503 -1.2651  0.4361 -1.5627
 1938TIP3   OH227304   2.568   6.503   1.303  0.4197 -0.6388 -0.1029
 1938TIP3    H127305   2.515   6.540   1.233  0.5294 -0.9154 -0.3308
 1938TIP3    H227306   2.633   6.449   1.259  0.3534 -0.9909  0.2184
 1939TIP3   OH227307   0.329   5.301  15.640  0.0615 -0.6498 -0.7895
 1939TIP3    H127308   0.367   5.315  15.727 -0.2294 -0.7861 -0.6391
 1939TIP3    H227309   0.237   5.326  15.650 -0.2390 -1.6819 -0.7716
 1940TIP3   OH227310   3.276   6.384   3.819  0.3020  0.3074 -0.2823
 1940TIP3    H127311   3.185   6.391   3.849 -0.0592 -0.1989 -1.2069
 1940TIP3    H227312   3.282   6.296   3.783  0.4293  1.1926 -2.5530
 1941TIP3   OH227313   4.757   4.260   3.912 -0.1451  0.2344 -0.4208
 1941TIP3    H127314   4.787   4.173   3.886 -0.9557  0.1887 -1.2646
 1941TIP3    H227315   4.710   4.246   3.995  1.2810  0.1711  0.4143
 1942TIP3   OH227316   4.801   0.021  11.125 -0.4911 -0.1317 -0.3177
 1942TIP3    H127317   4.797  -0.035  11.048  0.6028 -1.6039  0.6390
 1942TIP3    H227318   4.895   0.027  11.145 -0.6748  1.1577  0.2600
 1943TIP3   OH227319   6.170   5.569   3.943 -0.0741  0.0525  0.0707
 1943TIP3    H127320   6.261   5.573   3.972 -0.4593 -0.1058  1.3723
 1943TIP3    H227321   6.148   5.476   3.950 -0.6424  0.2357  0.7802
 1944TIP3   OH227322   5.581   3.284   4.227 -0.3253 -0.4515 -0.0689
 1944TIP3    H127323   5.551   3.285   4.318  0.4275 -0.9652  0.2029
 1944TIP3    H227324   5.527   3.216   4.185  0.0741 -0.9992  0.2816
 1945TIP3   OH227325   4.403   1.791  16.437 -0.7018 -0.2022  0.0638
 1945TIP3    H127326   4.435   1.700  16.440 -1.6038 -0.5138  0.8404
 1945TIP3    H227327   4.416   1.818  16.347 -1.6157 -1.5641 -0.5184
 1946TIP3   OH227328   4.645   3.957   2.240  0.3067 -0.4080 -0.5857
 1946TIP3    H127329   4.730   3.985   2.208  0.1797 -0.4939 -1.0074
 1946TIP3    H227330   4.661   3.871   2.279  0.6615  0.1512  0.5426
 1947TIP3   OH227331   1.214   4.560  16.458  0.0475 -0.2716  0.6087
 1947TIP3    H127332   1.121   4.560  16.481  0.1817  1.3708  1.3311
 1947TIP3    H227333   1.218   4.609  16.376  0.1444 -1.6473 -0.2420
 1948TIP3   OH227334   6.184   1.624   6.958  0.3618  0.0543 -0.2456
 1948TIP3    H127335   6.222   1.575   6.884  0.0072  0.2732 -0.5783
 1948TIP3    H227336   6.256   1.677   6.991  0.0372  1.4822 -1.7264
 1949TIP3   OH227337   2.685   5.039  13.655 -0.0478  0.4898  0.2337
 1949TIP3    H127338   2.707   5.115  13.710 -0.3192  1.3679 -0.8398
 1949TIP3    H227339   2.713   5.064  13.567 -1.3561 -0.0994 -0.3863
 1950TIP3   OH227340   0.385   5.913   4.355  0.6222 -0.8427 -0.5063
 1950TIP3    H127341   0.417   5.827   4.381 -0.5110 -1.3736 -0.8349
 1950TIP3    H227342   0.464   5.961   4.329  1.2560 -1.7846 -0.3596
 1951TIP3   OH227343   3.659   1.770   0.065  0.0141  0.0894  0.1659
 1951TIP3    H127344   3.630   1.680   0.078  0.9262 -0.5650 -1.8942
 1951TIP3    H227345   3.681   1.775  -0.028 -0.3676  2.5620  0.1399
 1952TIP3   OH227346   2.615   4.795  14.600  0.0779 -0.6392 -0.2380
 1952TIP3    H127347   2.631   4.797  14.505 -0.7731  0.4908 -0.3861
 1952TIP3    H227348   2.532   4.840  14.611 -0.3478 -1.6618  0.9755
 1953TIP3   OH227349   3.964   6.310  13.890 -0.4746  0.2262 -0.6975
 1953TIP3    H127350   3.957   6.260  13.809  1.4745 -0.7128 -0.3435
 1953TIP3    H227351   4.002   6.249  13.953 -1.3772  1.1199  0.7603
 1954TIP3   OH227352   2.663   1.142  15.154 -0.5643 -0.0224 -0.2104
 1954TIP3    H127353   2.591   1.186  15.198 -0.7835  1.1239 -1.6293
 1954TIP3    H227354   2.621   1.092  15.084 -0.1809 -1.3326  0.4820
 1955TIP3   OH227355   2.228   0.300   5.426 -0.6957  0.6183 -0.2209
 1955TIP3    H127356   2.285   0.234   5.387  1.3998  2.9387 -1.2438
 1955TIP3    H227357   2.209   0.265   5.514  2.2433 -0.3015  0.1451
 1956TIP3   OH227358   2.627   6.448   4.190  0.2542 -0.0094 -0.1295
 1956TIP3    H127359   2.649   6.418   4.279  1.1417 -1.1833 -0.7089
 1956TIP3    H227360   2.624   6.368   4.138 -2.2443  0.4395 -0.7997
 1957TIP3   OH227361   1.230   1.965  16.068 -0.7326  0.4778  0.4857
 1957TIP3    H127362   1.251   2.017  15.990  0.1284  0.2805  0.5846
 1957TIP3    H227363   1.209   2.030  16.135  0.4865  0.7265  0.6541
 1958TIP3   OH227364   0.889   4.888  11.401 -0.3718  0.2280 -0.2524
 1958TIP3    H127365   0.808   4.840  11.417 -1.4804  2.0297 -0.0500
 1958TIP3    H227366   0.958   4.822  11.402 -1.7714 -1.2866  0.1656
 1959TIP3   OH227367   4.443   2.334   6.311  0.2451 -0.0747  0.5917
 1959TIP3    H127368   4.498   2.291   6.246 -0.1723  0.2267  0.0254
 1959TIP3    H227369   4.434   2.270   6.382 -2.5097 -2.0734 -1.3470
 1960TIP3   OH227370   5.562   3.724   0.305 -0.0057 -0.1586  0.0839
 1960TIP3    H127371   5.520   3.749   0.387  0.9690  1.4234  0.1521
 1960TIP3    H227372   5.631   3.662   0.332 -1.5641 -1.9976  0.0730
 1961TIP3   OH227373   4.377   0.339   3.413  0.0145 -0.1816 -0.1338
 1961TIP3    H127374   4.318   0.274   3.375  1.0813 -1.0313 -0.3916
 1961TIP3    H227375   4.328   0.376   3.487 -1.4774  0.3749 -1.3661
 1962TIP3   OH227376   0.455   3.071  15.298 -0.2516  0.1865 -0.2077
 1962TIP3    H127377   0.471   2.979  15.276 -0.7363  0.6174 -2.6457
 1962TIP3    H227378   0.371   3.070  15.344 -0.3797 -0.5808 -0.4431
 1963TIP3   OH227379   6.508   1.521  11.678 -0.3188  0.0229  0.0856
 1963TIP3    H127380   6.590   1.500  11.722 -0.0622  2.7125  1.1221
 1963TIP3    H227381   6.440   1.501  11.743 -0.2052  0.6591  0.4162
 1964TIP3   OH227382   3.145   4.716   4.103 -0.1642  0.0450 -0.4607
 1964TIP3    H127383   3.161   4.693   4.195 -0.5637 -0.5066 -0.5236
 1964TIP3    H227384   3.216   4.777   4.081  0.0290  0.0534  0.1644
 1965TIP3   OH227385   3.729   0.387   3.678  0.1096  0.2619 -0.8562
 1965TIP3    H127386   3.751   0.451   3.611  0.9992  0.3179 -0.5203
 1965TIP3    H227387   3.678   0.436   3.743 -0.6086  0.2448 -1.3900
 1966TIP3   OH227388   4.943   1.441   0.692  0.2053 -0.6311  0.1109
 1966TIP3    H127389   4.862   1.398   0.665 -0.2689  0.0009  0.4907
 1966TIP3    H227390   4.945   1.432   0.787  0.8184 -1.0406  0.0644
 1967TIP3   OH227391   5.233   5.874  14.920 -0.8108 -0.1669  0.1629
 1967TIP3    H127392   5.146   5.845  14.947 -1.4400  1.2836 -0.2409
 1967TIP3    H227393   5.280   5.889  15.001 -0.5891 -1.8766  0.3900
 1968TIP3   OH227394   3.122   6.597  13.412 -0.2484  0.0933  0.0196
 1968TIP3    H127395   3.060   6.666  13.435 -1.6845 -1.2939  0.5123
 1968TIP3    H227396   3.173   6.633  13.339 -2.0023  1.1128 -0.7556
 1969TIP3   OH227397   2.324   3.045   3.475 -0.2049 -0.1956  0.4378
 1969TIP3    H127398   2.348   3.098   3.400  1.1743 -0.3779  0.7207
 1969TIP3    H227399   2.313   2.957   3.440 -1.0693 -0.0036  0.2098
 1970TIP3   OH227400   6.309   1.891  17.327  0.2186 -0.2689 -0.1741
 1970TIP3    H127401   6.348   1.807  17.350  0.2997 -0.7618 -1.9463
 1970TIP3    H227402   6.312   1.893  17.231  0.2032  1.7432 -0.1738
 1971TIP3   OH227403   2.968   4.181   0.791 -0.1359 -0.0919  0.2172
 1971TIP3    H127404   2.898   4.141   0.843 -0.8144  1.3710  0.4774
 1971TIP3    H227405   2.925   4.207   0.710  0.9018 -2.2785 -1.1139
 1972TIP3   OH227406   0.189   0.734   0.952 -0.2623 -0.1269 -0.4136
 1972TIP3    H127407   0.139   0.808   0.986 -1.5101 -1.2615  0.3186
 1972TIP3    H227408   0.135   0.698   0.882  0.8964  0.3452 -1.5907
 1973TIP3   OH227409   0.411   2.039   3.090 -0.0059 -0.9854  0.2949
 1973TIP3    H127410   0.497   2.071   3.062  1.1839 -1.9985  2.5197
 1973TIP3    H227411   0.393   2.087   3.171 -0.6890 -2.0725  0.8018
 1974TIP3   OH227412   0.596   6.278   2.029 -0.6898  0.0322  0.0556
 1974TIP3    H127413   0.591   6.371   2.050  2.8988  0.0875  1.3023
 1974TIP3    H227414   0.613   6.276   1.934 -0.0106  0.7153  0.1532
 1975TIP3   OH227415   1.524   3.693   5.908 -0.3292  0.4814  0.2625
 1975TIP3    H127416   1.549   3.603   5.885  0.1723  1.0626 -1.6583
 1975TIP3    H227417   1.447   3.683   5.964  0.8259 -1.1906  1.6419
 1976TIP3   OH227418   5.230   2.588   6.065 -0.8386 -0.0631  0.0409
 1976TIP3    H127419   5.162   2.541   6.016  0.9590 -0.6822 -2.0183
 1976TIP3    H227420   5.223   2.555   6.154 -0.1881 -3.7787 -1.1176
 1977TIP3   OH227421   3.808   1.976   5.543 -0.3174  0.6276 -0.7493
 1977TIP3    H127422   3.883   1.924   5.572 -0.5217  1.2339  1.0157
 1977TIP3    H227423   3.818   2.059   5.589 -1.0675  1.4325 -1.9679
 1978TIP3   OH227424   2.251   6.150  14.356  0.3676 -0.4677 -0.0423
 1978TIP3    H127425   2.299   6.149  14.439  0.3749 -1.1223 -0.0467
 1978TIP3    H227426   2.159   6.143  14.382  0.3072  0.2878 -0.0516
 1979TIP3   OH227427   4.270   5.024  12.848 -0.0275 -0.0117  0.1354
 1979TIP3    H127428   4.282   5.086  12.919  0.7050  0.4608 -0.3880
 1979TIP3    H227429   4.270   5.077  12.768  0.2727 -0.6339 -0.2942
 1980TIP3   OH227430   2.715   6.265  17.120  0.1917  0.1211  0.0669
 1980TIP3    H127431   2.738   6.178  17.087  2.1625  0.3872  0.6286
 1980TIP3    H227432   2.795   6.297  17.161 -0.6880  1.9456  0.4529
 1981TIP3   OH227433   5.908   0.064   3.298 -0.0584 -0.4146 -0.7653
 1981TIP3    H127434   5.829   0.095   3.252  1.1996  1.0868 -2.0296
 1981TIP3    H227435   5.974   0.056   3.230  1.3672  0.0548  0.5087
 1982TIP3   OH227436   6.051   4.232  14.802  0.1936 -0.2727  0.1475
 1982TIP3    H127437   6.060   4.302  14.867  0.2560 -0.9779  0.9104
 1982TIP3    H227438   5.995   4.269  14.735 -0.9246  0.0413  1.2214
 1983TIP3   OH227439   6.672   2.484   0.502  0.1225  0.3233  0.5659
 1983TIP3    H127440   6.671   2.489   0.406 -0.1049  1.2608  0.6121
 1983TIP3    H227441   6.764   2.495   0.526  0.6749 -2.7804  0.3521
 1984TIP3   OH227442   1.371   6.725   6.592  0.7139  0.0819 -0.3113
 1984TIP3    H127443   1.286   6.706   6.632  1.1559  1.1453  1.2408
 1984TIP3    H227444   1.417   6.779   6.657  2.1529  0.4702 -1.5760
 1985TIP3   OH227445   6.150   4.188   5.367 -0.3430 -0.0568 -0.0838
 1985TIP3    H127446   6.172   4.269   5.413 -2.0146  0.7722 -0.6934
 1985TIP3    H227447   6.115   4.130   5.434 -2.7182  1.1263 -0.2104
 1986TIP3   OH227448   2.161   6.101  11.080  0.3505 -0.0996 -0.4987
 1986TIP3    H127449   2.088   6.047  11.110 -0.0695 -0.1077 -1.5105
 1986TIP3    H227450   2.127   6.191  11.085  0.7453  0.0147  0.3296
 1987TIP3   OH227451   2.540   3.165  12.782 -0.0762  0.2492  0.1881
 1987TIP3    H127452   2.557   3.071  12.773 -0.0791  0.3099 -0.4693
 1987TIP3    H227453   2.483   3.171  12.859 -0.3692 -0.3153  0.0210
 1988TIP3   OH227454   0.584   2.919   4.245  0.4666 -0.3701 -0.3495
 1988TIP3    H127455   0.653   2.978   4.216 -1.2345  0.8858 -2.0971
 1988TIP3    H227456   0.620   2.875   4.322  2.8930  0.7665 -0.7545
 1989TIP3   OH227457   1.227   6.329   1.288 -0.1046 -0.6247  0.1918
 1989TIP3    H127458   1.300   6.268   1.289  1.5164  1.2171  1.7876
 1989TIP3    H227459   1.239   6.381   1.209  2.2463  1.7096  1.9158
 1990TIP3   OH227460   3.232   1.124   5.672  0.3233  0.5013 -0.7557
 1990TIP3    H127461   3.244   1.030   5.661 -2.2986 -0.1622  1.0958
 1990TIP3    H227462   3.292   1.164   5.609  0.4787 -2.4118 -2.6270
 1991TIP3   OH227463   0.673   3.242  16.491  0.2626  0.0693 -0.1788
 1991TIP3    H127464   0.754   3.244  16.442  0.0976 -2.5770 -0.6683
 1991TIP3    H227465   0.697   3.205  16.576 -0.0750  1.3546  0.5025
 1992TIP3   OH227466   5.936   1.064   5.595 -0.1210  0.5333 -0.1885
 1992TIP3    H127467   5.901   0.975   5.605 -0.2685  0.6738  0.6777
 1992TIP3    H227468   5.954   1.092   5.685  0.9940  0.9647 -0.5319
 1993TIP3   OH227469   4.802   2.814   3.665  0.1429 -0.5073 -0.4331
 1993TIP3    H127470   4.826   2.901   3.696  0.3913 -0.5438 -0.5196
 1993TIP3    H227471   4.784   2.826   3.572  1.2627 -0.7529 -0.6912
 1994TIP3   OH227472   0.554   3.088  11.428 -0.4271  0.3082 -0.8216
 1994TIP3    H127473   0.518   3.134  11.504  1.6238  1.3736 -0.4312
 1994TIP3    H227474   0.566   3.156  11.361  1.2417  0.1226 -0.7654
 1995TIP3   OH227475   0.389   0.075   2.210 -0.1784 -0.2480 -0.8032
 1995TIP3    H127476   0.392   0.130   2.132  0.6500  4.4247  2.0844
 1995TIP3    H227477   0.480   0.073   2.241 -0.5634 -1.5525  0.3095
 1996TIP3   OH227478   2.571   1.334  16.592 -0.0584  0.2728  0.3157
 1996TIP3    H127479   2.484   1.320  16.629 -0.4552 -0.0020 -0.6930
 1996TIP3    H227480   2.631   1.295  16.656 -0.7835 -0.9849  0.2513
 1997TIP3   OH227481   4.799   5.507  12.794 -0.3452 -0.7040  0.3709
 1997TIP3    H127482   4.892   5.530  12.787 -0.2088 -1.6709 -1.6284
 1997TIP3    H227483   4.766   5.565  12.863  1.1160  1.6629 -0.7705
 1998TIP3   OH227484   1.664   6.267  12.233 -0.0278  0.2468 -0.7489
 1998TIP3    H127485   1.733   6.308  12.182  0.3025  1.1043  0.3424
 1998TIP3    H227486   1.707   6.242  12.315 -0.9616  0.6411 -0.1212
 1999TIP3   OH227487   4.923   6.396   0.035  0.0509 -0.3117  0.5390
 1999TIP3    H127488   4.862   6.351   0.092  0.3868 -0.4331  0.8046
 1999TIP3    H227489   4.978   6.327  -0.002 -0.5362 -0.3061 -0.4000
 2000TIP3   OH227490   3.738   3.151   1.211  0.0409  0.3493 -0.0133
 2000TIP3    H127491   3.716   3.236   1.250 -1.2283 -0.0378  0.1460
 2000TIP3    H227492   3.833   3.145   1.219 -0.0436  0.9222  1.6872
 2001TIP3   OH227493   5.858   0.284   0.071  0.7294  0.3240  0.0017
 2001TIP3    H127494   5.817   0.328  -0.004 -0.5008  0.6375  0.8256
 2001TIP3    H227495   5.885   0.356   0.128 -0.6813  0.0672  1.0428
 2002TIP3   OH227496   4.550   5.649  17.400  0.2683 -0.2223  0.4845
 2002TIP3    H127497   4.596   5.675  17.320 -0.4377 -0.1875  0.0838
 2002TIP3    H227498   4.533   5.556  17.389 -0.1265 -0.1487  0.4335
 2003TIP3   OH227499   3.040   0.211  12.248  0.1391  0.0074 -0.3812
 2003TIP3    H127500   3.080   0.298  12.249  0.3223 -0.0544 -1.6121
 2003TIP3    H227501   3.087   0.163  12.180 -0.5905 -0.7583 -0.3657
 2004TIP3   OH227502   1.689   5.546  14.868 -0.0153 -0.0605  0.2429
 2004TIP3    H127503   1.629   5.519  14.938  1.4306  1.7229  2.3081
 2004TIP3    H227504   1.650   5.626  14.833  1.2908  1.3776  1.9230
 2005TIP3   OH227505   1.789   3.501   4.290  0.5685 -0.2534  0.7158
 2005TIP3    H127506   1.862   3.439   4.289  0.2403 -0.6402  0.7326
 2005TIP3    H227507   1.831   3.586   4.306  0.7717 -0.8071  3.5296
 2006TIP3   OH227508   5.093   6.348  15.693  0.0062  0.4403 -0.1745
 2006TIP3    H127509   5.107   6.256  15.712 -0.4963  0.2105 -0.8819
 2006TIP3    H227510   5.125   6.394  15.771 -0.5402 -0.3724  0.5451
 2007TIP3   OH227511   2.185   4.579  16.169  0.3555 -0.2788  0.3670
 2007TIP3    H127512   2.237   4.568  16.248  1.5129  0.2110 -0.3038
 2007TIP3    H227513   2.246   4.561  16.098 -0.4728  0.0163 -0.4381
 2008TIP3   OH227514   3.449   4.110  13.195  0.4665 -0.1123 -1.0594
 2008TIP3    H127515   3.461   4.140  13.105  0.6573  0.0248 -0.9903
 2008TIP3    H227516   3.509   4.164  13.246 -1.0401  1.1825 -0.5712
 2009TIP3   OH227517   4.549   4.820   1.304 -0.2927  0.1645 -0.0655
 2009TIP3    H127518   4.516   4.839   1.216 -0.9120 -0.6811 -0.0244
 2009TIP3    H227519   4.532   4.901   1.353 -0.6441  0.3767 -0.5233
 2010TIP3   OH227520   1.915   3.310  17.599 -0.4213 -0.3948  0.1666
 2010TIP3    H127521   2.001   3.304  17.556  0.3069  0.7075  1.3723
 2010TIP3    H227522   1.891   3.219  17.617  0.5770 -0.7189 -0.0469
 2011TIP3   OH227523   4.872   0.298   0.124 -0.7339  0.4883  0.1978
 2011TIP3    H127524   4.927   0.295   0.202 -0.5371 -0.2709  0.0312
 2011TIP3    H227525   4.791   0.253   0.150 -1.0106  0.9881  0.2243
 2012TIP3   OH227526   2.720   0.691  14.656  0.3467  0.0253 -0.2086
 2012TIP3    H127527   2.681   0.632  14.720  2.6538 -1.5801 -0.1413
 2012TIP3    H227528   2.790   0.640  14.615  1.9713  2.4613 -0.7297
 2013TIP3   OH227529   6.525   2.321   2.477  0.7470 -0.5591 -0.0660
 2013TIP3    H127530   6.503   2.302   2.386 -1.0115  1.6613 -0.1972
 2013TIP3    H227531   6.469   2.263   2.529 -0.3697  0.1415 -0.4447
 2014TIP3   OH227532   2.186   2.042  14.569  0.2582 -0.2197 -0.0734
 2014TIP3    H127533   2.230   2.013  14.649 -2.2602  0.1486  1.5655
 2014TIP3    H227534   2.148   1.962  14.533  2.3718 -0.6017 -1.6953
 2015TIP3   OH227535   0.794   0.782  16.807 -0.3812  0.0159  0.2874
 2015TIP3    H127536   0.854   0.847  16.844  0.0929 -1.0158  1.4491
 2015TIP3    H227537   0.709   0.803  16.845 -0.8362  1.5866 -1.4952
 2016TIP3   OH227538   6.444   2.752  16.324 -0.3200 -0.1591 -0.1640
 2016TIP3    H127539   6.399   2.715  16.400 -1.7534  2.0346  0.1465
 2016TIP3    H227540   6.440   2.684  16.257 -1.5911 -1.0731  0.8109
 2017TIP3   OH227541   4.710   2.155  16.698  0.1126  0.1965 -0.1854
 2017TIP3    H127542   4.782   2.208  16.664  0.5855 -0.8660 -0.9371
 2017TIP3    H227543   4.661   2.213  16.756  0.6905  1.3858 -0.8593
 2018TIP3   OH227544   6.644   1.128  11.377 -0.0482 -0.8073  0.4216
 2018TIP3    H127545   6.567   1.074  11.356 -0.1014 -0.8896  0.8154
 2018TIP3    H227546   6.666   1.171  11.295 -1.1109 -0.0345  0.5243
 2019TIP3   OH227547   5.682   1.973  12.412 -0.1525  0.2544 -0.1610
 2019TIP3    H127548   5.650   2.029  12.341  1.0845  2.7397  1.0900
 2019TIP3    H227549   5.774   1.998  12.423 -0.0505 -0.7138  1.6845
 2020TIP3   OH227550   5.481   5.980  13.662  0.0726 -0.1445 -0.7809
 2020TIP3    H127551   5.476   5.885  13.674 -0.5807 -0.5612 -3.6418
 2020TIP3    H227552   5.561   5.993  13.609 -0.9538  0.6138 -2.2179
 2021TIP3   OH227553   0.589   6.060   4.234  0.2363 -0.6898  0.9225
 2021TIP3    H127554   0.677   6.068   4.196  0.1535 -1.3035  0.5922
 2021TIP3    H227555   0.561   6.151   4.246  0.6438 -0.4808  0.3933
 2022TIP3   OH227556   6.124   5.341  14.674 -0.2567  0.0152 -0.3575
 2022TIP3    H127557   6.037   5.318  14.641 -0.5868 -0.5235  0.8150
 2022TIP3    H227558   6.119   5.323  14.768  0.7061  1.2726 -0.0447
 2023TIP3   OH227559   1.001   6.523   4.763  0.1878 -0.2520  0.0130
 2023TIP3    H127560   0.913   6.560   4.773 -0.6095 -1.8447 -0.6857
 2023TIP3    H227561   1.053   6.593   4.723 -1.7809 -0.4425 -3.2428
 2024TIP3   OH227562   3.848   1.692   5.832  0.2821 -0.1979  0.5533
 2024TIP3    H127563   3.940   1.716   5.846  0.2472  1.3014 -1.4916
 2024TIP3    H227564   3.799   1.751   5.888  0.4092  1.9353 -1.4633
 2025TIP3   OH227565   2.721   6.383   3.089  0.1969 -0.0134  0.0525
 2025TIP3    H127566   2.645   6.441   3.089  0.4735  0.3688  1.1815
 2025TIP3    H227567   2.765   6.401   3.005 -0.4637  0.4167 -0.2055
 2026TIP3   OH227568   2.767   2.096  14.431  0.1871 -0.5039 -0.4775
 2026TIP3    H127569   2.827   2.092  14.357  0.1404 -0.2174 -0.5328
 2026TIP3    H227570   2.819   2.136  14.501  0.0336 -0.1684 -0.5542
 2027TIP3   OH227571   3.513   0.745   1.176 -0.0875 -0.4569  0.5922
 2027TIP3    H127572   3.530   0.738   1.082 -0.3529 -0.5442  0.5507
 2027TIP3    H227573   3.481   0.659   1.201  1.6524 -0.9914  1.1106
 2028TIP3   OH227574   2.249   5.831  16.901  0.0476  0.4680 -0.3106
 2028TIP3    H127575   2.164   5.872  16.890  0.1955  0.9618  0.3277
 2028TIP3    H227576   2.312   5.899  16.878  0.2755  0.0354 -1.0143
 2029TIP3   OH227577   4.837   4.906   0.981  0.0185  0.2243  0.1926
 2029TIP3    H127578   4.813   4.863   1.063 -1.3606 -0.5933 -0.6072
 2029TIP3    H227579   4.819   4.999   0.997 -1.4582 -0.0774  0.4193
 2030TIP3   OH227580   6.599   4.326   2.672 -0.5619  0.3605 -0.3931
 2030TIP3    H127581   6.514   4.369   2.674 -1.5775 -1.5207  1.0809
 2030TIP3    H227582   6.637   4.344   2.758 -0.1392 -0.0062 -0.4996
 2031TIP3   OH227583   6.129   0.963  14.596  0.6635  0.5703 -0.1365
 2031TIP3    H127584   6.035   0.970  14.611  0.6918  2.0324 -0.5334
 2031TIP3    H227585   6.147   1.023  14.524  1.7119 -0.6610 -0.9461
 2032TIP3   OH227586   0.541   0.930  14.692  0.0158 -0.3904 -0.0969
 2032TIP3    H127587   0.477   0.860  14.705 -1.1579  0.7959  0.7783
 2032TIP3    H227588   0.490   1.010  14.696  0.9104  0.5005 -3.6494
 2033TIP3   OH227589   0.643   0.848   5.467 -0.1943  0.4273 -0.3992
 2033TIP3    H127590   0.650   0.866   5.561 -0.2708  0.9521 -0.4962
 2033TIP3    H227591   0.616   0.931   5.428  0.4227  0.3674 -0.9599
 2034TIP3   OH227592   0.125   1.279  13.490 -0.4421 -0.0237  0.0751
 2034TIP3    H127593   0.157   1.207  13.545 -0.4040  0.8527  1.2423
 2034TIP3    H227594   0.030   1.269  13.490 -0.4872  0.3124  0.8181
 2035TIP3   OH227595   0.191   5.346  12.893  0.6285 -0.2211 -0.1772
 2035TIP3    H127596   0.109   5.344  12.943  0.8923  0.4774  0.3056
 2035TIP3    H227597   0.251   5.395  12.949  1.9744 -2.3515  0.3503
 2036TIP3   OH227598   3.441   1.363   1.104 -0.6650  0.4512  0.0739
 2036TIP3    H127599   3.452   1.269   1.109  0.3902  0.5409 -0.4507
 2036TIP3    H227600   3.396   1.386   1.185  1.0711 -0.2268  1.2840
 2037TIP3   OH227601   3.911   0.852   0.637  0.3826 -0.0776 -0.0913
 2037TIP3    H127602   3.986   0.912   0.628  0.0686  0.0829 -2.0552
 2037TIP3    H227603   3.950   0.765   0.640  0.7403  0.1055  0.9478
 2038TIP3   OH227604   6.086   4.601   0.713  0.7184  0.4369  0.7950
 2038TIP3    H127605   6.137   4.682   0.706 -0.4174  1.1616  0.4725
 2038TIP3    H227606   6.151   4.531   0.716  1.7105  1.2696 -0.2353
 2039TIP3   OH227607   5.219   5.919  10.895 -0.4338  0.4782  0.4631
 2039TIP3    H127608   5.195   5.847  10.837 -0.7136  1.2909 -0.4604
 2039TIP3    H227609   5.138   5.968  10.908 -0.7232 -0.5171  2.7856
 2040TIP3   OH227610   4.083   5.977  13.965  0.2398 -0.4681 -0.3098
 2040TIP3    H127611   4.168   5.984  14.007  0.1655 -1.8606  0.1288
 2040TIP3    H227612   4.102   5.957  13.874  0.4147  3.1609 -1.1875
 2041TIP3   OH227613   2.537   5.979   0.539 -0.3658 -0.0537 -0.0578
 2041TIP3    H127614   2.590   5.899   0.536  0.5053  0.5389 -1.8223
 2041TIP3    H227615   2.591   6.044   0.495 -1.9172  0.9850 -0.4877
 2042TIP3   OH227616   6.635   2.944   1.306  0.7649 -0.3250  0.4290
 2042TIP3    H127617   6.658   2.864   1.353 -3.6093 -2.0024  0.2023
 2042TIP3    H227618   6.555   2.976   1.349  0.2293  1.7707 -1.8450
 2043TIP3   OH227619   3.847   1.522   1.399  0.6596 -0.1556  0.4254
 2043TIP3    H127620   3.800   1.587   1.346 -1.2566 -1.6498  0.1813
 2043TIP3    H227621   3.933   1.561   1.414 -0.9073  3.2245  1.7109
 2044TIP3   OH227622   2.935   5.112   3.492 -0.6741 -0.0018  0.1305
 2044TIP3    H127623   2.950   5.200   3.527  0.1713 -0.9631  2.3973
 2044TIP3    H227624   2.899   5.126   3.404 -0.5921  2.5802  0.4482
 2045TIP3   OH227625   5.635   0.586  16.792  0.0290 -0.0637  0.3012
 2045TIP3    H127626   5.616   0.589  16.886 -1.4807 -0.6815  0.0320
 2045TIP3    H227627   5.598   0.667  16.757 -0.4483 -0.3793  0.0656
 2046TIP3   OH227628   2.937   4.848  15.688  0.2747  0.2201 -0.2376
 2046TIP3    H127629   2.979   4.839  15.602 -0.4610  0.0227 -0.5845
 2046TIP3    H227630   2.890   4.932  15.683  0.0891  0.1254 -0.0890
 2047TIP3   OH227631   6.052   5.618  14.072  0.2039 -0.7253  0.1934
 2047TIP3    H127632   6.146   5.617  14.085  0.1272  1.4659  1.3702
 2047TIP3    H227633   6.020   5.539  14.116  1.4154 -1.1276  0.3686
 2048TIP3   OH227634   5.474   5.417  12.306 -0.0796 -0.0935  0.4916
 2048TIP3    H127635   5.440   5.463  12.383  1.2072 -0.1417  1.1172
 2048TIP3    H227636   5.441   5.467  12.231  1.6863  2.2136  1.1501
 2049TIP3   OH227637   4.879   0.808   6.039  0.1583  0.2972  0.7379
 2049TIP3    H127638   4.923   0.741   6.092 -0.0934  0.2130  0.8399
 2049TIP3    H227639   4.864   0.881   6.100 -1.0562 -0.1955  1.0529
 2050TIP3   OH227640   2.956   2.087   5.076 -0.2645 -0.4091 -0.0419
 2050TIP3    H127641   2.996   2.011   5.034  0.9247  1.0513 -1.6755
 2050TIP3    H227642   3.007   2.100   5.156  0.3080 -0.6160 -0.3671
 2051TIP3   OH227643   2.877   1.345  12.066  0.6543  0.4895 -0.0073
 2051TIP3    H127644   2.972   1.342  12.056  0.6192 -1.0051 -0.1969
 2051TIP3    H227645   2.844   1.297  11.990 -0.2762  1.3660 -0.1740
 2052TIP3   OH227646   0.825   2.731  14.291  0.1462 -0.5576 -0.5313
 2052TIP3    H127647   0.889   2.688  14.235  1.8800  1.9923 -0.6803
 2052TIP3    H227648   0.878   2.779  14.356 -1.7166 -0.9437  1.3873
 2053TIP3   OH227649   1.291   5.481  11.599 -0.3481 -0.2478  0.1187
 2053TIP3    H127650   1.327   5.419  11.663  0.9857 -1.1769 -1.4627
 2053TIP3    H227651   1.364   5.498  11.539 -1.6257  0.4413 -1.2803
 2054TIP3   OH227652   0.525   2.365   2.149  0.1338 -0.2490  0.1924
 2054TIP3    H127653   0.476   2.410   2.080  0.8887 -0.4100 -0.4632
 2054TIP3    H227654   0.560   2.436   2.203  1.8539  0.0520 -1.1993
 2055TIP3   OH227655   1.592   4.278   5.195 -0.4190 -0.5339  0.8628
 2055TIP3    H127656   1.659   4.212   5.208 -0.8139 -0.8171  1.5175
 2055TIP3    H227657   1.625   4.355   5.241  0.6886  0.2147 -1.0340
 2056TIP3   OH227658   1.896   1.268   5.584  0.2878 -0.3848  0.3046
 2056TIP3    H127659   1.944   1.298   5.661 -0.2755  0.5050  0.3282
 2056TIP3    H227660   1.906   1.339   5.520 -0.5420 -0.4256  0.1187
 2057TIP3   OH227661   5.718   4.931  15.052  0.3990  0.7947  0.0195
 2057TIP3    H127662   5.631   4.938  15.092 -1.0473 -2.2335 -2.1641
 2057TIP3    H227663   5.765   4.870  15.107  0.9642  1.9173  0.8233
 2058TIP3   OH227664   1.603   0.254   3.354 -0.2146  0.5491  0.4533
 2058TIP3    H127665   1.555   0.305   3.420  1.6931  1.2676  1.3495
 2058TIP3    H227666   1.642   0.182   3.403 -0.3520 -0.0190 -0.2566
 2059TIP3   OH227667   5.787   3.512   0.131 -0.1163 -0.0246  0.2011
 2059TIP3    H127668   5.700   3.535   0.098 -0.2746 -1.4270 -0.4033
 2059TIP3    H227669   5.830   3.469   0.057  0.5944 -0.5676  0.9170
 2060TIP3   OH227670   1.777   1.745   3.597 -0.1232 -0.2192 -0.3214
 2060TIP3    H127671   1.764   1.838   3.613 -0.4475 -0.3408  0.1350
 2060TIP3    H227672   1.749   1.702   3.678  1.8460 -0.5895  0.2264
 2061TIP3   OH227673   0.339   4.138   2.292 -0.3424  0.0311 -0.0675
 2061TIP3    H127674   0.312   4.184   2.212 -0.4198  0.1546  0.0302
 2061TIP3    H227675   0.409   4.191   2.328 -1.9544  1.3470  1.2853
 2062TIP3   OH227676   2.361   4.550  13.255 -0.0847 -0.5596 -0.4593
 2062TIP3    H127677   2.278   4.584  13.290  0.4170 -0.2146  0.4340
 2062TIP3    H227678   2.405   4.512  13.331  1.0898  0.3016 -0.6703
 2063TIP3   OH227679   0.148   1.070  14.987 -0.9765  0.0002 -0.5231
 2063TIP3    H127680   0.200   1.085  14.908  0.7299 -1.1581  0.3324
 2063TIP3    H227681   0.120   0.978  14.980  2.2933 -1.3451  1.8498
 2064TIP3   OH227682   3.250   4.535   1.456 -0.1514  0.7919 -0.4146
 2064TIP3    H127683   3.193   4.461   1.437 -0.2137  1.0601 -1.2736
 2064TIP3    H227684   3.270   4.573   1.371  1.0354  0.9074 -0.1046
 2065TIP3   OH227685   6.175   2.856  17.490  0.5894 -0.0777 -0.6658
 2065TIP3    H127686   6.121   2.878  17.413 -0.2635 -1.8859 -0.6369
 2065TIP3    H227687   6.242   2.796  17.456  0.7065 -0.2397 -0.1505
 2066TIP3   OH227688   2.683   2.140   0.290 -0.3052 -0.4850  0.0019
 2066TIP3    H127689   2.626   2.210   0.322  0.4185 -0.5207  1.4429
 2066TIP3    H227690   2.649   2.120   0.202 -1.3304  0.7625  0.0802
 2067TIP3   OH227691   3.555   5.811   3.137 -0.1134  0.0573  0.1448
 2067TIP3    H127692   3.548   5.868   3.060 -0.4931  3.1073  2.2958
 2067TIP3    H227693   3.476   5.829   3.188  0.8193 -0.7833  1.9813
 2068TIP3   OH227694   0.572   2.187   4.253  0.0194 -0.5335 -0.0632
 2068TIP3    H127695   0.599   2.201   4.162 -0.1527 -0.6565 -0.1347
 2068TIP3    H227696   0.635   2.237   4.305  1.5766 -2.3190 -0.1173
 2069TIP3   OH227697   3.110   2.574  17.173  0.0665  0.7856 -0.1837
 2069TIP3    H127698   3.055   2.627  17.231 -2.8859 -2.0147 -0.1233
 2069TIP3    H227699   3.199   2.601  17.193 -0.8036  0.8862  4.8868
 2070TIP3   OH227700   1.614   2.122  12.268  0.3258  0.8778  0.5358
 2070TIP3    H127701   1.703   2.157  12.267  1.2106 -0.9630 -3.1488
 2070TIP3    H227702   1.625   2.029  12.288 -0.5786  0.4287 -0.8617
 2071TIP3   OH227703   1.013   2.090   6.318 -0.8207  0.8087  0.0167
 2071TIP3    H127704   1.018   2.017   6.257  1.2205  0.4173  0.5612
 2071TIP3    H227705   0.957   2.059   6.390  0.4672 -0.4667  0.5083
 2072TIP3   OH227706   4.090   3.671  17.482  0.1171 -0.7938  0.2631
 2072TIP3    H127707   4.040   3.752  17.494  1.8927  0.9904 -3.0937
 2072TIP3    H227708   4.173   3.687  17.528  0.2503 -0.9178  0.0667
 2073TIP3   OH227709   2.407   5.464   4.794  0.3098  0.1672 -0.2128
 2073TIP3    H127710   2.452   5.497   4.717  0.1696  0.8860  0.0083
 2073TIP3    H227711   2.319   5.500   4.789  0.4461  0.6348  0.5349
 2074TIP3   OH227712   5.774   2.136   2.647  0.1983  0.8543  0.2776
 2074TIP3    H127713   5.721   2.057   2.654 -1.3423  1.7829 -0.3664
 2074TIP3    H227714   5.808   2.134   2.557  2.3687 -0.3595  1.0482
 2075TIP3   OH227715   3.963   2.574  12.321  0.4326  0.3516  0.5526
 2075TIP3    H127716   4.005   2.641  12.266  1.0055 -0.7353 -0.3702
 2075TIP3    H227717   4.036   2.531  12.366  0.2412 -0.7991 -0.1967
 2076TIP3   OH227718   1.406   6.182   6.194 -0.3445  0.0596  0.4787
 2076TIP3    H127719   1.355   6.146   6.266 -0.0799 -0.3540  0.4606
 2076TIP3    H227720   1.461   6.249   6.235  0.5423 -0.8758  0.8413
 2077TIP3   OH227721   3.608   5.116  11.812 -0.2469  0.0149  0.5305
 2077TIP3    H127722   3.572   5.144  11.896 -0.2753 -0.1286  0.5675
 2077TIP3    H227723   3.560   5.035  11.792  0.8604 -0.8142  1.1422
 2078TIP3   OH227724   6.338   3.472  15.296 -0.1255 -0.0899 -0.3696
 2078TIP3    H127725   6.376   3.527  15.227  0.7660  0.5856  0.6331
 2078TIP3    H227726   6.370   3.511  15.377 -2.7299  0.3221  0.5436
 2079TIP3   OH227727   1.038   1.844  12.281  0.3256 -0.1889 -0.1528
 2079TIP3    H127728   1.024   1.923  12.229 -1.0025  0.0633  0.5320
 2079TIP3    H227729   1.052   1.775  12.217 -0.1101  0.3220 -0.8182
 2080TIP3   OH227730   2.741   6.319  16.384  0.1082  0.3508  0.4224
 2080TIP3    H127731   2.694   6.400  16.404 -1.2086 -0.1095 -0.6630
 2080TIP3    H227732   2.672   6.253  16.378  0.7958 -0.2539 -1.7124
 2081TIP3   OH227733   2.765   1.950  13.630 -0.5134 -0.3393 -0.4988
 2081TIP3    H127734   2.692   1.921  13.683 -1.2554 -0.5969 -1.6274
 2081TIP3    H227735   2.841   1.945  13.688 -1.0497 -1.9964  0.1025
 2082TIP3   OH227736   0.941   5.410   3.839  0.0070  0.5932  0.5942
 2082TIP3    H127737   0.966   5.366   3.758  1.6010  0.4624  1.1210
 2082TIP3    H227738   0.903   5.342   3.893 -2.1963  0.9096 -0.4458
 2083TIP3   OH227739   4.355   2.682   5.109  0.6114 -0.4149 -0.3961
 2083TIP3    H127740   4.304   2.736   5.048  0.1459 -1.0666 -0.6013
 2083TIP3    H227741   4.305   2.600   5.115 -1.4518  0.8604  3.7152
 2084TIP3   OH227742   3.302   4.075   5.700  0.7649  0.0116 -0.1027
 2084TIP3    H127743   3.222   4.040   5.739  0.2739 -0.1057 -1.1595
 2084TIP3    H227744   3.357   3.998   5.684  1.3307  0.1471  1.1157
 2085TIP3   OH227745   2.701   5.815  14.447 -0.3787  0.0700  0.1290
 2085TIP3    H127746   2.673   5.881  14.510  0.2928 -0.2699  0.7966
 2085TIP3    H227747   2.625   5.803  14.390 -1.1719  0.0371  1.1677
 2086TIP3   OH227748   0.908   6.717  15.100  0.4909  0.3932  0.1949
 2086TIP3    H127749   0.831   6.773  15.110 -1.1957 -1.9446  1.3113
 2086TIP3    H227750   0.952   6.719  15.185 -0.0451 -0.5567  0.5105
 2087TIP3   OH227751   1.409   6.426  15.117  0.4454 -0.0028 -0.4920
 2087TIP3    H127752   1.316   6.409  15.103 -0.0083  1.2479  0.6997
 2087TIP3    H227753   1.430   6.496  15.055  0.5928 -0.2454 -0.7210
 2088TIP3   OH227754   5.609   2.802   2.514 -0.0976 -0.3009 -0.0988
 2088TIP3    H127755   5.619   2.897   2.504 -0.8236  0.2887  3.4582
 2088TIP3    H227756   5.535   2.780   2.457 -0.4798  1.4513 -0.3395
 2089TIP3   OH227757   5.049   2.222  17.204  0.0754  0.3199 -0.1564
 2089TIP3    H127758   5.064   2.312  17.176  1.6760  0.1943  0.1863
 2089TIP3    H227759   5.112   2.171  17.154 -0.5598 -0.5613 -0.0728
 2090TIP3   OH227760   5.463   0.624  12.816  0.3203  0.2411  0.1495
 2090TIP3    H127761   5.380   0.652  12.777  0.3636 -0.3666 -0.3753
 2090TIP3    H227762   5.528   0.639  12.748  0.4583 -0.4224  0.1278
 2091TIP3   OH227763   2.054   5.839  14.450  0.0065 -0.3479 -0.1886
 2091TIP3    H127764   1.980   5.876  14.499 -0.7488  0.6243 -1.9732
 2091TIP3    H227765   2.036   5.745  14.448 -1.2756 -0.1242 -0.6579
 2092TIP3   OH227766   3.080   3.651  14.656 -0.2473  0.5183  0.5018
 2092TIP3    H127767   3.041   3.720  14.711  0.4749  3.2064 -2.0878
 2092TIP3    H227768   3.172   3.647  14.684 -0.0696  1.3391  0.0953
 2093TIP3   OH227769   3.738   2.403  13.626 -0.2909  0.2689  0.4725
 2093TIP3    H127770   3.659   2.448  13.657 -0.6319 -0.8381  1.2762
 2093TIP3    H227771   3.719   2.310  13.640  1.1592 -0.0152  0.6906
 2094TIP3   OH227772   0.740   4.747  13.570  0.2204 -0.5705  0.0516
 2094TIP3    H127773   0.828   4.712  13.563  1.7996  2.6464  1.6403
 2094TIP3    H227774   0.747   4.837  13.538 -2.6533 -0.3599 -0.2934
 2095TIP3   OH227775   0.019   0.819   1.512  0.3727  1.2129  0.0651
 2095TIP3    H127776  -0.052   0.854   1.459 -1.1123 -2.7481 -0.9282
 2095TIP3    H227777   0.086   0.793   1.448  1.2198  1.7806  0.7037
 2096TIP3   OH227778   0.590   3.257  14.159  0.0777 -0.3172 -0.4476
 2096TIP3    H127779   0.532   3.278  14.231  0.0531 -0.4051 -0.4420
 2096TIP3    H227780   0.563   3.170  14.129  0.4450 -0.5174 -0.2054
 2097TIP3   OH227781   4.219   0.499   3.911  0.3838 -0.0239  0.0766
 2097TIP3    H127782   4.194   0.589   3.935  0.4776  0.2847 -0.9306
 2097TIP3    H227783   4.141   0.447   3.929  0.0384  0.4127 -0.1319
 2098TIP3   OH227784   1.837   3.969  11.979  0.1099  0.2265  0.8198
 2098TIP3    H127785   1.823   4.015  12.062 -1.9101 -0.3582  0.8685
 2098TIP3    H227786   1.833   3.876  12.002  0.4700  0.0536  0.1997
 2099TIP3   OH227787   5.013   1.975  15.017 -0.3363 -0.1006  0.6815
 2099TIP3    H127788   4.980   1.896  15.060 -0.2926  1.1320  3.1363
 2099TIP3    H227789   5.087   2.003  15.071 -0.3312  1.6187 -0.1478
 2100TIP3   OH227790   4.231   3.089   4.168 -0.2535 -0.6726  0.2071
 2100TIP3    H127791   4.311   3.138   4.188  0.4118 -1.8074  0.4100
 2100TIP3    H227792   4.183   3.145   4.107  0.5458  0.1697  0.3337
 2101TIP3   OH227793   0.724   1.181   2.339 -0.4152  0.3431 -0.2012
 2101TIP3    H127794   0.653   1.122   2.313 -0.1051  0.7427 -2.1157
 2101TIP3    H227795   0.713   1.192   2.434 -1.8072 -1.0149 -0.1689
 2102TIP3   OH227796   0.950   4.932   1.078 -0.0991 -0.0846 -0.2682
 2102TIP3    H127797   0.959   4.885   1.160  0.1623  0.9624  0.3241
 2102TIP3    H227798   0.902   4.873   1.020  0.2053 -1.0460  0.4553
 2103TIP3   OH227799   1.951   5.640   2.272 -0.4681 -0.2389 -0.1527
 2103TIP3    H127800   2.044   5.618   2.267 -0.4001 -0.3449  1.1967
 2103TIP3    H227801   1.907   5.556   2.286 -0.7125 -0.1264 -0.2362
 2104TIP3   OH227802   2.237   2.094  13.331 -0.5648 -0.3467 -0.0767
 2104TIP3    H127803   2.169   2.042  13.288 -0.4115 -0.1093 -0.6190
 2104TIP3    H227804   2.189   2.158  13.384 -0.7741 -2.1777  2.0766
 2105TIP3   OH227805   5.452   3.278   4.494  0.3732 -0.4358 -0.0760
 2105TIP3    H127806   5.454   3.365   4.534  0.9822 -0.1065 -0.7829
 2105TIP3    H227807   5.360   3.255   4.489  0.2958 -0.7435  2.0229
 2106TIP3   OH227808   5.800   2.043  17.459  0.5289  0.4453 -0.4467
 2106TIP3    H127809   5.759   2.126  17.435 -2.0439 -0.4664  0.4289
 2106TIP3    H227810   5.759   2.019  17.542  3.6089 -0.1724  1.0249
 2107TIP3   OH227811   5.136   4.128   0.721 -0.5595  0.3741 -0.5753
 2107TIP3    H127812   5.134   4.119   0.626 -0.5550  0.3638 -0.5744
 2107TIP3    H227813   5.076   4.200   0.739 -1.1725 -0.1479 -0.5198
 2108TIP3   OH227814   2.896   5.148   1.839 -0.3871 -0.0128 -0.0843
 2108TIP3    H127815   2.884   5.227   1.787  0.5313  2.3096  2.8805
 2108TIP3    H227816   2.990   5.129   1.831  0.0545  1.1801  1.5976
 2109TIP3   OH227817   6.437   1.217   0.366  0.5184 -0.5549 -0.1951
 2109TIP3    H127818   6.455   1.308   0.392 -0.1594 -0.5958  0.4493
 2109TIP3    H227819   6.489   1.205   0.286 -1.5864  1.3622 -2.0236
 2110TIP3   OH227820   4.384   4.674  15.999 -0.2541 -0.4498 -0.3787
 2110TIP3    H127821   4.453   4.626  16.045 -2.4562 -1.5040  2.0982
 2110TIP3    H227822   4.413   4.765  16.002  0.5463 -0.7087  1.6247
 2111TIP3   OH227823   2.747   1.117  12.190 -0.0726 -0.3018 -0.0932
 2111TIP3    H127824   2.746   1.179  12.262 -0.3518 -1.4207  0.8852
 2111TIP3    H227825   2.826   1.140  12.140  1.7769 -1.2930  2.1911
 2112TIP3   OH227826   4.594   4.315   5.977  0.0945 -0.1814  0.0402
 2112TIP3    H127827   4.632   4.228   5.992 -0.4005 -0.5559 -0.7902
 2112TIP3    H227828   4.669   4.369   5.951  0.2209 -0.6777 -0.6601
 2113TIP3   OH227829   2.067   6.219   2.982  0.0679 -0.2276 -0.0396
 2113TIP3    H127830   2.106   6.237   3.067 -0.5351 -1.0301  0.4161
 2113TIP3    H227831   2.130   6.162   2.938 -0.1145 -0.6886  0.2940
 2114TIP3   OH227832   2.869   2.354   3.124  0.0717 -0.6798 -0.2152
 2114TIP3    H127833   2.926   2.422   3.087 -0.7879 -0.8555 -1.9267
 2114TIP3    H227834   2.863   2.377   3.217 -0.4869  1.8306 -0.7888
 2115TIP3   OH227835   0.253   0.639  14.949  0.1107 -0.5429 -1.1634
 2115TIP3    H127836   0.247   0.702  14.877 -0.3212 -0.0642 -0.7175
 2115TIP3    H227837   0.288   0.559  14.908  2.5260  0.5443 -1.3782
 2116TIP3   OH227838   6.320   2.716  11.859  0.1339 -0.5451  0.0748
 2116TIP3    H127839   6.269   2.664  11.796 -1.2329  4.2710 -3.3678
 2116TIP3    H227840   6.255   2.751  11.920  0.6075 -0.7208  0.6888
 2117TIP3   OH227841   6.250   6.601   5.800 -1.0904  0.0083  0.2790
 2117TIP3    H127842   6.333   6.594   5.847 -1.1633  0.0226  0.4119
 2117TIP3    H227843   6.212   6.514   5.804 -1.3153  0.1198  0.6573
 2118TIP3   OH227844   3.035   5.417  15.625 -0.7691 -0.3373  0.1479
 2118TIP3    H127845   2.982   5.477  15.573 -1.9070 -0.1118  1.5212
 2118TIP3    H227846   3.122   5.422  15.585 -0.9784  1.7505 -0.1522
 2119TIP3   OH227847   3.537   4.887   4.979  0.1912 -0.0805  0.5722
 2119TIP3    H127848   3.620   4.908   5.021 -0.1049  0.7287  0.7617
 2119TIP3    H227849   3.470   4.919   5.040 -0.2494  0.5074 -0.1988
 2120TIP3   OH227850   2.863   1.291   4.732 -0.7064 -0.3584  0.1927
 2120TIP3    H127851   2.827   1.246   4.808  0.9942 -0.5810  0.9175
 2120TIP3    H227852   2.942   1.242   4.710  0.5208  1.5198  0.2316
 2121TIP3   OH227853   4.640   0.023   2.200 -0.0838  0.0266 -0.2204
 2121TIP3    H127854   4.563   0.004   2.147  0.5232 -1.6239 -0.5893
 2121TIP3    H227855   4.678  -0.064   2.218  0.3843  0.6128  1.9199
 2122TIP3   OH227856   3.514   1.239  17.498 -0.3315 -0.5175 -0.5241
 2122TIP3    H127857   3.428   1.257  17.536 -0.0206 -0.2309  0.0594
 2122TIP3    H227858   3.564   1.199  17.569 -0.3127 -1.6710 -1.1708
 2123TIP3   OH227859   6.450   3.142  11.446  0.0054  0.2613 -0.0588
 2123TIP3    H127860   6.415   3.231  11.443  0.2381  0.3873  0.6741
 2123TIP3    H227861   6.401   3.094  11.379  0.5224  1.1614 -1.1195
 2124TIP3   OH227862   4.050   1.803  12.349  0.0605  0.6716  0.0739
 2124TIP3    H127863   4.131   1.780  12.302  0.6260  1.1468  0.8011
 2124TIP3    H227864   3.986   1.738  12.318  0.6786  0.3644 -0.6087
 2125TIP3   OH227865   6.313   1.027   4.638 -0.5156 -0.3500  0.0975
 2125TIP3    H127866   6.388   0.978   4.672  0.5428  0.6756 -0.6779
 2125TIP3    H227867   6.286   0.979   4.559 -0.7342 -0.7613  0.4185
 2126TIP3   OH227868   1.760   1.440   0.203 -0.1233  0.6632  0.1301
 2126TIP3    H127869   1.727   1.516   0.155  0.9292  1.1309  0.1231
 2126TIP3    H227870   1.838   1.413   0.156  0.0908  0.2061  0.7239
 2127TIP3   OH227871   0.822   1.907  15.226 -0.3018  0.2805 -0.3723
 2127TIP3    H127872   0.869   1.930  15.146  0.8362  0.4853  0.3300
 2127TIP3    H227873   0.876   1.838  15.267 -0.3995  0.7806  0.6334
 2128TIP3   OH227874   0.033   4.601  15.538  0.0999 -0.1821 -0.0376
 2128TIP3    H127875   0.048   4.667  15.470  1.7501  0.2329  0.6669
 2128TIP3    H227876  -0.031   4.541  15.500 -0.8565  1.3775 -1.0017
 2129TIP3   OH227877   0.838   5.486   5.521  0.2380  0.1217  0.1944
 2129TIP3    H127878   0.784   5.471   5.443 -0.2296 -1.7892  0.8276
 2129TIP3    H227879   0.919   5.523   5.487 -0.1498 -0.1918 -1.1517
 2130TIP3   OH227880   3.692   0.628  14.407 -0.2344 -0.0239 -0.7514
 2130TIP3    H127881   3.637   0.706  14.407 -1.0124 -0.5269  1.0434
 2130TIP3    H227882   3.631   0.556  14.386 -0.1973 -0.5131  0.7083
 2131TIP3   OH227883   2.934   5.684  14.452 -0.0663  0.0451  0.2091
 2131TIP3    H127884   2.849   5.723  14.431 -0.1321  0.6608  1.5654
 2131TIP3    H227885   2.962   5.727  14.532  1.5520 -0.1399 -0.2126
 2132TIP3   OH227886   6.548   5.265   6.278  0.0057 -0.0653  0.5077
 2132TIP3    H127887   6.494   5.186   6.277 -1.0762  0.6326  1.7809
 2132TIP3    H227888   6.557   5.288   6.185  1.2783 -2.2518  0.0045
 2133TIP3   OH227889   5.139   3.032   4.576 -0.1572  0.5850 -0.1087
 2133TIP3    H127890   5.119   2.992   4.660 -1.8148  1.2317 -0.1495
 2133TIP3    H227891   5.157   3.124   4.597  0.0806  0.6045 -0.3895
 2134TIP3   OH227892   4.058   5.981   3.063  0.1392  0.5396 -0.1847
 2134TIP3    H127893   4.042   5.918   3.134  0.2708  0.5432 -0.1506
 2134TIP3    H227894   3.976   6.030   3.056 -1.2637 -1.8790 -2.5295
 2135TIP3   OH227895   2.548   5.133  10.856 -0.4436  0.1837  0.2884
 2135TIP3    H127896   2.458   5.154  10.879  0.0274  1.3491  1.1250
 2135TIP3    H227897   2.601   5.194  10.907  0.7440  1.4303 -2.3012
 2136TIP3   OH227898   4.096   4.396   4.149 -0.6912  0.0999  0.4029
 2136TIP3    H127899   4.136   4.476   4.181 -2.3011  0.6223  1.2271
 2136TIP3    H227900   4.164   4.354   4.096  1.3872  0.2853  2.7155
 2137TIP3   OH227901   1.788   6.013  15.634 -0.4303  0.2462  0.1137
 2137TIP3    H127902   1.765   6.064  15.557  0.3352 -0.6795 -0.7630
 2137TIP3    H227903   1.708   6.009  15.686 -0.8239  1.2801 -0.4020
 2138TIP3   OH227904   1.543   1.348  15.503 -0.4952  0.4504 -0.2535
 2138TIP3    H127905   1.478   1.355  15.433 -1.6997 -2.1076  0.4568
 2138TIP3    H227906   1.627   1.340  15.458 -1.1916 -0.6636 -1.4355
 2139TIP3   OH227907   4.951   1.178  13.588 -0.4952  0.3349 -0.5161
 2139TIP3    H127908   4.880   1.129  13.631 -1.0372  1.2925 -0.3032
 2139TIP3    H227909   4.977   1.244  13.652  2.4990 -1.6499  0.5547
 2140TIP3   OH227910   5.696   4.746  16.306 -0.0419  0.0238  0.5665
 2140TIP3    H127911   5.608   4.761  16.341 -0.3182 -0.7109  0.2075
 2140TIP3    H227912   5.684   4.742  16.211  0.4247  0.1955  0.4974
 2141TIP3   OH227913   1.128   4.650   5.111 -0.0655  0.1154 -0.9499
 2141TIP3    H127914   1.217   4.658   5.146 -0.7170  1.0670  0.5936
 2141TIP3    H227915   1.108   4.737   5.077 -2.2491  1.6507  3.5365
 2142TIP3   OH227916   2.538   5.208  14.766  0.0537 -0.1374  0.0596
 2142TIP3    H127917   2.613   5.239  14.716 -0.5129  0.8307 -0.2180
 2142TIP3    H227918   2.462   5.229  14.712 -0.4167 -1.2205  0.2774
 2143TIP3   OH227919   3.015   6.723  16.488  0.8668  0.5398  0.3145
 2143TIP3    H127920   2.996   6.629  16.482  0.0697  0.6152  1.3083
 2143TIP3    H227921   2.932   6.765  16.466  1.7472  1.0921 -2.1870
 2144TIP3   OH227922   2.385   3.336   0.604 -0.0151 -0.2928  0.0212
 2144TIP3    H127923   2.321   3.356   0.536  1.5280  0.9211 -1.1607
 2144TIP3    H227924   2.466   3.318   0.555  1.2253  0.9386  1.5070
 2145TIP3   OH227925   0.183   3.273  12.626  0.0236  0.2332  0.0417
 2145TIP3    H127926   0.261   3.300  12.577  1.0244 -0.8728  0.9344
 2145TIP3    H227927   0.146   3.354  12.659  2.1997  0.6904  1.5837
 2146TIP3   OH227928   5.370   2.343  15.537 -0.3396 -0.0857  0.1497
 2146TIP3    H127929   5.414   2.395  15.471  0.0858  0.0376  0.5265
 2146TIP3    H227930   5.308   2.289  15.488  1.2307 -1.3216 -0.5464
 2147TIP3   OH227931   3.950   3.834   3.113 -0.8096 -0.1638 -0.9196
 2147TIP3    H127932   3.961   3.920   3.153 -1.6839  0.3564 -1.7630
 2147TIP3    H227933   4.039   3.807   3.089 -0.1623 -0.7093  1.7096
 2148TIP3   OH227934   4.731   4.287  12.289  0.3201 -0.2714 -0.0081
 2148TIP3    H127935   4.695   4.318  12.205  0.2470 -0.9292 -0.2219
 2148TIP3    H227936   4.821   4.318  12.289  0.7893 -1.5775 -1.0274
 2149TIP3   OH227937   3.370   0.036  16.367  0.2124  0.8618 -0.7183
 2149TIP3    H127938   3.322  -0.025  16.311 -0.8625 -0.2158  1.2716
 2149TIP3    H227939   3.311   0.053  16.440  1.0930  3.1692 -0.4684
 2150TIP3   OH227940   3.062   6.622   4.391 -0.0331 -0.2249  0.3305
 2150TIP3    H127941   3.060   6.677   4.470 -0.7057  1.4002 -0.7511
 2150TIP3    H227942   2.971   6.592   4.381  0.0635 -0.4751  0.2080
 2151TIP3   OH227943   5.814   2.350  14.664  0.3261 -0.3728 -0.1979
 2151TIP3    H127944   5.803   2.433  14.711  0.8458 -0.8034  0.7079
 2151TIP3    H227945   5.903   2.323  14.684 -0.4828 -2.1733  1.2687
 2152TIP3   OH227946   4.112   6.354  12.215 -0.0584 -0.1067  0.6145
 2152TIP3    H127947   4.181   6.404  12.258  0.1259  0.2813 -0.1169
 2152TIP3    H227948   4.138   6.351  12.123  0.6255 -2.7004  0.8189
 2153TIP3   OH227949   0.829   5.494  14.882  0.1568  0.0531  0.0878
 2153TIP3    H127950   0.886   5.451  14.818  1.1383 -0.1095  1.0519
 2153TIP3    H227951   0.741   5.484  14.845  0.7593  0.6440 -1.6135
 2154TIP3   OH227952   5.110   3.772  13.525 -0.0718  0.2631  0.4877
 2154TIP3    H127953   5.049   3.703  13.551  0.0727 -0.4158 -0.8902
 2154TIP3    H227954   5.191   3.725  13.505  0.0428  0.8355 -0.4267
 2155TIP3   OH227955   5.855   0.048   4.454 -0.3977 -0.0760 -0.5345
 2155TIP3    H127956   5.802  -0.028   4.429 -1.0995 -0.0040  0.6381
 2155TIP3    H227957   5.822   0.072   4.540  0.8180  0.6596 -0.2497
 2156TIP3   OH227958   1.474   6.179   1.744 -0.5012 -0.6714  0.3167
 2156TIP3    H127959   1.516   6.261   1.772  0.5889 -2.2117  3.7038
 2156TIP3    H227960   1.523   6.153   1.666  0.0641  1.1323  0.0019
 2157TIP3   OH227961   5.758   0.391   0.554 -0.0161 -0.0138  0.2847
 2157TIP3    H127962   5.849   0.367   0.571 -0.1041 -0.6425 -0.0933
 2157TIP3    H227963   5.709   0.345   0.623  0.0319  1.1315  1.1071
 2158TIP3   OH227964   5.106   2.380   5.407 -0.1014 -0.2295  0.5724
 2158TIP3    H127965   5.192   2.351   5.436  0.9008  0.5879 -1.3918
 2158TIP3    H227966   5.055   2.299   5.399  0.2817 -0.6767  2.2214
 2159TIP3   OH227967   3.296   6.617   6.037  0.0640 -0.1879 -0.2759
 2159TIP3    H127968   3.248   6.684   5.989  1.5396  0.6226 -0.6897
 2159TIP3    H227969   3.274   6.634   6.129  0.4167  0.8894 -0.3708
 2160TIP3   OH227970   3.477   4.932   0.987 -0.5768  0.2269  0.1463
 2160TIP3    H127971   3.417   4.909   0.916  0.4111  1.2209 -1.0509
 2160TIP3    H227972   3.420   4.947   1.063 -1.6326 -1.1217 -0.3293
 2161TIP3   OH227973   2.946   6.242  16.876 -0.2053 -0.1130  0.2477
 2161TIP3    H127974   2.942   6.333  16.907  2.8892  0.7793 -1.5455
 2161TIP3    H227975   2.866   6.231  16.825  0.5189  2.6054 -1.7173
 2162TIP3   OH227976   5.837   3.145   3.541 -0.3674  0.4336 -0.8165
 2162TIP3    H127977   5.861   3.069   3.489  0.1635  0.5003 -0.6785
 2162TIP3    H227978   5.916   3.165   3.592 -0.5396  1.0020 -0.7637
 2163TIP3   OH227979   0.793   5.155  15.268 -0.0714  0.0826 -0.0687
 2163TIP3    H127980   0.886   5.143  15.290 -0.0055  0.7141  0.0331
 2163TIP3    H227981   0.781   5.250  15.269 -1.0240 -0.0256  1.1746
 2164TIP3   OH227982   0.949   4.440  14.217 -0.2374  0.3108  0.4612
 2164TIP3    H127983   0.996   4.500  14.274 -0.0205 -0.7206  1.3879
 2164TIP3    H227984   0.999   4.359  14.221 -1.3682 -0.4004  0.4109
 2165TIP3   OH227985   1.653   5.275   1.863  0.4190 -0.2082 -0.1519
 2165TIP3    H127986   1.729   5.235   1.821  0.4304  0.0712 -0.3959
 2165TIP3    H227987   1.643   5.226   1.945  0.1534 -1.0341 -0.6645
 2166TIP3   OH227988   5.100   5.300  16.372 -0.3621 -1.0118 -0.5663
 2166TIP3    H127989   5.131   5.215  16.403 -1.0254 -0.6148  1.2953
 2166TIP3    H227990   5.012   5.283  16.338 -0.9191 -0.9341  0.7672
 2167TIP3   OH227991   6.381   4.516  15.312  0.1414  0.2028  0.8822
 2167TIP3    H127992   6.470   4.507  15.347  0.3425  0.8091  0.5419
 2167TIP3    H227993   6.341   4.585  15.366  0.7060  1.7041 -0.5077
 2168TIP3   OH227994   2.820   0.729   1.161 -0.2294 -0.1295 -0.1324
 2168TIP3    H127995   2.835   0.747   1.069  0.4393  0.0021 -0.0059
 2168TIP3    H227996   2.802   0.814   1.200  0.5287 -0.0384  0.0372
 2169TIP3   OH227997   4.148   6.200   2.325  0.2083  0.0582 -0.0868
 2169TIP3    H127998   4.117   6.152   2.401  0.3126  0.9806  0.5633
 2169TIP3    H227999   4.192   6.277   2.362  1.7081 -0.3118 -1.0240
 2170TIP3   OH228000   6.158   6.229  15.700  0.3089  0.2622  0.0343
 2170TIP3    H128001   6.205   6.151  15.669  0.0854  0.5722 -1.1564
 2170TIP3    H228002   6.131   6.207  15.789  3.0747  0.2315  0.9724
 2171TIP3   OH228003   2.150   4.038   2.634 -0.0457 -0.2343 -0.3430
 2171TIP3    H128004   2.143   4.093   2.712  0.0081 -0.1417 -0.4026
 2171TIP3    H228005   2.111   4.091   2.564 -0.7413 -0.5957 -0.2441
 2172TIP3   OH228006   4.121   1.385   1.224  0.1141  0.3350 -0.1496
 2172TIP3    H128007   4.201   1.375   1.171 -1.1430 -0.4707 -2.0190
 2172TIP3    H228008   4.056   1.418   1.162 -1.2014  0.2809  1.1637
 2173TIP3   OH228009   0.160   1.620  14.640 -0.0058  0.1145 -0.0105
 2173TIP3    H128010   0.125   1.536  14.669  0.4828 -1.8923 -4.4171
 2173TIP3    H228011   0.083   1.673  14.618 -0.3375  1.2663  3.3991
 2174TIP3   OH228012   0.886   0.698  13.833 -0.4510  0.2864 -0.0781
 2174TIP3    H128013   0.871   0.694  13.927 -0.8506  0.2393 -0.1387
 2174TIP3    H228014   0.951   0.767  13.821 -1.7233  1.5549  0.0941
 2175TIP3   OH228015   4.397   3.731   6.338 -0.2749  0.4611  0.0476
 2175TIP3    H128016   4.479   3.687   6.315 -0.3608 -0.8100  1.9404
 2175TIP3    H228017   4.337   3.709   6.267  0.6378  0.3372 -0.7121
 2176TIP3   OH228018   1.900   4.444  15.476 -0.3414 -0.2848 -0.5045
 2176TIP3    H128019   1.885   4.433  15.382 -0.1797  2.3023 -0.8920
 2176TIP3    H228020   1.812   4.449  15.514 -0.4178 -2.1311 -0.3582
 2177TIP3   OH228021   5.654   5.441   2.417  0.3356  0.0372 -0.1818
 2177TIP3    H128022   5.606   5.369   2.376  0.9464 -0.9456  0.7630
 2177TIP3    H228023   5.705   5.479   2.345 -0.1188 -0.3710 -0.7324
 2178TIP3   OH228024   5.884   3.557   2.415 -0.2200  1.1333 -0.1509
 2178TIP3    H128025   5.847   3.528   2.498  0.4386  2.2467  0.5593
 2178TIP3    H228026   5.924   3.479   2.378  2.7756  1.2966  2.3607
 2179TIP3   OH228027   4.873   3.770   4.364  0.2016  0.2014  0.3097
 2179TIP3    H128028   4.778   3.753   4.368  0.2155  0.4017  2.3988
 2179TIP3    H228029   4.881   3.864   4.378  0.7302  0.0931  0.7509
 2180TIP3   OH228030   4.513   1.108   2.751 -0.2436  0.1842 -0.0351
 2180TIP3    H128031   4.530   1.085   2.842 -1.3028  1.3638  0.4933
 2180TIP3    H228032   4.578   1.059   2.701 -1.0055 -2.1908  1.1535
 2181TIP3   OH228033   0.276   5.296   0.273  0.2256 -0.3668  0.2620
 2181TIP3    H128034   0.211   5.251   0.219 -2.1572  0.8473  1.9467
 2181TIP3    H228035   0.317   5.360   0.214 -0.2079 -1.0307 -0.7909
 2182TIP3   OH228036   0.986   6.493   6.343  0.7785 -0.2638 -0.0129
 2182TIP3    H128037   0.900   6.515   6.379  0.3034  1.3159 -1.9593
 2182TIP3    H228038   1.047   6.515   6.414 -0.3730 -1.5393  1.4502
 2183TIP3   OH228039   0.836   5.176  13.169  0.4797 -0.0432 -0.1184
 2183TIP3    H128040   0.789   5.258  13.183 -0.1932 -0.3064 -0.7660
 2183TIP3    H228041   0.875   5.184  13.083  2.0078  0.3403  0.5876
 2184TIP3   OH228042   3.657   0.620  11.487 -0.0509 -0.0282 -0.2919
 2184TIP3    H128043   3.637   0.675  11.412 -0.1199  0.3145 -0.0247
 2184TIP3    H228044   3.750   0.600  11.479 -0.5207 -1.9186 -1.7342
 2185TIP3   OH228045   0.161   1.766  15.366 -0.1399  0.2401 -0.0528
 2185TIP3    H128046   0.179   1.672  15.361 -0.5968 -0.2005  3.7226
 2185TIP3    H228047   0.244   1.805  15.395 -0.1596  0.9187 -0.8839
 2186TIP3   OH228048   4.953   1.571   5.059  0.0967  0.1782  0.2650
 2186TIP3    H128049   5.042   1.542   5.041  1.3311  3.2102  0.7742
 2186TIP3    H228050   4.964   1.644   5.121 -2.7397  0.7151  0.2739
 2187TIP3   OH228051   0.265   3.451  14.255  1.0797  0.2502  0.0552
 2187TIP3    H128052   0.303   3.476  14.171 -1.1203  0.5105 -0.9353
 2187TIP3    H228053   0.309   3.369  14.277  0.8167 -0.5066 -2.0104
 2188TIP3   OH228054   5.690   4.347   0.055  0.0942  0.2268  0.4335
 2188TIP3    H128055   5.618   4.309   0.105  1.0619 -0.1199  1.6085
 2188TIP3    H228056   5.669   4.326  -0.037 -0.3887 -1.4733  0.8890
 2189TIP3   OH228057   4.955   3.129  12.862 -0.1744  0.4789 -0.1251
 2189TIP3    H128058   5.001   3.212  12.853 -1.4347  1.0625 -1.5312
 2189TIP3    H228059   5.025   3.065  12.877  0.8676  1.6900  0.3722
 2190TIP3   OH228060   5.381   3.962   4.699 -0.1752  0.0618 -0.2023
 2190TIP3    H128061   5.320   4.026   4.661  0.6293  1.4152  0.6776
 2190TIP3    H228062   5.390   3.990   4.790  1.8005 -0.0498 -0.3259
 2191TIP3   OH228063   4.734   1.873   5.334 -0.2319  0.7653 -0.1938
 2191TIP3    H128064   4.720   1.957   5.378 -1.5124  0.6556 -0.3323
 2191TIP3    H228065   4.749   1.895   5.242  2.2789  0.9849  0.2097
 2192TIP3   OH228066   5.456   4.492   1.783  0.5818 -0.2732  0.1435
 2192TIP3    H128067   5.479   4.559   1.847  0.1755 -0.3751  0.3971
 2192TIP3    H228068   5.366   4.469   1.803  1.2205 -2.1304  1.1999
 2193TIP3   OH228069   5.852   3.101  13.694  0.0458  0.2286  0.2815
 2193TIP3    H128070   5.832   3.145  13.612  0.6245 -1.1121 -0.6200
 2193TIP3    H228071   5.937   3.059  13.679 -0.7460 -1.7126  0.8143
 2194TIP3   OH228072   4.561   1.840   2.943  0.0622 -0.5443  0.1784
 2194TIP3    H128073   4.575   1.776   3.013 -0.4056  0.1859  0.9644
 2194TIP3    H228074   4.529   1.789   2.869  1.7834 -1.5137  0.0513
 2195TIP3   OH228075   6.212   3.012  17.121 -0.5319  0.2464  0.3303
 2195TIP3    H128076   6.191   3.019  17.027 -1.9444 -0.2390  0.5828
 2195TIP3    H228077   6.275   2.941  17.126  0.9732  1.4600 -0.4240
 2196TIP3   OH228078   5.753   6.066  13.579 -0.9092 -0.1492  0.0448
 2196TIP3    H128079   5.828   6.099  13.628 -0.4390  0.7705 -1.2264
 2196TIP3    H228080   5.789   6.045  13.492 -1.9230 -0.6378 -0.2745
 2197TIP3   OH228081   0.023   3.815  11.812 -0.2485 -0.6483 -0.2087
 2197TIP3    H128082  -0.062   3.771  11.816  0.2502 -1.5375  2.1645
 2197TIP3    H228083   0.086   3.747  11.839  0.9476  0.5943  0.2300
 2198TIP3   OH228084   5.906   0.664   2.351 -0.5530  0.3097 -0.2753
 2198TIP3    H128085   5.981   0.617   2.313  0.4192  2.0672 -0.6179
 2198TIP3    H228086   5.869   0.602   2.413  2.7702  0.2309  1.8770
 2199TIP3   OH228087   4.428   0.355  15.635  0.0383 -0.0941 -0.6628
 2199TIP3    H128088   4.379   0.293  15.689 -0.0319  0.2427 -0.3376
 2199TIP3    H228089   4.362   0.417  15.604  0.4362  1.1736  0.8942
 2200TIP3   OH228090   6.272   1.435  13.393 -0.0764 -0.0639 -0.3302
 2200TIP3    H128091   6.300   1.477  13.312  3.5391 -1.1095  0.2075
 2200TIP3    H228092   6.248   1.346  13.366  0.8603 -0.3268 -0.3315
 2201TIP3   OH228093   1.254   4.472   1.758 -0.3951  0.1224 -0.1931
 2201TIP3    H128094   1.338   4.464   1.713  0.0586  1.9917  0.2493
 2201TIP3    H228095   1.189   4.447   1.692  0.3417  1.4647 -1.4888
 2202TIP3   OH228096   6.661   4.899  15.971  0.6191  0.3454 -0.0645
 2202TIP3    H128097   6.601   4.933  16.038  0.6483  0.6322 -0.1822
 2202TIP3    H228098   6.624   4.929  15.888 -0.2905 -1.3253 -0.3020
 2203TIP3   OH228099   5.123   5.468   6.743  0.2955 -0.2372 -0.2775
 2203TIP3    H128100   5.212   5.480   6.778  0.5785  1.7535 -1.5068
 2203TIP3    H228101   5.083   5.555   6.751 -1.5352 -1.0818  0.1585
 2204TIP3   OH228102   0.335   4.084  15.889 -0.2538 -0.3691 -0.3109
 2204TIP3    H128103   0.397   4.012  15.878  0.3843  0.0993  0.1641
 2204TIP3    H228104   0.389   4.160  15.910 -1.0267 -0.0727  0.7007
 2205TIP3   OH228105   3.812   5.162  12.005  0.0856 -0.2020 -0.4674
 2205TIP3    H128106   3.733   5.134  11.959  0.8965 -0.8157 -1.5224
 2205TIP3    H228107   3.876   5.094  11.986  1.0164  0.5352 -0.0245
 2206TIP3   OH228108   6.119   5.944  12.964 -0.6206 -0.3914  0.2187
 2206TIP3    H128109   6.094   6.032  12.994  0.0412 -0.0967 -0.0649
 2206TIP3    H228110   6.195   5.959  12.907  0.6314 -1.2883  1.5637
 2207TIP3   OH228111   1.665   0.796   5.096  0.5200  0.0363 -0.0613
 2207TIP3    H128112   1.712   0.860   5.042 -0.5334 -0.6678 -1.8790
 2207TIP3    H228113   1.707   0.712   5.075  0.0140 -0.2638  0.1248
 2208TIP3   OH228114   4.771   0.420  14.039  0.1183  0.3926 -0.0056
 2208TIP3    H128115   4.776   0.337  13.992 -0.8710  0.1379  0.3148
 2208TIP3    H228116   4.860   0.435  14.070  0.4183 -0.2880 -0.5011
 2209TIP3   OH228117   4.089   5.880  16.590  0.0446  0.0444  0.2201
 2209TIP3    H128118   4.066   5.835  16.509  1.6265 -0.3102 -0.0549
 2209TIP3    H228119   4.058   5.822  16.659 -1.1747  0.2757 -0.0930
 2210TIP3   OH228120   5.690   6.060  14.973  0.2761  0.7432 -0.1186
 2210TIP3    H128121   5.714   6.070  14.881  0.9800  1.4492  0.1296
 2210TIP3    H228122   5.772   6.033  15.015 -0.0873  0.2445  0.2755
 2211TIP3   OH228123   2.476   2.391  17.604 -0.4100 -0.4277 -0.0460
 2211TIP3    H128124   2.434   2.307  17.587 -0.1384 -0.6593  0.4488
 2211TIP3    H228125   2.416   2.436  17.663 -0.3378 -0.4442  0.0378
 2212TIP3   OH228126   3.388   3.834   4.706  0.2058  0.0986 -0.1825
 2212TIP3    H128127   3.294   3.828   4.695  0.0337 -1.4355  1.6147
 2212TIP3    H228128   3.421   3.863   4.621 -2.0331  2.9145 -0.2172
 2213TIP3   OH228129   4.243   4.082  11.882  0.8439  0.0331  0.4709
 2213TIP3    H128130   4.313   4.058  11.943 -0.1243 -1.6921  0.9827
 2213TIP3    H228131   4.241   4.010  11.820  0.0334  0.4599 -0.0049
 2214TIP3   OH228132   5.282   5.070  16.945  0.5592 -0.0011 -0.2780
 2214TIP3    H128133   5.256   5.058  17.036  0.2593  0.0184 -0.3600
 2214TIP3    H228134   5.228   5.008  16.896  0.2318  0.4645 -0.5148
 2215TIP3   OH228135   1.013   5.346  11.266 -0.7625 -0.0092  0.3820
 2215TIP3    H128136   0.962   5.370  11.189 -0.9836 -1.5554  0.0251
 2215TIP3    H228137   1.009   5.424  11.322 -0.5359  1.1693 -1.1662
 2216TIP3   OH228138   1.138   3.161   5.170  0.4510  0.0231  0.1456
 2216TIP3    H128139   1.173   3.248   5.185  0.4820  0.1021 -0.3758
 2216TIP3    H228140   1.212   3.110   5.137  0.0971  0.1751 -0.9005
 2217TIP3   OH228141   1.699   2.545  17.538  0.1168  0.1246  0.1904
 2217TIP3    H128142   1.780   2.497  17.552 -0.6493 -1.3504 -0.1822
 2217TIP3    H228143   1.695   2.608  17.609  2.1132  1.0104 -0.3968
 2218TIP3   OH228144   2.501   5.022   2.584  0.3167  0.3881  0.1828
 2218TIP3    H128145   2.491   4.957   2.515 -0.3146 -0.0310  0.6513
 2218TIP3    H228146   2.582   5.068   2.563  1.3342 -1.2239  0.3813
 2219TIP3   OH228147   0.706   3.381  15.453  0.2125  0.0167 -0.3786
 2219TIP3    H128148   0.673   3.456  15.404  0.4249  0.8838  0.7501
 2219TIP3    H228149   0.775   3.417  15.509  0.6857 -1.1218 -0.1822
 2220TIP3   OH228150   6.185   2.367   3.757  0.9233  0.7798  0.5103
 2220TIP3    H128151   6.188   2.286   3.808 -1.5448  0.0847 -0.3061
 2220TIP3    H228152   6.204   2.340   3.667 -0.6152  0.9147  0.1099
 2221TIP3   OH228153   2.622   0.344  14.117 -0.4570 -0.3930 -0.1438
 2221TIP3    H128154   2.677   0.269  14.095 -2.1606 -1.5888 -0.5166
 2221TIP3    H228155   2.684   0.411  14.147  1.2322 -1.4261 -1.1685
 2222TIP3   OH228156   6.011   0.053   1.875  0.6350 -0.2700  0.2460
 2222TIP3    H128157   6.007   0.099   1.959  0.8180 -0.7094  0.5035
 2222TIP3    H228158   6.032   0.121   1.811  1.2861 -0.0594  0.6751
 2223TIP3   OH228159   3.657   0.863  12.658  0.2380  0.2251  0.2481
 2223TIP3    H128160   3.713   0.846  12.583  0.2447 -0.6304  0.4383
 2223TIP3    H228161   3.578   0.811  12.641 -0.9433  2.1486 -0.4928
 2224TIP3   OH228162   2.583   2.427  13.454 -0.1976 -0.6524  0.5224
 2224TIP3    H128163   2.646   2.486  13.496 -0.4242  0.0826 -0.1618
 2224TIP3    H228164   2.587   2.449  13.361 -1.9685 -0.0998  0.5436
 2225TIP3   OH228165   3.283   0.362   4.580 -0.1705 -0.1887 -0.3138
 2225TIP3    H128166   3.369   0.398   4.557  0.0735 -0.4467  0.1865
 2225TIP3    H228167   3.297   0.267   4.580 -0.4072 -0.2224 -0.0246
 2226TIP3   OH228168   5.342   4.492   2.989 -0.6629 -0.6696 -0.2268
 2226TIP3    H128169   5.436   4.474   2.990 -0.2567  1.0124 -1.5342
 2226TIP3    H228170   5.317   4.498   3.081  0.8467  0.3135  0.1582
 2227TIP3   OH228171   5.883   0.065   0.795  0.1329  0.1635 -0.3378
 2227TIP3    H128172   5.939  -0.013   0.798  2.2411  1.5768 -0.9489
 2227TIP3    H228173   5.844   0.064   0.707 -1.8866 -1.4532  0.4805
 2228TIP3   OH228174   3.383   4.810  16.836  0.5454 -0.2933  0.2306
 2228TIP3    H128175   3.457   4.870  16.849  0.5180 -0.4335  1.0529
 2228TIP3    H228176   3.318   4.863  16.789  1.1902 -0.1927 -0.5743
 2229TIP3   OH228177   1.438   4.921   6.180  0.2229 -0.1887  0.2769
 2229TIP3    H128178   1.430   5.000   6.126  1.6444 -1.2133 -1.5708
 2229TIP3    H228179   1.481   4.951   6.260 -2.5866  1.5126  1.2667
 2230TIP3   OH228180   1.237   6.358   1.702 -0.4709 -0.3946 -0.0585
 2230TIP3    H128181   1.175   6.353   1.774 -1.0173  1.8656 -0.3004
 2230TIP3    H228182   1.312   6.306   1.730 -1.7688 -1.7793  0.9559
 2231TIP3   OH228183   4.960   4.097   0.433  0.2404 -0.0415 -0.2245
 2231TIP3    H128184   4.868   4.077   0.417  0.4130 -0.3139 -0.9081
 2231TIP3    H228185   5.007   4.017   0.409  0.8483  0.7990 -2.0248
 2232TIP3   OH228186   4.585   5.830  14.595  0.2066  0.1416 -0.8646
 2232TIP3    H128187   4.650   5.807  14.529 -0.8706 -0.8817 -1.6086
 2232TIP3    H228188   4.603   5.771  14.669  0.1325 -0.1423 -1.0708
 2233TIP3   OH228189   4.120   2.341  17.335  1.1846  0.0046 -0.1028
 2233TIP3    H128190   4.159   2.415  17.381  1.0837  1.0829 -1.6722
 2233TIP3    H228191   4.194   2.284  17.314  1.4983  0.4919 -0.3392
 2234TIP3   OH228192   0.719   2.449   3.295  0.3033  0.2680 -0.5885
 2234TIP3    H128193   0.696   2.459   3.202 -0.0624  1.6185 -0.3782
 2234TIP3    H228194   0.807   2.411   3.293 -0.5089 -1.6701 -1.4443
 2235TIP3   OH228195   0.163   1.869  16.024  0.5280 -0.0129  0.1410
 2235TIP3    H128196   0.071   1.843  16.031  0.2102  1.0116 -0.1140
 2235TIP3    H228197   0.161   1.964  16.018  1.8194  0.4761  4.3273
 2236TIP3   OH228198   6.220   4.955  14.894  0.2251 -0.0629 -0.2332
 2236TIP3    H128199   6.195   5.046  14.911  0.0649 -0.1702  0.1049
 2236TIP3    H228200   6.248   4.955  14.803 -1.6814 -0.0885 -0.8601
 2237TIP3   OH228201   6.608   6.737  12.314  0.0089 -0.5575 -0.3648
 2237TIP3    H128202   6.612   6.645  12.289 -2.2790 -1.2754  1.5355
 2237TIP3    H228203   6.644   6.739  12.403 -1.4603  0.0375  0.2576
 2238TIP3   OH228204   5.229   5.216   0.885  0.0270  0.4273 -0.0204
 2238TIP3    H128205   5.295   5.235   0.818 -0.9596  0.1983 -1.0841
 2238TIP3    H228206   5.222   5.297   0.935  2.1916 -0.0051  1.0911
 2239TIP3   OH228207   0.047   0.015  17.613 -0.4903 -0.1580 -0.2178
 2239TIP3    H128208   0.062   0.041  17.521  0.6583  0.5159  0.1274
 2239TIP3    H228209   0.063  -0.079  17.614  2.5872  0.2527 -0.2013
 2240TIP3   OH228210   3.813   3.903   4.001 -0.2550 -0.7771  0.3340
 2240TIP3    H128211   3.857   3.977   4.044  0.3755 -0.3344 -1.0336
 2240TIP3    H228212   3.831   3.828   4.058 -1.0421  0.1242  1.8357
 2241TIP3   OH228213   3.214   5.291  16.412  0.0575  0.1938 -0.1480
 2241TIP3    H128214   3.241   5.290  16.504  0.3133  1.5259 -0.1907
 2241TIP3    H228215   3.183   5.380  16.397 -2.2938 -0.6576 -0.7200
 2242TIP3   OH228216   4.906   5.023   3.888  0.6360  0.4110  0.0537
 2242TIP3    H128217   4.905   5.036   3.983  2.6814  1.9847 -0.0610
 2242TIP3    H228218   4.817   5.046   3.860  0.0206 -0.0192  1.5660
 2243TIP3   OH228219   5.124   5.695  17.141  0.3254  0.2292  0.3501
 2243TIP3    H128220   5.084   5.686  17.054  1.2067 -0.6395  0.0069
 2243TIP3    H228221   5.051   5.691  17.202 -0.6242  3.3875 -0.4088
 2244TIP3   OH228222   4.133   4.160  16.903  0.3243 -0.2691  0.2038
 2244TIP3    H128223   4.225   4.147  16.922  0.2707  0.4874  1.0875
 2244TIP3    H228224   4.092   4.075  16.920  0.8495 -0.5998 -0.1730
 2245TIP3   OH228225   4.839   3.147  14.064 -0.1919  0.1802 -0.5599
 2245TIP3    H128226   4.852   3.114  14.153 -0.0885 -0.5905 -0.8507
 2245TIP3    H228227   4.926   3.174  14.035  0.3331 -2.1431 -1.4041
 2246TIP3   OH228228   5.119   5.044  17.669  0.2217 -0.0852  0.5881
 2246TIP3    H128229   5.123   5.138  17.687  1.1747 -0.2456  1.2696
 2246TIP3    H228230   5.078   5.007  17.747 -0.9738 -0.1547 -0.0489
 2247TIP3   OH228231   1.061   4.823   1.748  0.0401  0.6808  0.1442
 2247TIP3    H128232   1.080   4.777   1.829  0.8433 -1.4385 -1.1524
 2247TIP3    H228233   1.142   4.815   1.697 -0.8647  0.7820 -1.3573
 2248TIP3   OH228234   3.742   0.434   4.720  0.1961 -0.2098  0.6454
 2248TIP3    H128235   3.810   0.400   4.662 -0.5830 -0.7301  0.0222
 2248TIP3    H228236   3.698   0.356   4.754 -1.1355  0.1463 -0.2177
 2249TIP3   OH228237   6.481   2.185   0.271  0.7324  0.1297  0.0758
 2249TIP3    H128238   6.463   2.237   0.349 -0.2327  0.2779 -0.2377
 2249TIP3    H228239   6.570   2.212   0.245  0.7192  0.7163  0.6192
 2250TIP3   OH228240   3.298   6.450  12.337 -0.2707  0.1481 -0.1047
 2250TIP3    H128241   3.320   6.514  12.269 -0.2202  1.0427  0.7421
 2250TIP3    H228242   3.312   6.365  12.294  1.3141  0.6842 -0.7309
 2251TIP3   OH228243   5.188   0.751   2.983 -0.0131  0.2843 -0.0638
 2251TIP3    H128244   5.228   0.667   3.006 -1.1205  0.4982  2.9984
 2251TIP3    H228245   5.172   0.745   2.888  2.8539 -1.6286 -0.5357
 2252TIP3   OH228246   4.417   4.437  12.819  0.3438  0.8654  0.4683
 2252TIP3    H128247   4.492   4.410  12.768 -1.6206 -4.3629 -0.3064
 2252TIP3    H228248   4.349   4.458  12.755 -0.2602  0.7340  1.0407
 2253TIP3   OH228249   5.940   0.961  16.840 -0.5855  0.5667 -0.3208
 2253TIP3    H128250   5.911   0.879  16.800 -1.0645 -0.2073  1.5042
 2253TIP3    H228251   5.877   0.976  16.911 -0.3555  2.3910 -0.4613
 2254TIP3   OH228252   1.193   2.230  12.888  0.2922 -0.1630 -0.0630
 2254TIP3    H128253   1.237   2.284  12.953  0.9146 -0.3297 -0.3350
 2254TIP3    H228254   1.117   2.282  12.860  0.1953  0.0392  0.5621
 2255TIP3   OH228255   1.435   0.253   3.131  0.2406  0.0201  0.7935
 2255TIP3    H128256   1.494   0.232   3.058  0.5947  2.7233  0.2164
 2255TIP3    H228257   1.489   0.245   3.209  1.2635  1.8594  0.3208
 2256TIP3   OH228258   5.697   2.241   5.089 -0.5403 -0.2873 -0.2972
 2256TIP3    H128259   5.749   2.299   5.034 -0.0835  0.0827  0.5144
 2256TIP3    H228260   5.631   2.204   5.029 -0.1799  0.2516 -1.0425
 2257TIP3   OH228261   4.896   6.141   2.150 -0.6791  0.2876  0.1473
 2257TIP3    H128262   4.992   6.144   2.152 -0.7149  1.4575  1.0267
 2257TIP3    H228263   4.874   6.147   2.057  0.1000 -0.1281 -0.0758
 2258TIP3   OH228264   5.194   3.570   0.008 -0.1874 -0.3211  0.1722
 2258TIP3    H128265   5.119   3.589   0.065 -0.7010  2.3209 -1.2482
 2258TIP3    H228266   5.165   3.497  -0.047 -1.7160  0.5920 -0.2891
 2259TIP3   OH228267   5.970   6.689  14.259 -0.4395 -0.1772 -0.0468
 2259TIP3    H128268   6.005   6.645  14.182 -1.8465 -1.6893  0.1289
 2259TIP3    H228269   5.877   6.701  14.239 -0.9775 -1.2405  1.6759
 2260TIP3   OH228270   1.690   1.587  13.312  0.1105 -0.2459  0.0471
 2260TIP3    H128271   1.743   1.630  13.245 -0.0469 -0.2117 -0.0572
 2260TIP3    H228272   1.753   1.556  13.377  0.2560 -0.1912 -0.0673
 2261TIP3   OH228273   2.149   2.711   5.694 -0.3896 -0.0810  0.1983
 2261TIP3    H128274   2.062   2.684   5.722 -0.5959 -1.4202 -1.5967
 2261TIP3    H228275   2.134   2.788   5.639 -0.1131  1.5762  2.2949
 2262TIP3   OH228276   5.154   2.457   6.331  0.1579 -0.2541  0.5075
 2262TIP3    H128277   5.208   2.534   6.351 -1.7156  1.0526  0.8238
 2262TIP3    H228278   5.064   2.490   6.336 -0.6360 -1.7705 -2.2925
 2263TIP3   OH228279   4.945   3.758  15.590  0.3273 -0.1598  0.1421
 2263TIP3    H128280   4.936   3.837  15.643 -0.1831 -0.4734  0.5282
 2263TIP3    H228281   5.017   3.779  15.529 -0.1307  0.7877 -0.1017
 2264TIP3   OH228282   4.841   6.597  17.397 -0.0280 -0.4024  0.1647
 2264TIP3    H128283   4.899   6.600  17.472 -0.2199  0.2937  0.2950
 2264TIP3    H228284   4.773   6.534  17.421  0.1366 -0.4863  0.4052
 2265TIP3   OH228285   6.640   3.998   1.952 -0.0708 -0.5091  0.1832
 2265TIP3    H128286   6.576   4.009   1.883  0.5708  0.9479 -0.2151
 2265TIP3    H228287   6.701   4.071   1.941 -0.0447 -0.1216  2.3827
 2266TIP3   OH228288   4.208   2.067  15.912 -0.2154  0.3387  0.0875
 2266TIP3    H128289   4.289   2.073  15.963  0.5178  1.1476 -1.1285
 2266TIP3    H228290   4.212   1.980  15.872 -0.7339 -0.2509  1.2692
 2267TIP3   OH228291   1.839   1.584  15.830 -0.0822  0.8710 -0.3149
 2267TIP3    H128292   1.811   1.503  15.872  1.6146  0.0486 -0.7167
 2267TIP3    H228293   1.922   1.606  15.871  0.3497  1.4446 -1.4398
 2268TIP3   OH228294   0.554   5.511  13.430 -0.9143 -0.4943 -0.1917
 2268TIP3    H128295   0.518   5.452  13.495  0.1070 -2.1426 -1.0523
 2268TIP3    H228296   0.584   5.587  13.480 -3.6284  0.0511  0.7655
 2269TIP3   OH228297   1.877   6.254   1.027 -0.7061  0.2660  0.2164
 2269TIP3    H128298   1.810   6.218   1.086  1.2663  0.2468  2.6438
 2269TIP3    H228299   1.890   6.187   0.960 -0.5613 -1.4284  1.8543
 2270TIP3   OH228300   4.638   5.839   4.880  0.0502 -0.2637  0.1404
 2270TIP3    H128301   4.694   5.913   4.855 -0.3368  0.1910  0.5953
 2270TIP3    H228302   4.571   5.836   4.812 -0.3539  0.2644  0.5128
 2271TIP3   OH228303   5.845   2.648  14.755 -0.6813 -0.4702 -0.5330
 2271TIP3    H128304   5.805   2.718  14.703  0.2132  1.0009  0.6433
 2271TIP3    H228305   5.787   2.639  14.831  0.3019  0.5925  0.4057
 2272TIP3   OH228306   1.016   1.756  15.348  0.6656  0.2857  0.3582
 2272TIP3    H128307   1.092   1.724  15.300  0.9561  0.3949  0.7310
 2272TIP3    H228308   1.040   1.743  15.440  0.0554 -0.0719  0.4699
 2273TIP3   OH228309   4.724   0.060  15.074  0.1825  0.0850 -0.2313
 2273TIP3    H128310   4.649   0.013  15.037 -0.3016  0.4619  0.2448
 2273TIP3    H228311   4.741   0.015  15.157  1.5894 -1.0845 -1.1078
 2274TIP3   OH228312   0.727   4.975   3.958  0.0642 -0.1363  0.0679
 2274TIP3    H128313   0.805   4.920   3.953  0.5281  0.5538 -0.3728
 2274TIP3    H228314   0.656   4.913   3.976  0.4679 -0.9777 -1.0941
 2275TIP3   OH228315   5.546   1.883  13.295 -0.4754 -0.1383  0.2557
 2275TIP3    H128316   5.530   1.967  13.251 -0.5413 -0.3322 -0.0932
 2275TIP3    H228317   5.622   1.901  13.351 -0.1737  0.0278 -0.1896
 2276TIP3   OH228318   1.537   6.027  12.169 -0.3783  0.5690 -0.8808
 2276TIP3    H128319   1.560   6.113  12.205  0.0453 -0.6305  1.9818
 2276TIP3    H228320   1.450   6.009  12.203 -0.0463 -0.5450 -0.5765
 2277TIP3   OH228321   1.581   4.924   3.315 -0.1860  0.0657  0.2850
 2277TIP3    H128322   1.529   4.994   3.278 -0.0187  0.2955  0.4837
 2277TIP3    H228323   1.547   4.913   3.404 -1.7058 -1.5957 -0.4419
 2278TIP3   OH228324   1.127   3.502   6.961  0.0720  0.3326 -0.6183
 2278TIP3    H128325   1.105   3.590   6.929  0.4874  0.5360 -0.3557
 2278TIP3    H228326   1.215   3.512   6.998  0.1817 -0.2317 -0.7302
 2279TIP3   OH228327   3.016   5.754  15.887  0.3062 -0.4204  0.0813
 2279TIP3    H128328   3.101   5.725  15.852  1.8187  2.5778  0.8899
 2279TIP3    H228329   2.989   5.825  15.828  0.4665  1.3757  2.0236
 2280TIP3   OH228330   3.309   5.578   2.100 -0.0431 -0.0627  0.2737
 2280TIP3    H128331   3.370   5.568   2.027 -1.1909  0.0355 -0.7351
 2280TIP3    H228332   3.365   5.583   2.178  1.1329 -2.7856 -0.2710
 2281TIP3   OH228333   1.938   4.893  17.084  0.0116 -0.0543 -0.5341
 2281TIP3    H128334   1.873   4.940  17.136  1.0722  0.3239  0.4724
 2281TIP3    H228335   1.984   4.962  17.035  1.1531 -0.0637  0.4779
 2282TIP3   OH228336   5.449   6.372  17.279 -0.0977 -0.5511 -0.2515
 2282TIP3    H128337   5.519   6.366  17.344  1.2225 -0.8190 -1.6462
 2282TIP3    H228338   5.374   6.407  17.327  1.2086  0.4694  1.1195
 2283TIP3   OH228339   1.409   6.541   5.483  0.4880 -0.6678 -0.8006
 2283TIP3    H128340   1.399   6.605   5.412  1.1116  0.5395  0.1607
 2283TIP3    H228341   1.328   6.547   5.533  0.4207 -0.8610 -0.8856
 2284TIP3   OH228342   1.132   0.027   3.743  0.3299 -0.0372 -0.3366
 2284TIP3    H128343   1.175   0.109   3.718 -0.6277  0.2876 -0.9425
 2284TIP3    H228344   1.077   0.051   3.818 -1.1003  0.2258 -1.4342
 2285TIP3   OH228345   4.163   6.632  11.856  0.7052 -0.0221  0.0623
 2285TIP3    H128346   4.194   6.686  11.784  1.7310 -2.4088 -1.4203
 2285TIP3    H228347   4.242   6.606  11.903  0.2931 -0.6806  0.4071
 2286TIP3   OH228348   0.389   0.841  14.218  0.2024 -0.3696  0.3076
 2286TIP3    H128349   0.377   0.876  14.306 -1.0840 -0.3663  0.1632
 2286TIP3    H228350   0.312   0.872  14.170  0.5137 -0.9825 -0.6124
 2287TIP3   OH228351   3.611   2.311   5.842 -0.5727 -0.2808 -0.2089
 2287TIP3    H128352   3.552   2.238   5.864  0.3999 -1.0014  0.0558
 2287TIP3    H228353   3.568   2.388   5.878 -1.4675 -0.7595 -0.2139
 2288TIP3   OH228354   3.161   0.025  12.060  0.4394 -0.2860  0.0668
 2288TIP3    H128355   3.205  -0.049  12.102  2.4421 -0.6633 -2.4757
 2288TIP3    H228356   3.167   0.007  11.966 -1.4095  1.8322 -0.5512
 2289TIP3   OH228357   3.095   5.381   0.215  0.3287  0.0990  0.2617
 2289TIP3    H128358   3.072   5.472   0.230 -1.0649  0.0928 -1.4990
 2289TIP3    H228359   3.096   5.372   0.120  2.1759 -1.3182  0.3647
 2290TIP3   OH228360   2.532   6.333  15.073  0.2377  0.0938 -0.3847
 2290TIP3    H128361   2.483   6.318  15.154  0.0166  0.0773 -0.5184
 2290TIP3    H228362   2.499   6.267  15.012  2.9612 -2.3113  0.5461
 2291TIP3   OH228363   1.415   4.855  11.014  0.2583 -0.5489 -0.3084
 2291TIP3    H128364   1.505   4.840  11.042  0.3290 -2.4639 -1.4042
 2291TIP3    H228365   1.373   4.897  11.089  0.8873 -3.7382  2.0426
 2292TIP3   OH228366   0.297   6.034   5.157 -0.2554  0.6768 -0.2144
 2292TIP3    H128367   0.301   6.073   5.244  1.3429 -0.6336  0.3635
 2292TIP3    H228368   0.257   6.101   5.102 -0.4821  1.8771  1.3431
 2293TIP3   OH228369   5.777   3.635  11.965  0.2940 -0.0074  0.0397
 2293TIP3    H128370   5.760   3.729  11.968 -0.8625 -0.1614 -0.8329
 2293TIP3    H228371   5.803   3.618  11.875  1.4303 -0.3952  0.4226
 2294TIP3   OH228372   6.232   4.306  17.578 -0.3582  0.7658  0.3076
 2294TIP3    H128373   6.149   4.263  17.557  1.2939 -1.6333 -1.9603
 2294TIP3    H228374   6.257   4.350  17.497  1.2653  0.1673  0.4483
 2295TIP3   OH228375   6.550   5.738   1.339  0.6947 -0.2835 -0.1534
 2295TIP3    H128376   6.641   5.729   1.369  0.7358  1.8517  0.4909
 2295TIP3    H228377   6.557   5.747   1.244  0.9921 -1.6421 -0.2902
 2296TIP3   OH228378   4.238   3.316  12.802  0.0831  0.0978 -0.5675
 2296TIP3    H128379   4.199   3.334  12.717  2.1656  1.7287 -1.2517
 2296TIP3    H228380   4.289   3.236  12.789 -0.8002 -0.5072 -0.4038
 2297TIP3   OH228381   3.494   1.604  16.464  0.9244  0.0204  0.1416
 2297TIP3    H128382   3.407   1.581  16.497  0.6091 -0.6525 -1.1117
 2297TIP3    H228383   3.548   1.610  16.543  0.2291 -1.7133  0.8136
 2298TIP3   OH228384   2.582   4.968  16.252 -0.3164  0.3928  0.1352
 2298TIP3    H128385   2.650   4.977  16.319  1.4646 -1.4434 -1.2935
 2298TIP3    H228386   2.558   4.876  16.254 -1.1887  0.5741 -0.8626
 2299TIP3   OH228387   3.007   5.635   3.438 -0.3555 -0.4004 -0.1809
 2299TIP3    H128388   2.921   5.668   3.464 -0.0980  0.9286 -0.9416
 2299TIP3    H228389   2.993   5.600   3.349 -0.4665 -1.7511  0.3417
 2300TIP3   OH228390   0.379   5.865  10.800  0.1308  0.4472  0.6153
 2300TIP3    H128391   0.354   5.786  10.753 -0.4635  1.0773 -0.1630
 2300TIP3    H228392   0.466   5.846  10.834  0.2150 -0.3500 -0.0057
 2301TIP3   OH228393   3.063   3.775  12.253 -0.0878  0.1011  0.0520
 2301TIP3    H128394   3.157   3.767  12.235 -0.0658  0.3877  0.0374
 2301TIP3    H228395   3.048   3.870  12.259 -0.6095  0.1133 -1.1912
 2302TIP3   OH228396   2.379   3.815   3.439 -0.3437 -0.4515  0.4402
 2302TIP3    H128397   2.301   3.768   3.409 -0.2759  0.9307 -2.2451
 2302TIP3    H228398   2.440   3.811   3.365  1.4634  0.0275  1.8074
 2303TIP3   OH228399   3.027   5.489   1.483  0.0212  0.1279  0.4041
 2303TIP3    H128400   3.090   5.558   1.468  0.2000  0.5805  2.7586
 2303TIP3    H228401   2.943   5.526   1.456  0.4102  0.4434 -0.3873
 2304TIP3   OH228402   2.163   1.985   3.669 -0.5363 -0.0756 -0.1087
 2304TIP3    H128403   2.089   2.002   3.728 -0.3091  1.1441 -0.1458
 2304TIP3    H228404   2.124   1.935   3.596 -1.1527 -0.1690  0.2752
 2305TIP3   OH228405   0.240   3.045   1.259  0.3038  0.1226 -0.1079
 2305TIP3    H128406   0.313   3.100   1.229  0.0340  0.4732 -0.1230
 2305TIP3    H228407   0.265   2.956   1.232  0.8391  0.2010  0.0982
 2306TIP3   OH228408   4.448   6.462   3.427  0.0164  0.3579 -0.4587
 2306TIP3    H128409   4.472   6.437   3.516  0.7719  1.7330 -0.2519
 2306TIP3    H228410   4.481   6.551   3.418  1.6265 -0.3843 -2.7513
 2307TIP3   OH228411   2.065   2.684   6.199 -0.3523  0.2158  0.5268
 2307TIP3    H128412   2.108   2.600   6.184  1.3329  0.7218  2.1844
 2307TIP3    H228413   1.979   2.661   6.233 -0.1534 -0.8263  0.3528
 2308TIP3   OH228414   5.622   2.529  14.859 -0.5632  0.4742 -0.2579
 2308TIP3    H128415   5.635   2.441  14.824 -0.7701  0.3234  0.0359
 2308TIP3    H228416   5.529   2.533  14.880 -0.2826  0.1995  1.2049
 2309TIP3   OH228417   0.264   0.642  13.940  0.4850  0.3038  0.1762
 2309TIP3    H128418   0.268   0.737  13.930  1.3770  0.4641  1.7921
 2309TIP3    H228419   0.232   0.628  14.029 -0.7387 -0.9380 -0.4304
 2310TIP3   OH228420   0.069   1.348   3.345  0.0367 -0.0276  0.2642
 2310TIP3    H128421   0.065   1.442   3.362  0.7020  0.1447 -0.4799
 2310TIP3    H228422   0.157   1.322   3.373  0.6394 -0.0027 -1.4616
 2311TIP3   OH228423   4.992   0.380  15.105 -0.2560  0.6210  0.6088
 2311TIP3    H128424   4.926   0.364  15.037  0.5960 -0.0775 -0.0785
 2311TIP3    H228425   4.952   0.346  15.185 -0.9201  0.6440  0.2991
 2312TIP3   OH228426   0.823   0.349  13.523  0.2178  0.5277  0.6493
 2312TIP3    H128427   0.744   0.403  13.524 -0.6353 -0.6110 -0.7202
 2312TIP3    H228428   0.819   0.298  13.605 -0.2017  0.8471  0.8290
 2313TIP3   OH228429   0.190   3.305   5.819 -0.5136  0.0184 -0.4815
 2313TIP3    H128430   0.231   3.371   5.763 -1.9144  0.9036 -0.5084
 2313TIP3    H228431   0.147   3.356   5.888  1.3483 -1.0451  1.5783
 2314TIP3   OH228432   6.729   0.422  15.018  0.7827 -0.2727  0.1305
 2314TIP3    H128433   6.746   0.498  14.962 -0.1185 -0.1926 -0.0537
 2314TIP3    H228434   6.783   0.352  14.981  1.6179  0.2765  0.3023
 2315TIP3   OH228435   2.863   2.484  12.003 -0.3843  0.1513 -0.1447
 2315TIP3    H128436   2.870   2.567  11.955 -1.6311  0.7455  0.6643
 2315TIP3    H228437   2.874   2.417  11.935 -1.0314  0.9728 -1.0947
 2316TIP3   OH228438   5.389   6.076  13.918  0.5933 -0.7380  0.6699
 2316TIP3    H128439   5.385   6.016  13.844 -0.0881 -0.6052  0.5907
 2316TIP3    H228440   5.305   6.064  13.963 -0.9127  2.2198 -0.9998
 2317TIP3   OH228441   0.947   3.377  12.739  0.1774 -0.1970 -0.1490
 2317TIP3    H128442   0.924   3.288  12.767 -1.3754  0.6073  1.2780
 2317TIP3    H228443   1.010   3.363  12.668 -0.3066 -2.4342 -0.2367
 2318TIP3   OH228444   2.285   0.353   0.426 -0.0096 -0.0318  0.4161
 2318TIP3    H128445   2.235   0.435   0.434 -1.7938 -0.9281 -0.7523
 2318TIP3    H228446   2.218   0.285   0.427  1.4734 -1.5265  1.7737
 2319TIP3   OH228447   4.359   1.460  17.073 -0.3728  0.3595  0.5878
 2319TIP3    H128448   4.447   1.434  17.045 -0.1277  1.9710 -0.2781
 2319TIP3    H228449   4.300   1.397  17.031  0.3290 -0.4668  0.8192
 2320TIP3   OH228450   5.762   6.671   1.790 -0.1177 -0.2209  0.0107
 2320TIP3    H128451   5.838   6.725   1.809  0.3382 -0.2009 -1.6764
 2320TIP3    H228452   5.708   6.676   1.868 -0.3239  3.0331 -0.2115
 2321TIP3   OH228453   3.900   0.934  16.135  0.3414 -0.3172  0.1954
 2321TIP3    H128454   3.813   0.915  16.101  0.0462  1.8912 -0.4107
 2321TIP3    H228455   3.958   0.925  16.059  0.6187 -1.4005  0.5137
 2322TIP3   OH228456   2.324   2.552  13.125 -0.2274 -0.1654  0.2427
 2322TIP3    H128457   2.309   2.546  13.219 -1.5386 -1.2630 -0.0118
 2322TIP3    H228458   2.240   2.583  13.090  0.3212  0.4587 -0.5583
 2323TIP3   OH228459   5.386   0.758  11.988 -0.0306 -0.5153  0.0033
 2323TIP3    H128460   5.423   0.672  12.008  1.4462 -0.0728 -0.6572
 2323TIP3    H228461   5.435   0.787  11.911 -0.5697  0.8702  0.1580
 2324TIP3   OH228462   2.056   3.481  15.201  0.3413  0.1867 -0.4101
 2324TIP3    H128463   2.090   3.541  15.267  1.2701 -0.1774 -0.5345
 2324TIP3    H228464   2.122   3.411  15.197 -0.4523 -0.5675 -0.6433
 2325TIP3   OH228465   3.655   0.473  15.052  0.2497 -0.2802 -0.2127
 2325TIP3    H128466   3.655   0.467  14.957  0.8639  1.1822 -0.3372
 2325TIP3    H228467   3.655   0.567  15.070 -1.1084 -0.5097  1.2480
 2326TIP3   OH228468   4.248   1.598  15.304 -0.0068 -0.0756  0.0099
 2326TIP3    H128469   4.167   1.644  15.327 -2.3272 -2.7425 -2.0335
 2326TIP3    H228470   4.248   1.521  15.360  0.5559 -0.6374 -0.7535
 2327TIP3   OH228471   3.423   4.494   4.976  0.2851 -0.5324  0.3307
 2327TIP3    H128472   3.368   4.554   5.026  1.9082  0.0447  1.4882
 2327TIP3    H228473   3.497   4.547   4.948  1.2315 -1.7430  0.4679
 2328TIP3   OH228474   2.277   2.736   2.108  0.2511  0.6769 -0.4439
 2328TIP3    H128475   2.357   2.757   2.155  1.0692 -2.9907  0.1670
 2328TIP3    H228476   2.307   2.711   2.020 -0.1011 -0.8974 -0.1559
 2329TIP3   OH228477   1.240   1.279  13.491 -0.3873  0.0256 -0.1249
 2329TIP3    H128478   1.147   1.294  13.511 -0.7654  0.1365 -1.8075
 2329TIP3    H228479   1.240   1.198  13.439  0.6730 -0.9446  1.2945
 2330TIP3   OH228480   3.994   2.113   6.394  0.2814  0.4024  0.5627
 2330TIP3    H128481   3.920   2.122   6.334  1.5342 -0.3348 -1.1785
 2330TIP3    H228482   4.049   2.189   6.375  1.4669 -0.6512 -0.4386
 2331TIP3   OH228483   1.190   4.677   4.049  0.6522 -0.1803  0.4272
 2331TIP3    H128484   1.220   4.600   4.001  1.1606 -0.1821  0.7464
 2331TIP3    H228485   1.268   4.710   4.094  0.1124 -0.3803  1.5449
 2332TIP3   OH228486   4.406   1.221   4.376 -0.1864  0.2093  0.2274
 2332TIP3    H128487   4.343   1.181   4.436  1.8830 -2.7515  0.6836
 2332TIP3    H228488   4.472   1.260   4.433  0.6677 -0.7030 -0.0994
 2333TIP3   OH228489   3.505   2.273   6.188  0.2851  0.4014 -0.2822
 2333TIP3    H128490   3.552   2.356   6.187  0.0246  0.6754  2.2414
 2333TIP3    H228491   3.413   2.297   6.201 -0.4861 -0.1814 -3.7758
 2334TIP3   OH228492   3.088   1.076   3.838 -0.0695 -0.0536 -0.3682
 2334TIP3    H128493   3.022   1.024   3.792 -1.0505  1.8531 -1.2122
 2334TIP3    H228494   3.125   1.133   3.770 -1.6768  2.9757  1.0972
 2335TIP3   OH228495   1.414   1.344  11.390 -0.1789 -0.5825  0.8114
 2335TIP3    H128496   1.377   1.281  11.452 -2.1373  2.9175  3.5514
 2335TIP3    H228497   1.505   1.353  11.415  0.3753 -2.7700 -0.1674
 2336TIP3   OH228498   0.370   5.001  10.816  0.0220 -0.1365  0.0456
 2336TIP3    H128499   0.280   4.969  10.827 -0.4985  1.3880  0.5664
 2336TIP3    H228500   0.369   5.046  10.732  0.4033 -0.4123 -0.1087
 2337TIP3   OH228501   4.967   5.783   5.723 -0.4484 -0.1352  0.3883
 2337TIP3    H128502   5.002   5.707   5.768 -0.9347 -0.7788 -0.2946
 2337TIP3    H228503   4.888   5.806   5.772 -0.5507 -0.3608  0.3323
 2338TIP3   OH228504   4.527   5.835   4.606 -0.2636  0.4668  0.3598
 2338TIP3    H128505   4.620   5.858   4.596  0.0271 -0.1169  1.5810
 2338TIP3    H228506   4.495   5.829   4.516  1.3043 -1.0256 -0.1597
 2339TIP3   OH228507   0.437   0.985   4.706  0.1326  0.3682  0.3490
 2339TIP3    H128508   0.407   0.957   4.620 -0.9166  0.6380  0.5992
 2339TIP3    H228509   0.459   0.905   4.752  1.3884  0.2633 -0.3933
 2340TIP3   OH228510   2.104   4.929  14.638  0.5761  0.6397  0.0926
 2340TIP3    H128511   2.113   4.943  14.544  0.0717 -1.4130 -0.2946
 2340TIP3    H228512   2.035   4.990  14.664 -0.9402 -0.3742 -1.3295
 2341TIP3   OH228513   4.059   5.220   0.735  0.5236 -0.2970 -0.3077
 2341TIP3    H128514   4.088   5.226   0.644  0.7615  0.5736 -0.1841
 2341TIP3    H228515   3.964   5.226   0.730  0.5306 -0.3549 -0.5056
 2342TIP3   OH228516   0.459   2.612   4.311  0.0532 -0.4235  0.3099
 2342TIP3    H128517   0.492   2.634   4.398 -1.3864 -0.8448  0.9917
 2342TIP3    H228518   0.382   2.667   4.300 -0.4321 -1.1810 -0.2175
 2343TIP3   OH228519   1.712   4.155  12.754  0.5425  0.5845 -0.0098
 2343TIP3    H128520   1.683   4.117  12.672  0.4096 -0.2587  0.4157
 2343TIP3    H228521   1.674   4.098  12.822  0.8703  1.1046  0.6240
 2344TIP3   OH228522   4.094   5.089  12.018 -0.7224  0.4757  0.3637
 2344TIP3    H128523   4.028   5.037  11.972  0.6296 -1.0264  0.0373
 2344TIP3    H228524   4.103   5.169  11.965  0.0414 -0.7471 -1.4533
 2345TIP3   OH228525   2.513   0.711   0.762  0.4227 -0.1015 -0.4502
 2345TIP3    H128526   2.516   0.649   0.689 -2.1100 -0.2331 -0.5185
 2345TIP3    H228527   2.429   0.755   0.753  1.3297  2.0439  0.7032
 2346TIP3   OH228528   5.998   3.478  12.769  0.0307  0.1311  0.0837
 2346TIP3    H128529   5.961   3.563  12.792 -0.3286 -0.2650  1.0293
 2346TIP3    H228530   5.939   3.415  12.809  0.4418 -0.5631 -0.3867
 2347TIP3   OH228531   3.385   3.112   3.505 -0.3210 -0.1863 -0.1983
 2347TIP3    H128532   3.467   3.067   3.526 -0.1870 -0.4663 -1.2644
 2347TIP3    H228533   3.345   3.130   3.590  0.1872 -1.2581  0.2808
 2348TIP3   OH228534   1.944   0.974  11.217  0.9243  0.4595  0.0610
 2348TIP3    H128535   1.994   0.947  11.140  1.7607 -1.8505  1.2835
 2348TIP3    H228536   1.973   1.064  11.234  0.4948  1.1437 -2.4087
 2349TIP3   OH228537   4.215   4.591   4.290  0.7906 -0.1138 -0.0755
 2349TIP3    H128538   4.283   4.538   4.333 -1.2825 -0.7229  2.7631
 2349TIP3    H228539   4.255   4.677   4.280  2.0566 -0.4918  1.3654
 2350TIP3   OH228540   4.314   2.133  14.585 -0.2095  0.3062  0.7263
 2350TIP3    H128541   4.237   2.156  14.534 -0.1244 -0.9116  0.0105
 2350TIP3    H228542   4.318   2.199  14.654 -2.1531  0.1197  1.0637
 2351TIP3   OH228543   4.590   1.337   4.566  0.5019  0.0512  0.2371
 2351TIP3    H128544   4.588   1.414   4.509  0.6813  1.0314  1.5230
 2351TIP3    H228545   4.519   1.350   4.628  0.4356 -0.9056  0.3796
 2352TIP3   OH228546   4.344   2.359   4.780 -0.0735  0.1383 -0.0236
 2352TIP3    H128547   4.347   2.374   4.685 -1.0368 -0.0146 -0.0902
 2352TIP3    H228548   4.268   2.302   4.792  1.1660 -1.4357  0.6405
 2353TIP3   OH228549   2.424   5.037   3.648  0.3096  0.2077  0.1787
 2353TIP3    H128550   2.511   5.022   3.684  0.0989 -1.4386  0.0986
 2353TIP3    H228551   2.371   5.062   3.723  0.8669  1.3691  0.2026
 2354TIP3   OH228552   2.466   0.012  13.998  0.8095 -0.5000  0.7440
 2354TIP3    H128553   2.375   0.035  13.978  1.1894  1.0134  0.6392
 2354TIP3    H228554   2.517   0.082  13.957  2.0392 -1.5119  0.5250
 2355TIP3   OH228555   0.937   5.933  11.803  0.3148 -0.3722 -0.5943
 2355TIP3    H128556   0.929   5.951  11.709  1.8252 -1.2764 -0.9251
 2355TIP3    H228557   1.031   5.922  11.818  0.0142 -1.2246  0.8451
 2356TIP3   OH228558   4.795   5.256   7.021  0.0329  0.2108  0.4722
 2356TIP3    H128559   4.732   5.232   7.088  0.7175 -0.6022  0.8470
 2356TIP3    H228560   4.808   5.176   6.971  0.2300  0.5652 -0.0508
 2357TIP3   OH228561   1.768   6.632   1.462  0.4907  0.1147 -0.3750
 2357TIP3    H128562   1.823   6.706   1.436  0.1408  0.3933 -0.3395
 2357TIP3    H228563   1.734   6.657   1.548  1.3150 -0.6151  0.1697
 2358TIP3   OH228564   3.924   3.073   2.230  0.3120 -0.6095 -0.2532
 2358TIP3    H128565   3.992   3.007   2.217 -0.4605 -1.3669 -0.5478
 2358TIP3    H228566   3.843   3.031   2.199 -0.4386 -0.0442  0.8759
 2359TIP3   OH228567   3.193   0.144   5.964  0.3557 -0.6801  0.3812
 2359TIP3    H128568   3.120   0.144   5.902 -1.9062  3.4137  2.5731
 2359TIP3    H228569   3.253   0.212   5.932  0.3339 -0.1488  1.3964
 2360TIP3   OH228570   1.743   5.233   6.350  0.6151 -0.7599  0.6308
 2360TIP3    H128571   1.705   5.316   6.376 -0.6057 -1.3552  0.7993
 2360TIP3    H228572   1.827   5.230   6.395  0.7997  0.4890  0.3998
 2361TIP3   OH228573   3.577   5.987  11.499  0.2180  0.6433  0.2545
 2361TIP3    H128574   3.625   5.904  11.508 -1.4008 -0.5455 -1.4070
 2361TIP3    H228575   3.601   6.037  11.577  3.9820  0.0836 -0.3583
 2362TIP3   OH228576   1.747   2.999  16.619 -0.1420  0.1544 -0.3489
 2362TIP3    H128577   1.699   2.933  16.669  0.0900  0.8902  0.8969
 2362TIP3    H228578   1.839   2.983  16.640  0.1032 -0.5931 -1.9050
 2363TIP3   OH228579   0.442   4.028   4.810 -0.2657 -0.5437  0.1916
 2363TIP3    H128580   0.464   4.099   4.870  0.9076 -0.0905 -0.7147
 2363TIP3    H228581   0.397   4.071   4.738  0.2179 -0.7373 -0.2363
 2364TIP3   OH228582   6.342   0.955   0.204 -0.7288  0.2945 -0.1803
 2364TIP3    H128583   6.283   0.880   0.211 -1.0356  0.4675 -0.7456
 2364TIP3    H228584   6.297   1.014   0.142 -0.0596  0.5212 -0.4593
 2365TIP3   OH228585   4.732   5.528   5.321 -0.5904 -0.0675 -0.4460
 2365TIP3    H128586   4.761   5.523   5.412 -2.2708  0.8915  0.1950
 2365TIP3    H228587   4.796   5.587   5.279  0.7936 -1.3285 -0.1899
 2366TIP3   OH228588   5.204   4.957  12.745  0.0135  0.2166 -0.2054
 2366TIP3    H128589   5.290   4.972  12.783 -0.0886 -0.2913  0.2371
 2366TIP3    H228590   5.221   4.939  12.652  0.2070  2.1426 -0.5857
 2367TIP3   OH228591   4.367   1.893   6.780  0.5038 -0.7030  0.5596
 2367TIP3    H128592   4.413   1.885   6.697 -0.8543 -1.6829 -0.1318
 2367TIP3    H228593   4.275   1.903   6.756  0.1856 -0.1541  1.9268
 2368TIP3   OH228594   3.966   0.976  17.528  0.2623  0.2033 -0.2432
 2368TIP3    H128595   3.905   0.996  17.457  0.5259  2.1104  0.0130
 2368TIP3    H228596   4.042   1.032  17.511  1.1951 -0.8329  0.4126
 2369TIP3   OH228597   4.905   2.551   3.114  0.1092  0.0976  0.0358
 2369TIP3    H128598   4.955   2.492   3.171  0.1532 -0.1368 -0.2373
 2369TIP3    H228599   4.925   2.639   3.146 -2.2219 -0.1031  2.3129
 2370TIP3   OH228600   3.122   4.251  15.834 -0.3500 -0.0633 -0.5454
 2370TIP3    H128601   3.052   4.312  15.856  0.1219 -0.1012  1.2226
 2370TIP3    H228602   3.185   4.261  15.905  0.9105 -0.8325 -1.5226
 2371TIP3   OH228603   0.218   3.634  15.576  0.3427  0.6185  0.0126
 2371TIP3    H128604   0.148   3.699  15.569 -0.3293 -0.1959 -1.2278
 2371TIP3    H228605   0.269   3.645  15.496  1.0770  0.5610  0.4639
 2372TIP3   OH228606   4.193   4.185  15.515 -0.9398  0.3558 -0.3663
 2372TIP3    H128607   4.282   4.154  15.498 -0.2214  1.6589  0.8170
 2372TIP3    H228608   4.152   4.111  15.561 -0.4921 -0.2607 -0.9273
 2373TIP3   OH228609   2.218   6.140   0.977  0.3332  0.3154 -0.3056
 2373TIP3    H128610   2.170   6.193   1.041 -1.2626 -1.8905  0.4595
 2373TIP3    H228611   2.157   6.131   0.904  1.2269  0.8732 -1.1311
 2374TIP3   OH228612   4.348   4.211  17.210  0.5248 -0.2995  0.4220
 2374TIP3    H128613   4.328   4.167  17.128 -0.7854 -1.0760  1.1286
 2374TIP3    H228614   4.268   4.202  17.263  2.3213 -2.6357  3.0410
 2375TIP3   OH228615   2.719   0.330  11.598 -0.3628 -0.2136  0.5049
 2375TIP3    H128616   2.798   0.282  11.622  0.1960  0.3907 -0.0640
 2375TIP3    H228617   2.661   0.322  11.674  0.2831 -0.5849  0.9650
 2376TIP3   OH228618   3.299   4.135  16.215 -0.2687  0.2161 -0.4575
 2376TIP3    H128619   3.281   4.221  16.178  0.0975  0.5124  0.0410
 2376TIP3    H228620   3.217   4.110  16.257 -0.6270 -0.0388 -1.2861
 2377TIP3   OH228621   3.686   1.305  13.522  0.2357  0.3436 -0.5876
 2377TIP3    H128622   3.712   1.280  13.611 -1.1268  0.5452 -0.1135
 2377TIP3    H228623   3.638   1.386  13.533 -0.7524 -0.1143 -1.3945
 2378TIP3   OH228624   3.666   5.388   6.491  0.3243  0.1379 -0.6202
 2378TIP3    H128625   3.607   5.463   6.490 -0.6149 -0.5930 -0.7050
 2378TIP3    H228626   3.736   5.411   6.429 -0.2453  0.7037 -1.0564
 2379TIP3   OH228627   5.982   4.885   1.182 -0.0777 -0.4486 -0.2219
 2379TIP3    H128628   6.059   4.848   1.139  0.0182  1.1383 -1.5176
 2379TIP3    H228629   6.018   4.945   1.248 -0.1888  0.3167 -0.8495
 2380TIP3   OH228630   3.334   2.465  13.090 -0.3529 -0.4617 -0.5050
 2380TIP3    H128631   3.372   2.551  13.073 -1.9987  0.1238 -1.4403
 2380TIP3    H228632   3.399   2.403  13.056 -0.0155  0.4832 -1.6708
 2381TIP3   OH228633   3.681   4.049  17.502 -0.5510  0.1885  0.0341
 2381TIP3    H128634   3.628   4.062  17.580 -0.2140  1.1672  0.1168
 2381TIP3    H228635   3.625   4.000  17.442 -0.3184 -1.9142  1.4168
 2382TIP3   OH228636   1.664   3.656  17.569  0.3112 -0.3462 -0.4008
 2382TIP3    H128637   1.674   3.748  17.596 -0.7628 -0.4352  0.3550
 2382TIP3    H228638   1.696   3.606  17.644 -1.4755 -0.5797  0.2782
 2383TIP3   OH228639   2.918   0.681   0.605  0.0852  0.0956  0.0830
 2383TIP3    H128640   3.014   0.679   0.601  0.1679 -0.9023  1.7293
 2383TIP3    H228641   2.890   0.617   0.539  0.5086  0.6987 -0.7104
 2384TIP3   OH228642   1.285   5.966   3.969  0.2629 -0.2672 -0.0671
 2384TIP3    H128643   1.322   6.035   3.913  0.1374  0.4062  0.6675
 2384TIP3    H228644   1.350   5.896   3.967  0.2874 -0.2338 -1.0084
 2385TIP3   OH228645   4.880   2.283   0.347 -0.4885 -0.0056 -0.0519
 2385TIP3    H128646   4.902   2.366   0.306  0.4342 -1.6655 -3.3218
 2385TIP3    H228647   4.958   2.259   0.397 -0.0233  0.2785 -0.6291
 2386TIP3   OH228648   5.470   6.178   6.563  0.6310 -0.1790 -0.0836
 2386TIP3    H128649   5.499   6.196   6.652 -0.9393  2.0700  0.0472
 2386TIP3    H228650   5.467   6.083   6.558  0.6344 -0.3727  2.3105
 2387TIP3   OH228651   1.322   1.286   3.478  1.3045 -0.0433 -0.1780
 2387TIP3    H128652   1.357   1.198   3.496  2.9142  0.3374 -1.3533
 2387TIP3    H228653   1.298   1.284   3.386 -0.7564  0.0969  0.2991
 2388TIP3   OH228654   5.659   2.759   3.960  1.1537 -0.1698 -0.0112
 2388TIP3    H128655   5.645   2.851   3.982 -0.3330 -0.3371 -0.1597
 2388TIP3    H228656   5.636   2.753   3.867 -2.0408 -1.2512  0.7065
 2389TIP3   OH228657   0.168   1.346  16.337  0.2435 -0.0418 -0.5635
 2389TIP3    H128658   0.226   1.325  16.410 -0.0119  1.0247 -0.0509
 2389TIP3    H228659   0.227   1.365  16.264  0.5435  0.6789 -0.1405
 2390TIP3   OH228660   2.018   3.296  17.092 -0.0695 -1.0429  0.0843
 2390TIP3    H128661   2.016   3.336  17.179  0.5343 -1.1039  0.1299
 2390TIP3    H228662   2.105   3.257  17.085 -0.9236 -3.1963  0.4439
 2391TIP3   OH228663   3.857   3.640   2.916 -0.3048  0.3377  0.1485
 2391TIP3    H128664   3.764   3.652   2.895 -0.6073 -2.0360 -0.0982
 2391TIP3    H228665   3.872   3.698   2.990 -2.1086  0.4420  0.4909
 2392TIP3   OH228666   0.095   2.596   6.725  0.2748  0.8215  0.1971
 2392TIP3    H128667   0.183   2.619   6.695  1.2849 -0.4309  2.0149
 2392TIP3    H228668   0.101   2.504   6.751 -1.3910  0.9103  1.0606
 2393TIP3   OH228669   5.149   0.473  12.930 -0.4735  0.1358  0.1142
 2393TIP3    H128670   5.183   0.544  12.876  2.9213 -1.3236  0.0739
 2393TIP3    H228671   5.095   0.516  12.997  0.7535  2.6281 -0.4089
 2394TIP3   OH228672   2.445   3.639   4.375  0.3273 -0.1385  0.0714
 2394TIP3    H128673   2.410   3.719   4.336 -0.1537 -0.5792 -0.3993
 2394TIP3    H228674   2.456   3.578   4.302  0.9157 -0.4303  0.3905
 2395TIP3   OH228675   0.537   0.259   4.205 -0.1436  0.4774  0.0635
 2395TIP3    H128676   0.628   0.283   4.224  1.1155 -0.9125 -3.3220
 2395TIP3    H228677   0.520   0.184   4.262  0.5330  1.2270  1.2944
 2396TIP3   OH228678   1.793   5.835  17.186 -0.2248 -0.0722  0.1391
 2396TIP3    H128679   1.842   5.827  17.268 -0.5262 -0.6745  0.2682
 2396TIP3    H228680   1.850   5.796  17.120 -0.8144 -1.4646  0.4132
 2397TIP3   OH228681   0.023   2.194   0.253  0.0528  0.3130  0.2695
 2397TIP3    H128682   0.057   2.180   0.165 -1.2436  0.4701 -0.2765
 2397TIP3    H228683   0.027   2.289   0.266  0.7565  0.2445  0.6074
 2398TIP3   OH228684   0.147   0.085  13.164  0.4499  0.6666  0.0519
 2398TIP3    H128685   0.157  -0.002  13.203  0.6880  0.5882 -0.1865
 2398TIP3    H228686   0.139   0.144  13.239  0.7956  0.5001  0.2199
 2399TIP3   OH228687   2.142   4.356  15.307  0.1598  0.5333  0.3510
 2399TIP3    H128688   2.112   4.444  15.328 -0.7991  0.1649  0.6052
 2399TIP3    H228689   2.150   4.355  15.211 -1.0063  0.5583  0.2329
 2400TIP3   OH228690   5.421   3.417  14.040 -0.1106  0.3970  0.4479
 2400TIP3    H128691   5.335   3.450  14.011 -0.2854  0.2671  0.8145
 2400TIP3    H228692   5.468   3.398  13.958  0.0103  1.5914  0.2179
 2401TIP3   OH228693   0.242   6.249  15.248 -0.3530 -0.2991  0.0472
 2401TIP3    H128694   0.191   6.321  15.213  2.1373  1.8705  0.5341
 2401TIP3    H228695   0.226   6.250  15.342 -0.8541 -0.8519 -0.0296
 2402TIP3   OH228696   4.226   2.277   0.637 -0.4799  0.1494 -0.1209
 2402TIP3    H128697   4.310   2.242   0.608 -1.4142 -2.0879 -0.3233
 2402TIP3    H228698   4.220   2.252   0.729 -1.6285 -1.2689 -0.5441
 2403TIP3   OH228699   1.154   4.219  15.423  0.1194  0.1032  0.0118
 2403TIP3    H128700   1.079   4.169  15.458 -0.2888  2.2954  2.6329
 2403TIP3    H228701   1.131   4.236  15.332 -2.1319 -0.1362  0.4694
 2404TIP3   OH228702   4.793   4.380   5.144  0.0414  0.0714  0.0643
 2404TIP3    H128703   4.744   4.462   5.139 -0.4323 -0.2523 -0.8137
 2404TIP3    H228704   4.885   4.407   5.138 -0.0498  0.6144  0.9119
 2405TIP3   OH228705   5.957   5.552   1.739 -0.6922 -0.2103 -0.0282
 2405TIP3    H128706   6.048   5.523   1.747  0.0804  1.8505 -0.8720
 2405TIP3    H228707   5.953   5.599   1.656 -2.3807  0.2888  0.2856
 2406TIP3   OH228708   5.460   1.079  16.734 -0.4196  0.3882  0.2530
 2406TIP3    H128709   5.381   1.101  16.686 -1.2157 -0.5369  1.1045
 2406TIP3    H228710   5.450   1.123  16.819 -0.5589 -0.6535  0.7873
 2407TIP3   OH228711   5.389   0.967  11.593  0.4676  0.0770 -0.1091
 2407TIP3    H128712   5.379   1.054  11.555  0.4358  0.7824  1.4729
 2407TIP3    H228713   5.383   0.908  11.518 -1.6673  1.2840 -0.9710
 2408TIP3   OH228714   6.441   3.663   3.096 -0.0926 -0.6621 -0.4130
 2408TIP3    H128715   6.380   3.654   3.023 -1.3508 -0.3319  0.5447
 2408TIP3    H228716   6.387   3.646   3.174  0.6674  1.1699  0.5816
 2409TIP3   OH228717   2.852   3.306  16.881 -0.2738  0.9019  0.1219
 2409TIP3    H128718   2.866   3.389  16.925  1.5138 -0.6067  2.6923
 2409TIP3    H228719   2.933   3.289  16.833 -1.0143  1.0418 -1.2634
 2410TIP3   OH228720   6.414   5.361   5.398  0.6392  0.2268  0.3931
 2410TIP3    H128721   6.475   5.376   5.325 -0.7522  0.4265 -0.7650
 2410TIP3    H228722   6.392   5.268   5.392 -0.1444  0.4273 -0.0018
 2411TIP3   OH228723   2.905   5.528   4.648 -0.0040 -0.5133  0.1962
 2411TIP3    H128724   2.872   5.516   4.737 -0.6601 -0.3497 -0.0202
 2411TIP3    H228725   2.997   5.555   4.660  0.3510 -1.9060  0.7714
 2412TIP3   OH228726   2.270   5.095   3.902  0.0855 -0.0197 -0.0694
 2412TIP3    H128727   2.338   5.158   3.924  0.1977 -0.4967  1.0286
 2412TIP3    H228728   2.190   5.148   3.896  0.1772  0.2448  0.8353
 2413TIP3   OH228729   5.773   1.880   3.077 -0.3819 -0.4323 -0.2989
 2413TIP3    H128730   5.744   1.863   3.167 -0.6096  1.8228  0.1136
 2413TIP3    H228731   5.813   1.967   3.081  2.4565 -1.5307 -1.7754
 2414TIP3   OH228732   4.278   3.688  13.053 -0.5254  0.0010  0.0842
 2414TIP3    H128733   4.196   3.729  13.026 -0.5442  0.1534  0.3597
 2414TIP3    H228734   4.305   3.738  13.130 -0.9458 -0.9697  0.9037
 2415TIP3   OH228735   2.353   5.314   1.208  0.1364 -0.3659 -1.0739
 2415TIP3    H128736   2.432   5.287   1.163  0.5204 -0.5729 -0.2870
 2415TIP3    H228737   2.283   5.264   1.166  0.5128 -0.7095 -1.2983
 2416TIP3   OH228738   5.825   2.778   4.393  0.2160  0.3150 -0.1627
 2416TIP3    H128739   5.848   2.721   4.466 -0.6838 -0.9935 -0.8669
 2416TIP3    H228740   5.846   2.726   4.315  2.2237  2.0783 -0.9159
 2417TIP3   OH228741   0.869   4.997  15.914 -0.3125  0.0703 -0.2225
 2417TIP3    H128742   0.810   4.945  15.969 -1.6270  1.2616 -0.4332
 2417TIP3    H228743   0.811   5.061  15.871  1.2167  1.6728 -0.0095
 2418TIP3   OH228744   0.032   0.130   3.773 -0.6658 -0.8802  0.4863
 2418TIP3    H128745   0.051   0.207   3.720  1.3591 -1.2406  0.6029
 2418TIP3    H228746  -0.034   0.159   3.836 -0.2465  0.6352  0.2506
 2419TIP3   OH228747   4.931   4.395  14.242 -0.1530 -0.3729 -0.3400
 2419TIP3    H128748   4.898   4.432  14.160  1.6325  1.5222 -0.2928
 2419TIP3    H228749   5.017   4.358  14.219  0.3996  0.2384  0.6661
 2420TIP3   OH228750   5.074   1.109   1.711  0.3662 -0.1244  0.2020
 2420TIP3    H128751   5.027   1.164   1.774  0.7360 -1.0968  1.3786
 2420TIP3    H228752   5.014   1.037   1.694  0.1002  0.3468 -0.9138
 2421TIP3   OH228753   2.399   3.699   1.863 -0.2094  0.2498 -0.0920
 2421TIP3    H128754   2.445   3.622   1.895 -1.1153 -1.1562 -2.0165
 2421TIP3    H228755   2.306   3.679   1.877 -0.4518  1.0651 -0.4631
 2422TIP3   OH228756   1.275   2.070   0.468  0.1300 -0.8368 -0.0491
 2422TIP3    H128757   1.254   1.992   0.519 -0.5082 -1.3404 -1.0537
 2422TIP3    H228758   1.332   2.122   0.525 -2.3904 -0.2573  2.0835
 2423TIP3   OH228759   6.239   0.900  13.707  0.1505 -0.1896  0.6550
 2423TIP3    H128760   6.240   0.924  13.614 -1.4496 -0.9392  0.3948
 2423TIP3    H228761   6.328   0.872  13.726  0.3575 -0.6727 -0.8544
 2424TIP3   OH228762   4.798   4.432  11.825  0.5956 -0.2750 -0.1364
 2424TIP3    H128763   4.833   4.428  11.736  0.8679  0.1089 -0.0506
 2424TIP3    H228764   4.780   4.525  11.839  1.3943 -0.2052  0.5247
 2425TIP3   OH228765   0.672   5.462   2.624  0.1667 -0.4441 -0.3762
 2425TIP3    H128766   0.697   5.456   2.716  1.5576  0.1569 -0.6923
 2425TIP3    H228767   0.663   5.371   2.596  1.8918 -0.7204 -0.1738
 2426TIP3   OH228768   4.436   2.525  16.050  0.4973  0.9149 -0.4163
 2426TIP3    H128769   4.400   2.521  15.961  0.3913  1.2179 -0.3867
 2426TIP3    H228770   4.494   2.448  16.055 -0.5873  0.0864 -0.2615
 2427TIP3   OH228771   3.778   2.803   3.011  0.8572  0.3386 -0.2777
 2427TIP3    H128772   3.815   2.840   3.092 -1.1320 -0.1892  0.9517
 2427TIP3    H228773   3.695   2.849   3.000  0.1758 -0.9937 -0.9145
 2428TIP3   OH228774   4.027   6.579  10.855 -0.6236 -0.4251 -0.1086
 2428TIP3    H128775   4.108   6.534  10.881 -1.3369 -0.7054  1.7738
 2428TIP3    H228776   4.054   6.670  10.840  0.6586 -1.1560 -3.0161
 2429TIP3   OH228777   4.404   5.327   4.183  0.1648  0.0201  0.0894
 2429TIP3    H128778   4.328   5.273   4.201 -0.9494  1.4635 -0.1186
 2429TIP3    H228779   4.374   5.390   4.117  1.5023  0.6979  0.0901
 2430TIP3   OH228780   0.285   3.077  15.976  0.3775  0.2785  0.3152
 2430TIP3    H128781   0.304   3.126  16.056 -1.3346 -2.0557  2.3085
 2430TIP3    H228782   0.201   3.112  15.946 -0.1295 -0.3701  0.9214
 2431TIP3   OH228783   4.545   5.316   3.212 -0.2734 -0.6404 -0.3780
 2431TIP3    H128784   4.577   5.319   3.302 -0.8500  0.7481 -0.2028
 2431TIP3    H228785   4.623   5.329   3.158 -0.0627 -0.5600 -0.0552
 2432TIP3   OH228786   0.452   2.111  13.526 -0.3149 -1.0410  0.0475
 2432TIP3    H128787   0.467   2.094  13.619 -0.4531  3.0844  1.0268
 2432TIP3    H228788   0.378   2.055  13.503 -3.1703  0.7315  3.7396
 2433TIP3   OH228789   2.727   5.804  15.476  0.0791 -0.6591  0.1100
 2433TIP3    H128790   2.738   5.784  15.569 -0.5734 -2.2055 -0.1251
 2433TIP3    H228791   2.703   5.721  15.436 -0.5823  0.1745 -1.3011
 2434TIP3   OH228792   3.487   6.390  13.991  0.2664 -0.3304 -0.1676
 2434TIP3    H128793   3.459   6.435  13.912  0.6222  2.3602  1.1450
 2434TIP3    H228794   3.409   6.386  14.046 -0.0712 -2.5152 -0.7122
 2435TIP3   OH228795   3.368   2.131   1.822  0.2144 -0.0488  0.2893
 2435TIP3    H128796   3.363   2.043   1.784  0.3926  0.5243 -1.1338
 2435TIP3    H228797   3.330   2.188   1.755 -0.1777  0.9274  1.3158
 2436TIP3   OH228798   5.942   3.784   3.476  0.1895  0.0572  0.3214
 2436TIP3    H128799   5.974   3.711   3.529 -0.3903 -0.1957  0.3353
 2436TIP3    H228800   5.850   3.793   3.501  0.4947  1.4281  1.0329
 2437TIP3   OH228801   5.622   5.203  13.653 -0.5220  0.4207  0.4254
 2437TIP3    H128802   5.637   5.295  13.632 -1.8216  0.3963 -0.7729
 2437TIP3    H228803   5.551   5.176  13.594  0.0423 -1.4380  0.5182
 2438TIP3   OH228804   2.080   3.133  15.950 -0.4421  0.3688 -0.4684
 2438TIP3    H128805   2.091   3.213  15.900  0.7752  1.1317  0.9524
 2438TIP3    H228806   2.161   3.084  15.936  0.2285  0.9251  1.2824
 2439TIP3   OH228807   0.449   2.381   2.551  0.2956 -0.3831 -0.2060
 2439TIP3    H128808   0.504   2.330   2.611  1.8081  1.0057 -0.3633
 2439TIP3    H228809   0.504   2.395   2.474 -0.5445  0.4550 -0.6689
 2440TIP3   OH228810   5.607   1.025   4.671  0.4297 -0.0757  0.5084
 2440TIP3    H128811   5.686   1.053   4.717  1.4151  1.0662 -1.7235
 2440TIP3    H228812   5.636   0.953   4.614  0.5953  2.0524 -2.2998
 2441TIP3   OH228813   2.293   1.960   3.924 -0.4801 -0.4109  0.2161
 2441TIP3    H128814   2.224   1.933   3.864 -0.5213  0.0853  0.0376
 2441TIP3    H228815   2.353   2.013   3.870 -0.8377  0.5465  0.7367
 2442TIP3   OH228816   4.837   4.141  14.723  0.3853 -0.4667  0.1521
 2442TIP3    H128817   4.816   4.203  14.793  1.0174  0.8993 -0.8362
 2442TIP3    H228818   4.776   4.162  14.653  0.6121 -0.9717 -0.2030
 2443TIP3   OH228819   1.518   5.505   1.833 -0.1305  0.3214 -0.0474
 2443TIP3    H128820   1.546   5.415   1.848 -1.0610  0.0754  0.2803
 2443TIP3    H228821   1.596   5.549   1.800  0.4486 -0.4983  0.1922
 2444TIP3   OH228822   2.140   0.723   0.254 -0.3499 -0.1689 -0.4423
 2444TIP3    H128823   2.092   0.669   0.316 -1.3075  0.8341 -0.2822
 2444TIP3    H228824   2.232   0.710   0.277 -0.6381 -0.5750  0.5263
 2445TIP3   OH228825   5.683   6.452  16.321 -0.7962  0.4410 -0.2186
 2445TIP3    H128826   5.687   6.478  16.228  2.6803 -1.1330 -0.6620
 2445TIP3    H228827   5.726   6.524  16.367  1.5192 -0.7066 -0.4632
 2446TIP3   OH228828   0.226   2.303   6.676 -0.0694 -0.0332 -0.5548
 2446TIP3    H128829   0.146   2.289   6.725  0.4432 -1.5559 -0.0979
 2446TIP3    H228830   0.206   2.273   6.588  0.3573 -1.7537 -0.1139
 2447TIP3   OH228831   5.653   5.752  15.467 -0.1141 -0.4482 -0.0926
 2447TIP3    H128832   5.686   5.663  15.480 -1.3383 -0.6792  2.0097
 2447TIP3    H228833   5.679   5.798  15.547  1.6847  1.5224 -1.7166
 2448TIP3   OH228834   0.202   4.804   4.092  0.4192 -0.4035  0.5091
 2448TIP3    H128835   0.159   4.770   4.170  0.9022 -2.8568 -0.2155
 2448TIP3    H228836   0.295   4.809   4.116  0.3801  0.2123  0.5402
 2449TIP3   OH228837   1.942   6.208   6.608  0.1225 -0.0668 -0.5787
 2449TIP3    H128838   1.870   6.154   6.641 -0.6256  1.4901  0.4939
 2449TIP3    H228839   1.971   6.165   6.528 -1.7484 -0.9524 -0.8133
 2450TIP3   OH228840   0.728   5.552  11.327  0.0183  0.2489 -0.5525
 2450TIP3    H128841   0.689   5.479  11.374 -1.2488  0.3228 -1.4282
 2450TIP3    H228842   0.757   5.514  11.244  1.8986  0.1896  0.0999
 2451TIP3   OH228843   3.665   6.315   2.293  0.0915 -0.3763  0.0844
 2451TIP3    H128844   3.661   6.312   2.197 -3.0761 -0.9546  0.1226
 2451TIP3    H228845   3.623   6.234   2.321  0.3334  0.1018  1.9803
 2452TIP3   OH228846   4.255   6.621  11.405 -0.3015  1.3608  0.6319
 2452TIP3    H128847   4.190   6.561  11.441  1.2698 -0.9110 -0.1104
 2452TIP3    H228848   4.218   6.649  11.322 -0.0538 -0.5583 -0.1735
 2453TIP3   OH228849   4.520   1.605   3.942  0.1335 -0.6423 -0.0573
 2453TIP3    H128850   4.518   1.686   3.993  2.0820 -0.5080 -0.1190
 2453TIP3    H228851   4.433   1.566   3.956 -0.9892  1.5818 -0.3065
 2454TIP3   OH228852   3.513   2.606   0.635 -0.5603  0.6727 -0.3829
 2454TIP3    H128853   3.607   2.591   0.626 -0.6084 -0.9189  1.0058
 2454TIP3    H228854   3.502   2.700   0.626  1.2939  0.9935  0.2088
 2455TIP3   OH228855   4.380   5.945   5.462  0.2037  0.2662 -0.1902
 2455TIP3    H128856   4.414   5.994   5.387 -2.0120  0.1561 -1.3363
 2455TIP3    H228857   4.286   5.936   5.445 -1.0279  2.5799  3.8134
 2456TIP3   OH228858   5.808   0.762  10.998 -0.1420  0.2463  0.4908
 2456TIP3    H128859   5.858   0.680  10.998 -0.0987  0.2294 -1.4435
 2456TIP3    H228860   5.717   0.734  10.998 -0.1678  0.0634 -2.0596
 2457TIP3   OH228861   3.984   2.346   0.102  0.0039  0.0593 -0.0667
 2457TIP3    H128862   4.010   2.282   0.169 -1.2365  0.5266  0.9108
 2457TIP3    H228863   3.950   2.292   0.030  3.0170 -0.5380 -1.1723
 2458TIP3   OH228864   2.990   6.361  17.299  0.5181 -0.0386 -0.0503
 2458TIP3    H128865   2.997   6.315  17.382 -1.0906 -0.1623  0.0381
 2458TIP3    H228866   2.920   6.425  17.312 -0.3224 -0.6020 -1.5402
 2459TIP3   OH228867   5.863   0.812  15.587 -0.5950 -0.1017 -0.1374
 2459TIP3    H128868   5.834   0.881  15.647 -3.9888  0.0943 -1.7370
 2459TIP3    H228869   5.821   0.732  15.621  0.7013 -0.7855 -0.0842
 2460TIP3   OH228870   3.648   6.385  13.064  0.2841  0.1722  0.1493
 2460TIP3    H128871   3.553   6.398  13.067  0.3571  1.6011 -1.8452
 2460TIP3    H228872   3.678   6.407  13.153 -1.1074  0.8811  0.4735
 2461TIP3   OH228873   4.099   4.869  14.004  0.5732 -0.2777  0.3892
 2461TIP3    H128874   4.020   4.815  13.994 -0.1825  0.5754  1.5354
 2461TIP3    H228875   4.074   4.955  13.970  1.8249 -0.6371 -1.5764
 2462TIP3   OH228876   2.347   3.607   0.698 -0.3325 -0.3295 -0.1859
 2462TIP3    H128877   2.377   3.532   0.647  0.0849 -0.8926  0.8652
 2462TIP3    H228878   2.265   3.579   0.737  0.4190 -0.6900  1.1780
 2463TIP3   OH228879   1.263   4.232   2.242  0.4122  0.8092 -0.2380
 2463TIP3    H128880   1.228   4.156   2.196  2.0257  0.6235 -1.2266
 2463TIP3    H228881   1.185   4.282   2.268 -0.6501 -0.7395 -0.2713
 2464TIP3   OH228882   6.173   2.292   6.058  0.7302 -0.1994 -0.0294
 2464TIP3    H128883   6.229   2.264   5.985  1.4539  0.9494  0.0543
 2464TIP3    H228884   6.221   2.264   6.136  0.3922 -0.6401  0.0207
 2465TIP3   OH228885   3.277   5.224  14.339  0.2869 -0.4661  0.6281
 2465TIP3    H128886   3.278   5.153  14.404 -1.7758 -0.8722  0.2871
 2465TIP3    H228887   3.185   5.251  14.335  0.8045  1.2777 -0.2953
 2466TIP3   OH228888   2.119   1.967   7.085 -0.0555  0.1305  0.3630
 2466TIP3    H128889   2.085   1.901   7.025 -0.8098  0.8789 -0.0493
 2466TIP3    H228890   2.122   2.048   7.034  1.0966  0.3724  0.7873
 2467TIP3   OH228891   1.349   3.260   2.332  0.1241  0.5163  0.0395
 2467TIP3    H128892   1.380   3.279   2.421 -2.2841  0.5488  0.9566
 2467TIP3    H228893   1.300   3.339   2.307 -0.7003 -0.1844 -0.5906
 2468TIP3   OH228894   2.804   1.193  11.851  0.0796 -0.1593  0.8492
 2468TIP3    H128895   2.781   1.103  11.826 -0.0259  0.4234 -1.2802
 2468TIP3    H228896   2.719   1.237  11.860  0.0551  0.9517 -3.0846
 2469TIP3   OH228897   5.851   6.312  15.150  0.1875 -0.0094  0.0115
 2469TIP3    H128898   5.902   6.381  15.193  0.6573 -0.1321 -0.3533
 2469TIP3    H228899   5.763   6.320  15.189  0.2890  0.6698  0.1077
 2470TIP3   OH228900   5.102   0.332  13.374  0.4807  0.2020  0.0346
 2470TIP3    H128901   5.015   0.310  13.341  0.7372 -2.4074  0.8212
 2470TIP3    H228902   5.160   0.269  13.330  1.5549  0.0932  1.5367
 2471TIP3   OH228903   0.577   3.331   5.825 -0.1802  0.2469 -0.2249
 2471TIP3    H128904   0.560   3.279   5.903  1.3027  0.7780  0.4933
 2471TIP3    H228905   0.654   3.289   5.786 -0.6188  0.2772 -1.1512
 2472TIP3   OH228906   0.652   0.194  15.985 -0.4665 -0.1364 -0.3137
 2472TIP3    H128907   0.624   0.243  16.063  1.1054 -2.1331  1.6456
 2472TIP3    H228908   0.702   0.258  15.934 -1.8162  1.3120  0.0909
 2473TIP3   OH228909   0.856   2.093  14.341 -0.3929 -0.0771 -0.6014
 2473TIP3    H128910   0.899   2.160  14.394 -0.1074  1.2254 -2.4062
 2473TIP3    H228911   0.797   2.048  14.402  2.0887 -0.6848  1.5198
 2474TIP3   OH228912   5.130   5.288   3.274  0.0165 -0.0246  0.9576
 2474TIP3    H128913   5.079   5.213   3.243 -0.9643  1.6271 -1.8224
 2474TIP3    H228914   5.214   5.281   3.230  0.1144  0.2346  1.0983
 2475TIP3   OH228915   5.951   6.113   4.492 -0.3298 -0.2306  0.2266
 2475TIP3    H128916   5.980   6.043   4.433  1.3963 -0.4662  1.3013
 2475TIP3    H228917   5.979   6.084   4.579  0.9463  2.0328  0.6448
 2476TIP3   OH228918   3.707   0.259  10.990  0.0357 -0.5424 -0.2504
 2476TIP3    H128919   3.795   0.233  10.962 -0.2083 -1.3007 -0.3477
 2476TIP3    H228920   3.650   0.221  10.923 -0.3710 -0.1607 -0.1170
 2477TIP3   OH228921   5.352   3.190   3.133 -0.0020 -1.0925  0.2272
 2477TIP3    H128922   5.372   3.100   3.107  0.6162 -1.1405  0.8503
 2477TIP3    H228923   5.323   3.183   3.224 -0.7275 -0.7488  0.0339
 2478TIP3   OH228924   0.907   3.148  16.138 -0.6098  0.4398  0.1027
 2478TIP3    H128925   0.812   3.134  16.137 -0.8722  2.0783 -0.0904
 2478TIP3    H228926   0.919   3.237  16.106  0.8633  0.9999  2.0125
 2479TIP3   OH228927   5.271   1.767  17.559 -0.0083 -0.6372  0.2455
 2479TIP3    H128928   5.228   1.683  17.541 -1.3278  0.2484 -0.9635
 2479TIP3    H228929   5.212   1.811  17.620 -1.0205  0.6565 -1.5442
 2480TIP3   OH228930   2.332   1.813  11.815 -1.0173  0.3709  0.6232
 2480TIP3    H128931   2.314   1.737  11.870 -0.4913  0.4658  0.9391
 2480TIP3    H228932   2.425   1.830  11.827 -0.8446  0.2739 -0.4620
 2481TIP3   OH228933   1.916   5.157  16.079 -0.0927  0.0517  0.1596
 2481TIP3    H128934   2.007   5.164  16.048 -0.9142  1.1385 -2.1800
 2481TIP3    H228935   1.925   5.144  16.174  2.4997  0.0659 -0.0003
 2482TIP3   OH228936   0.665   5.715  13.592  0.1006 -0.1430 -0.1697
 2482TIP3    H128937   0.754   5.722  13.626 -0.5541  1.7638  1.3155
 2482TIP3    H228938   0.609   5.744  13.664 -1.5952  0.5877 -1.6978
 2483TIP3   OH228939   1.116   3.787  14.992  0.5214 -0.2771 -0.1954
 2483TIP3    H128940   1.150   3.755  15.075  0.8015 -1.1995 -0.6588
 2483TIP3    H228941   1.136   3.718  14.929 -1.5514 -0.5312 -0.6363
 2484TIP3   OH228942   1.276   2.181   4.977  0.0507  0.1635  0.0771
 2484TIP3    H128943   1.240   2.238   4.910  1.9112  0.8639 -0.3973
 2484TIP3    H228944   1.233   2.097   4.963  0.3452  0.3110 -1.9861
 2485TIP3   OH228945   0.737   2.886   6.320  0.4569 -0.0260 -0.2820
 2485TIP3    H128946   0.791   2.810   6.341  0.4468 -0.2086 -0.9070
 2485TIP3    H228947   0.747   2.897   6.226 -0.9148 -0.2960 -0.4741
 2486TIP3   OH228948   5.639   1.107   3.900 -0.3118  0.4824 -0.2679
 2486TIP3    H128949   5.688   1.047   3.843  0.2711  0.3242  0.3892
 2486TIP3    H228950   5.577   1.052   3.946  1.2376  0.0653  1.4768
 2487TIP3   OH228951   0.586   3.045  13.744 -0.1609  0.5414  0.0760
 2487TIP3    H128952   0.675   3.019  13.770 -0.7422 -1.9471 -0.1570
 2487TIP3    H228953   0.598   3.129  13.699  2.1332  0.0434 -0.3800
 2488TIP3   OH228954   1.091   1.067  16.795  0.4520  0.3694 -0.8130
 2488TIP3    H128955   1.165   1.117  16.831  0.5890  0.7509 -1.6048
 2488TIP3    H228956   1.042   1.039  16.872  2.1368 -1.0463 -0.1807
 2489TIP3   OH228957   3.074   1.917  11.801  0.0312 -0.2581 -0.2946
 2489TIP3    H128958   3.104   1.879  11.719  0.5753  0.0474 -0.2431
 2489TIP3    H228959   2.980   1.901  11.803  0.1787 -1.1867 -0.4911
 2490TIP3   OH228960   0.149   6.380   0.473  0.8955  0.1610  0.1414
 2490TIP3    H128961   0.058   6.408   0.465  1.1670  0.8184 -0.7718
 2490TIP3    H228962   0.146   6.285   0.461  0.2745  0.1087  0.6448
 2491TIP3   OH228963   5.406   4.350  16.585  0.2350  0.5776 -0.3004
 2491TIP3    H128964   5.451   4.429  16.558  1.1207 -0.1266 -0.9477
 2491TIP3    H228965   5.406   4.354  16.681 -2.8088  3.0278 -0.2287
 2492TIP3   OH228966   1.624   1.720   3.278 -0.4369  0.3526 -0.0712
 2492TIP3    H128967   1.550   1.735   3.219 -0.7635  1.6178  0.6439
 2492TIP3    H228968   1.697   1.764   3.235 -1.1410  3.2521  1.4482
 2493TIP3   OH228969   2.205   1.687  17.331 -0.0896 -0.5849 -0.6548
 2493TIP3    H128970   2.245   1.667  17.415  0.9353 -0.7279 -1.1608
 2493TIP3    H228971   2.112   1.669  17.343  0.2360 -1.8531  0.0597
 2494TIP3   OH228972   1.818   1.484  12.027 -0.3758  0.5411  0.1903
 2494TIP3    H128973   1.774   1.457  11.946  0.0016  2.1388 -0.5766
 2494TIP3    H228974   1.857   1.403  12.061 -0.4020 -0.1233 -1.2959
 2495TIP3   OH228975   3.800   5.817   5.991 -0.0693  0.2720  0.0927
 2495TIP3    H128976   3.878   5.869   5.975 -0.4576  0.3335 -1.9720
 2495TIP3    H228977   3.825   5.727   5.969 -0.6814  0.3721 -1.1136
 2496TIP3   OH228978   5.528   3.805  12.889  0.1470 -0.1152  0.0505
 2496TIP3    H128979   5.603   3.856  12.919  1.1347 -0.3944 -1.8333
 2496TIP3    H228980   5.465   3.812  12.961 -0.1146  4.3337 -0.3324
 2497TIP3   OH228981   4.826   4.202  14.425  0.1226 -0.4577  0.9290
 2497TIP3    H128982   4.861   4.262  14.360  1.0800 -1.1886  0.7521
 2497TIP3    H228983   4.741   4.240  14.449  0.7687  1.0591  0.9632
 2498TIP3   OH228984   3.083   5.707  17.477  0.2108 -0.3201  0.0793
 2498TIP3    H128985   3.145   5.734  17.409  0.2673 -0.1978  0.1793
 2498TIP3    H228986   3.051   5.789  17.514 -0.4953 -0.3700 -0.4047
 2499TIP3   OH228987   1.135   2.793   3.186 -0.7501  0.2722  0.3426
 2499TIP3    H128988   1.156   2.865   3.127 -0.4964 -0.2760 -0.2583
 2499TIP3    H228989   1.118   2.834   3.270 -2.4877  1.2128 -0.4267
 2500TIP3   OH228990   3.215   4.782  17.286  0.0030 -0.3865  0.4670
 2500TIP3    H128991   3.190   4.763  17.376 -0.8948  0.7123  0.4752
 2500TIP3    H228992   3.300   4.824  17.294  0.7747 -1.9059  0.6395
 2501TIP3   OH228993   1.992   0.701   1.358  0.7881 -0.0590 -0.9113
 2501TIP3    H128994   1.923   0.687   1.293 -0.5681  1.4215  0.1297
 2501TIP3    H228995   2.061   0.639   1.333 -0.7136 -1.2985 -2.2586
 2502TIP3   OH228996   2.185   5.641   4.352 -0.0108 -0.2632 -0.0940
 2502TIP3    H128997   2.141   5.719   4.319  0.2337  0.4617  1.2402
 2502TIP3    H228998   2.179   5.648   4.447 -0.2530 -2.0276  0.0661
 2503TIP3   OH228999   6.467   4.957  11.541  0.1133  0.5709  0.0100
 2503TIP3    H129000   6.410   4.891  11.501 -0.1981  0.1149  1.1782
 2503TIP3    H229001   6.555   4.919  11.535 -0.0761  0.0038  0.7578
 2504TIP3   OH229002   6.344   5.700   2.809  0.3533 -0.3720  0.2108
 2504TIP3    H129003   6.400   5.692   2.732  0.9352 -0.1365  0.6025
 2504TIP3    H229004   6.386   5.768   2.863 -0.3570 -0.1258  0.4706
 2505TIP3   OH229005   2.927   5.292   6.363  0.6488  0.8432  0.6248
 2505TIP3    H129006   3.000   5.317   6.420  1.4455 -0.1599  0.0840
 2505TIP3    H229007   2.967   5.236   6.297 -0.6761  0.0114  0.4984
 2506TIP3   OH229008   5.522   2.148  17.137  0.0825  0.2015 -0.7093
 2506TIP3    H129009   5.528   2.053  17.129 -1.8587  0.0929 -1.3757
 2506TIP3    H229010   5.435   2.170  17.102  0.6024  2.2532 -0.8467
 2507TIP3   OH229011   0.147   6.529   5.147 -0.1464 -0.2004 -0.4700
 2507TIP3    H129012   0.155   6.533   5.242 -3.0913  0.5954 -0.1596
 2507TIP3    H229013   0.138   6.621   5.120 -1.1904 -0.5149 -1.2625
 2508TIP3   OH229014   2.110   4.571   4.396 -0.0514  0.2002  0.4508
 2508TIP3    H129015   2.183   4.518   4.366  0.0845 -0.1311  1.3592
 2508TIP3    H229016   2.143   4.661   4.391 -0.9995  0.5378 -3.2624
 2509TIP3   OH229017   0.786   6.083  13.508 -0.1009 -0.1243 -0.7757
 2509TIP3    H129018   0.830   6.088  13.592  1.2746  2.2175 -1.5543
 2509TIP3    H229019   0.816   6.000  13.470  1.1215 -0.0844  0.0552
 2510TIP3   OH229020   5.670   0.774   4.569  0.2317  0.1310 -0.0292
 2510TIP3    H129021   5.725   0.704   4.534 -1.8896 -1.4226 -0.4172
 2510TIP3    H229022   5.596   0.780   4.509 -1.5884  0.0361  2.0649
 2511TIP3   OH229023   1.897   4.476  17.293 -0.0014 -0.2214  0.2219
 2511TIP3    H129024   1.960   4.472  17.365  0.0504 -0.9745  0.1410
 2511TIP3    H229025   1.813   4.495  17.335  0.1996  0.3573  0.3721
 2512TIP3   OH229026   2.840   1.202  12.668  0.2758  0.2935  0.2920
 2512TIP3    H129027   2.917   1.161  12.707  2.1064  1.1032 -2.2329
 2512TIP3    H229028   2.834   1.288  12.710 -1.7795 -1.1352  3.3762
 2513TIP3   OH229029   5.568   3.026   3.241 -0.3268 -0.0889  0.2718
 2513TIP3    H129030   5.610   2.945   3.215  1.0546  0.0004  2.0021
 2513TIP3    H229031   5.623   3.095   3.205 -2.0477  0.1937 -2.0736
 2514TIP3   OH229032   3.805   5.691  13.181 -0.0536  0.6182  0.5476
 2514TIP3    H129033   3.870   5.716  13.115 -0.6351  0.6982 -0.0019
 2514TIP3    H229034   3.841   5.612  13.221  0.6029  0.9162  0.5753
 2515TIP3   OH229035   1.141   4.123  14.473  0.0556  0.1568  0.0640
 2515TIP3    H129036   1.099   4.206  14.496 -0.5463  0.5894 -2.2605
 2515TIP3    H229037   1.195   4.101  14.549 -1.9850  1.1653  1.9242
 2516TIP3   OH229038   2.231   1.755   2.184  0.0281  0.4412 -0.5732
 2516TIP3    H129039   2.152   1.747   2.131 -0.0913  0.1026 -0.3460
 2516TIP3    H229040   2.225   1.684   2.248 -0.6205  1.8183  0.9510
 2517TIP3   OH229041   6.136   0.492   2.213 -0.0293  0.2348  0.5240
 2517TIP3    H129042   6.130   0.397   2.203 -1.1801  0.5210 -1.9102
 2517TIP3    H229043   6.227   0.513   2.189  0.1266 -0.1876  0.7350
 2518TIP3   OH229044   4.735   1.062  16.989  0.3175  0.0261 -0.2280
 2518TIP3    H129045   4.703   0.972  16.991 -0.8151  0.4161  1.5666
 2518TIP3    H229046   4.830   1.054  17.000  0.6561 -1.0243 -2.9656
 2519TIP3   OH229047   4.242   3.751   3.714  0.1555 -1.0705 -0.2230
 2519TIP3    H129048   4.161   3.701   3.709 -0.3686 -0.2576 -0.0962
 2519TIP3    H229049   4.311   3.686   3.706 -0.5087 -1.6881 -1.1961
 2520TIP3   OH229050   3.965   3.126   5.445 -0.3124 -0.4070 -0.7915
 2520TIP3    H129051   3.984   3.033   5.438 -0.6601 -0.5854  0.3675
 2520TIP3    H229052   4.043   3.164   5.484 -1.0781 -0.6448  1.0851
 2521TIP3   OH229053   3.574   2.634   3.198 -0.1171  0.4987 -0.0839
 2521TIP3    H129054   3.562   2.726   3.221  0.8338  0.6136 -0.0218
 2521TIP3    H229055   3.509   2.587   3.250 -0.0503  1.0562  0.5059
 2522TIP3   OH229056   0.131   4.472   6.394 -0.7060 -0.2839 -0.3813
 2522TIP3    H129057   0.130   4.409   6.322  0.3531  0.3496 -0.9775
 2522TIP3    H229058   0.128   4.557   6.350  0.6811  0.1301  0.2659
 2523TIP3   OH229059   0.405   0.620   5.903 -0.0863  0.7151 -0.1054
 2523TIP3    H129060   0.432   0.689   5.965  0.3907  2.0438 -1.7104
 2523TIP3    H229061   0.477   0.557   5.905  0.5321  1.4031 -0.2329
 2524TIP3   OH229062   6.463   3.758   5.193  0.1681  0.5240 -0.2117
 2524TIP3    H129063   6.537   3.707   5.224  0.9002  1.7354  0.0887
 2524TIP3    H229064   6.499   3.844   5.173 -1.3463  1.5058  1.0252
 2525TIP3   OH229065   5.400   6.084   1.013  0.3993 -0.3641 -0.1726
 2525TIP3    H129066   5.482   6.119   0.980 -0.5556  0.2785 -1.9979
 2525TIP3    H229067   5.426   6.019   1.078  2.2873  1.6374  1.1972
 2526TIP3   OH229068   4.813   4.960  15.308  0.4033  0.3809  0.6068
 2526TIP3    H129069   4.804   4.915  15.224  1.4463  1.1849  0.0444
 2526TIP3    H229070   4.899   4.932  15.340  0.8483  1.5787  0.4843
 2527TIP3   OH229071   4.144   5.699  17.218  0.3060 -0.4539 -0.0802
 2527TIP3    H129072   4.215   5.661  17.165  0.1543 -4.3014  2.1136
 2527TIP3    H229073   4.188   5.741  17.291  0.3797 -0.4899 -0.1035
 2528TIP3   OH229074   2.745   0.599  15.059 -0.5619 -0.5660  0.5189
 2528TIP3    H129075   2.790   0.626  15.139 -1.1168  2.7272 -0.1272
 2528TIP3    H229076   2.772   0.664  14.994 -0.1298 -3.1054 -2.0454
 2529TIP3   OH229077   0.240   6.666   0.591 -0.0431 -0.0878 -0.4254
 2529TIP3    H129078   0.211   6.752   0.623  1.8982  0.3868  0.2177
 2529TIP3    H229079   0.269   6.620   0.669  2.5844  0.1934 -1.1538
 2530TIP3   OH229080   1.516   2.089   3.749  0.5652  0.2722  0.3196
 2530TIP3    H129081   1.468   2.048   3.677 -0.1600  2.1747 -0.3202
 2530TIP3    H229082   1.608   2.072   3.730  0.3681  0.5714 -0.9435
 2531TIP3   OH229083   4.810   4.723  12.215 -0.5668  0.0844 -0.1184
 2531TIP3    H129084   4.899   4.713  12.182 -1.1309  3.5809 -3.4246
 2531TIP3    H229085   4.817   4.791  12.282 -0.8928  2.3452 -2.2339
 2532TIP3   OH229086   1.125   3.997  14.810 -0.5188  0.2209  0.0684
 2532TIP3    H129087   1.038   4.001  14.769 -0.6017 -2.5119 -0.2338
 2532TIP3    H229088   1.119   3.923  14.870  1.0088  1.3000  1.6225
 2533TIP3   OH229089   0.521   3.035  14.013  0.6033  0.4833 -0.3160
 2533TIP3    H129090   0.516   3.014  13.919  0.2736 -0.6535 -0.0523
 2533TIP3    H229091   0.574   2.965  14.051 -0.4354  0.1388  0.5643
 2534TIP3   OH229092   4.249   4.265   0.973 -0.4024 -0.0667  0.2868
 2534TIP3    H129093   4.310   4.214   0.920  1.3898  1.5935  0.6604
 2534TIP3    H229094   4.209   4.200   1.032  0.4818 -1.3101 -0.4276
 2535TIP3   OH229095   2.883   6.727   5.993  0.3972 -0.5298 -0.1932
 2535TIP3    H129096   2.942   6.728   6.069 -1.5970 -2.1645  1.4907
 2535TIP3    H229097   2.836   6.810   5.997 -0.5558 -1.0989  1.1444
 2536TIP3   OH229098   4.680   6.130  11.655  0.7320  0.2881 -0.6933
 2536TIP3    H129099   4.692   6.188  11.579  0.6897  1.2050 -0.0183
 2536TIP3    H229100   4.591   6.096  11.644  0.3646  1.1805 -0.5509
 2537TIP3   OH229101   1.244   0.450  10.685 -0.3256 -0.3467  0.5606
 2537TIP3    H129102   1.240   0.357  10.708 -0.3626 -0.1819  1.2160
 2537TIP3    H229103   1.164   0.487  10.721  0.2840  0.1871  1.3839
 2538TIP3   OH229104   5.601   1.183   2.542  0.0214 -0.0685 -0.1802
 2538TIP3    H129105   5.659   1.218   2.474  0.8460 -0.7104  0.1797
 2538TIP3    H229106   5.594   1.090   2.521 -1.2246  0.0771 -0.4593
 2539TIP3   OH229107   0.216   2.416  16.837 -0.6752 -0.0759  0.3577
 2539TIP3    H129108   0.258   2.501  16.847 -0.3208 -0.3616  1.4688
 2539TIP3    H229109   0.184   2.415  16.747 -0.1637  0.9912  0.1506
 2540TIP3   OH229110   5.252   3.382  14.806  0.2317  0.4291  0.1002
 2540TIP3    H129111   5.170   3.430  14.811  1.2477  2.1559  2.1756
 2540TIP3    H229112   5.264   3.364  14.713 -2.2735  0.4696 -0.2799
 2541TIP3   OH229113   5.278   4.329   1.941  0.4370 -0.1279 -0.4719
 2541TIP3    H129114   5.332   4.258   1.909 -0.4992 -1.5142  0.8938
 2541TIP3    H229115   5.290   4.328   2.036 -2.1826 -0.7272 -0.0724
 2542TIP3   OH229116   2.312   4.410   3.973 -0.3570 -0.5035 -0.3196
 2542TIP3    H129117   2.352   4.413   3.886  0.5286 -0.6448  0.0800
 2542TIP3    H229118   2.305   4.316   3.992  0.5353 -0.4530  0.2591
 2543TIP3   OH229119   2.832   4.048  14.961 -0.1642 -0.0717  0.3648
 2543TIP3    H129120   2.869   4.028  15.047 -1.9931 -1.6877  0.8280
 2543TIP3    H229121   2.828   4.144  14.958 -0.9677 -0.0025  2.4844
 2544TIP3   OH229122   1.089   5.276   1.217 -0.0939  0.0565 -0.1018
 2544TIP3    H129123   1.110   5.231   1.135  1.9448 -0.9451  0.8680
 2544TIP3    H229124   1.126   5.363   1.207  2.3146 -0.7958  0.5175
 2545TIP3   OH229125   5.570   3.504   0.544  0.2051  0.4222  0.2988
 2545TIP3    H129126   5.544   3.441   0.611  1.4234 -1.1290 -0.6137
 2545TIP3    H229127   5.573   3.453   0.463  0.5536  1.8349 -0.6160
 2546TIP3   OH229128   6.337   1.564   5.576 -0.0077 -0.1969 -0.6979
 2546TIP3    H129129   6.302   1.593   5.492  0.2599  0.0730 -0.7170
 2546TIP3    H229130   6.432   1.578   5.569 -0.0056  0.0150 -0.2794
 2547TIP3   OH229131   6.621   3.835   4.930  0.1273  1.0056 -0.6938
 2547TIP3    H129132   6.534   3.872   4.915 -0.7651 -1.3033 -1.6165
 2547TIP3    H229133   6.660   3.826   4.843 -0.0730 -0.9996 -0.6253
 2548TIP3   OH229134   2.046   4.941  13.132  0.1763 -0.1169  0.0557
 2548TIP3    H129135   2.086   4.873  13.185  1.1592 -0.0391 -0.5578
 2548TIP3    H229136   1.956   4.948  13.165 -0.3074 -2.4627 -0.5542
 2549TIP3   OH229137   0.628   1.135   0.191  0.1239  0.1627 -0.5644
 2549TIP3    H129138   0.561   1.202   0.204 -1.1067 -1.2939  1.0889
 2549TIP3    H229139   0.601   1.089   0.111  1.0839  1.6907 -1.8184
 2550TIP3   OH229140   1.014   2.618  15.479 -0.2980 -0.1677  0.0680
 2550TIP3    H129141   0.968   2.556  15.422 -1.8837 -0.5596  1.6829
 2550TIP3    H229142   0.951   2.689  15.493  0.6906  0.7432  0.0074
 2551TIP3   OH229143   6.440   1.980   4.306 -0.0069  0.3116  0.5104
 2551TIP3    H129144   6.452   1.890   4.337 -1.7928  0.1170  0.7929
 2551TIP3    H229145   6.523   2.023   4.322  0.7008 -1.1470  0.9007
 2552TIP3   OH229146   5.873   1.733   5.279 -0.6061  0.3054 -0.1313
 2552TIP3    H129147   5.867   1.734   5.374  0.9762  1.9462  0.0231
 2552TIP3    H229148   5.934   1.661   5.259 -0.0007  0.7186  0.2017
 2553TIP3   OH229149   0.315   4.934   1.028  0.1415 -0.4196 -0.7397
 2553TIP3    H129150   0.230   4.947   1.069  0.3181 -0.6016 -0.3077
 2553TIP3    H229151   0.310   4.983   0.946 -0.6296 -0.9959 -1.0542
 2554TIP3   OH229152   5.910   3.661   2.152 -0.6150 -0.0269  0.3285
 2554TIP3    H129153   5.911   3.632   2.243 -0.0584  1.1626  0.7298
 2554TIP3    H229154   5.820   3.688   2.136 -0.7576 -0.4241  0.4680
 2555TIP3   OH229155   6.385   0.956  12.826 -0.0706 -0.0784 -0.0836
 2555TIP3    H129156   6.442   0.936  12.752  2.4479 -0.1304  1.7370
 2555TIP3    H229157   6.297   0.944  12.792  0.9426  0.3851 -3.1789
 2556TIP3   OH229158   5.407   0.368  13.041 -0.3227  0.4857 -0.4549
 2556TIP3    H129159   5.340   0.431  13.013 -0.3437  0.6093 -0.1316
 2556TIP3    H229160   5.360   0.305  13.095 -0.2278  0.4226 -0.4464
 2557TIP3   OH229161   0.194   6.690   3.518  0.3268 -0.6629  0.0744
 2557TIP3    H129162   0.179   6.652   3.605 -0.7078  0.0239  0.2083
 2557TIP3    H229163   0.146   6.632   3.458 -3.8910  1.8778  0.5605
 2558TIP3   OH229164   0.662   5.276  17.114  0.5159  0.0575 -0.3769
 2558TIP3    H129165   0.586   5.259  17.058  0.5482 -2.5585  0.2439
 2558TIP3    H229166   0.722   5.203  17.095  2.0727  1.0706  0.4819
 2559TIP3   OH229167   3.478   6.644   0.121 -0.2127  0.2667  0.0102
 2559TIP3    H129168   3.452   6.691   0.042 -1.1649 -0.5531 -0.1823
 2559TIP3    H229169   3.406   6.659   0.183 -0.1127 -0.2087  0.2472
 2560TIP3   OH229170   3.146   4.454   0.307  0.2359  0.1586  0.0968
 2560TIP3    H129171   3.116   4.460   0.397 -1.5907 -1.4454 -0.3422
 2560TIP3    H229172   3.213   4.386   0.308 -0.5606 -0.6454  0.0987
 2561TIP3   OH229173   1.222   6.659   2.868 -0.4551 -0.2796 -0.3736
 2561TIP3    H129174   1.202   6.721   2.798 -0.6645 -0.2665 -0.3003
 2561TIP3    H229175   1.169   6.687   2.942  0.0094 -0.0983 -0.1010
 2562TIP3   OH229176   5.128   3.266  14.566  0.9326 -0.4710 -0.2216
 2562TIP3    H129177   5.035   3.244  14.561  0.6636  0.0153  1.8679
 2562TIP3    H229178   5.173   3.182  14.560  0.2176 -0.9827  1.1096
 2563TIP3   OH229179   5.771   5.798  17.104 -0.3128 -0.4133 -0.1043
 2563TIP3    H129180   5.842   5.861  17.108 -0.0659 -0.6592 -0.6143
 2563TIP3    H229181   5.697   5.847  17.068 -0.9195  0.3049  1.9584
 2564TIP3   OH229182   4.981   1.757   4.076 -0.6699 -0.0908  0.4168
 2564TIP3    H129183   4.893   1.728   4.101 -0.6454 -1.8170 -1.2774
 2564TIP3    H229184   4.974   1.851   4.066 -1.9432 -0.0147  1.7157
 2565TIP3   OH229185   6.127   3.343   1.342 -0.3435 -0.5412  0.2245
 2565TIP3    H129186   6.138   3.257   1.381  1.5035 -0.0984  0.8082
 2565TIP3    H229187   6.188   3.344   1.268 -0.4993  0.1735  0.0930
 2566TIP3   OH229188   2.277   2.790   3.638 -0.3247 -0.2666 -0.9654
 2566TIP3    H129189   2.270   2.755   3.549 -0.4924 -0.3235 -0.9314
 2566TIP3    H229190   2.318   2.876   3.627  1.0443 -0.9043 -0.9468
 2567TIP3   OH229191   1.494   5.668  12.022  0.3159  0.4553 -0.3666
 2567TIP3    H129192   1.579   5.626  12.034  0.4230  0.8808  0.4314
 2567TIP3    H229193   1.513   5.751  11.978  0.1725 -0.0065 -1.3310
 2568TIP3   OH229194   2.625   3.342  12.115  0.0413 -0.0154 -0.2014
 2568TIP3    H129195   2.628   3.431  12.080 -0.5982  1.2354  2.6495
 2568TIP3    H229196   2.714   3.327  12.148 -0.1887  0.1124  0.4917
 2569TIP3   OH229197   0.145   0.186   0.626 -0.4322 -0.0447  0.1790
 2569TIP3    H129198   0.234   0.208   0.598 -0.1438  2.0831  2.4030
 2569TIP3    H229199   0.152   0.171   0.721 -2.1451 -1.7405  0.0967
 2570TIP3   OH229200   2.101   1.956  15.480  0.5325 -0.3121  0.2154
 2570TIP3    H129201   2.115   2.028  15.542 -0.2896  1.4504 -1.5423
 2570TIP3    H229202   2.095   1.878  15.535 -0.8482  1.2320  2.4249
 2571TIP3   OH229203   4.191   1.367  16.203  0.2821 -0.3678  0.4391
 2571TIP3    H129204   4.096   1.360  16.217  0.2064 -1.5953 -0.4724
 2571TIP3    H229205   4.221   1.425  16.273 -1.0086 -0.6882  1.3116
 2572TIP3   OH229206   6.439   5.840  11.281  0.0335  0.0441 -0.2816
 2572TIP3    H129207   6.477   5.926  11.298  1.5168 -0.2611 -1.8920
 2572TIP3    H229208   6.379   5.854  11.207  1.7691 -0.6201 -1.8818
 2573TIP3   OH229209   3.759   5.279   4.153 -0.1123  0.3180 -0.5720
 2573TIP3    H129210   3.686   5.297   4.212  0.3515 -1.4142  0.5779
 2573TIP3    H229211   3.745   5.189   4.124  2.5501 -0.7843  1.2332
 2574TIP3   OH229212   1.469   0.515   2.438 -0.6543 -0.0950  0.2429
 2574TIP3    H129213   1.556   0.556   2.446 -1.3182  1.0818  1.9872
 2574TIP3    H229214   1.486   0.434   2.389  1.1646  0.8488 -0.8339
 2575TIP3   OH229215   4.698   4.627  15.669  0.2227  0.2621  0.0731
 2575TIP3    H129216   4.671   4.682  15.743 -0.5707  1.1425 -0.8431
 2575TIP3    H229217   4.706   4.688  15.595  1.7891 -0.4711 -0.4005
 2576TIP3   OH229218   2.949   5.234   2.912  0.0709  0.5128  0.1476
 2576TIP3    H129219   3.012   5.299   2.881  1.0406 -0.8700 -0.8445
 2576TIP3    H229220   2.864   5.267   2.881  0.5471  1.2687 -0.3825
 2577TIP3   OH229221   3.811   2.939  12.175  0.3144  0.2437 -0.1206
 2577TIP3    H129222   3.769   2.862  12.137  1.7399  0.0425 -1.4184
 2577TIP3    H229223   3.836   2.993  12.100  0.6913  1.2428  0.6900
 2578TIP3   OH229224   1.978   2.269   1.545  0.0651  0.5765 -0.4639
 2578TIP3    H129225   1.964   2.193   1.602  1.5000 -0.4157 -1.3746
 2578TIP3    H229226   1.891   2.288   1.510 -0.7697  0.9343  1.6602
 2579TIP3   OH229227   3.672   4.930   4.142 -0.1879  0.5470 -0.2103
 2579TIP3    H129228   3.653   4.937   4.236 -0.3767  2.3028 -0.3456
 2579TIP3    H229229   3.767   4.943   4.136  0.2572 -2.0397 -0.0960
 2580TIP3   OH229230   5.047   0.916  13.530  0.2775 -0.4864  0.5913
 2580TIP3    H129231   5.002   0.944  13.450  2.4813 -0.1115 -0.5959
 2580TIP3    H229232   4.990   0.945  13.601 -1.6473 -0.6325 -0.8086
 2581TIP3   OH229233   6.570   0.026   4.819  0.3495  0.7273  0.4134
 2581TIP3    H129234   6.493   0.010   4.874  0.1520  1.5278  0.3910
 2581TIP3    H229235   6.597   0.115   4.842  0.7467  0.7702 -0.2048
 2582TIP3   OH229236   0.604   4.916  16.514  0.2022 -0.1561  0.3180
 2582TIP3    H129237   0.570   4.974  16.446 -0.3389  0.5547  1.1742
 2582TIP3    H229238   0.562   4.831  16.496 -1.4453  0.4921  0.8549
 2583TIP3   OH229239   0.582   0.171   0.312  0.0239 -0.5090  0.3620
 2583TIP3    H129240   0.643   0.102   0.337  0.4957 -0.7012 -1.2106
 2583TIP3    H229241   0.638   0.248   0.298 -0.6121  0.5758  3.2263
 2584TIP3   OH229242   3.617   0.196   4.444  0.0974  0.0051  0.7737
 2584TIP3    H129243   3.644   0.184   4.352  1.1700  0.3835  1.0279
 2584TIP3    H229244   3.608   0.290   4.454  3.0592  0.2729  1.8557
 2585TIP3   OH229245   0.081   0.087   3.150 -0.3835 -0.3508 -0.0780
 2585TIP3    H129246   0.094   0.052   3.061  2.5065 -0.3984  0.2877
 2585TIP3    H229247   0.077   0.009   3.205  0.0868 -0.2740  0.0690
 2586TIP3   OH229248   4.499   1.993   4.760 -0.1892  0.1791  0.3246
 2586TIP3    H129249   4.575   2.009   4.815 -0.4482 -0.7899  1.0019
 2586TIP3    H229250   4.433   2.055   4.792  0.1379  0.6438  0.1024
 2587TIP3   OH229251   1.356   3.322   2.616 -0.0802 -0.6687  0.1432
 2587TIP3    H129252   1.443   3.329   2.655  0.4818  0.0689 -1.1776
 2587TIP3    H229253   1.322   3.412   2.617 -0.9168 -0.9865  0.8377
 2588TIP3   OH229254   4.091   0.609   5.733  0.1105  0.5648 -0.2106
 2588TIP3    H129255   4.090   0.535   5.794 -1.3661  1.6758  1.2204
 2588TIP3    H229256   4.018   0.591   5.673  1.9422 -0.8374 -2.1563
 2589TIP3   OH229257   5.400   6.682   2.492 -0.4203  0.7055  0.0492
 2589TIP3    H129258   5.372   6.622   2.423 -0.9348  1.7732 -0.7095
 2589TIP3    H229259   5.495   6.687   2.483 -0.2677 -0.6729  0.7131
 2590TIP3   OH229260   6.184   6.503  16.210  0.4682  0.0998  0.3398
 2590TIP3    H129261   6.243   6.548  16.270 -0.2256  1.2745  0.1815
 2590TIP3    H229262   6.175   6.415  16.246 -0.8702  1.1039  2.7061
 2591TIP3   OH229263   6.405   0.672   3.221  0.1433  0.1719  0.1819
 2591TIP3    H129264   6.428   0.579   3.224  1.6073  0.4767 -0.7454
 2591TIP3    H229265   6.479   0.714   3.177 -0.7560  1.7035  0.0600
 2592TIP3   OH229266   2.108   4.656  14.618  0.1619 -0.4409 -0.0247
 2592TIP3    H129267   2.121   4.750  14.607 -1.5559 -0.2942 -1.2800
 2592TIP3    H229268   2.052   4.649  14.695 -1.2525 -0.2529 -0.9925
 2593TIP3   OH229269   2.526   4.474   5.245 -0.3092  0.0591 -0.2168
 2593TIP3    H129270   2.433   4.474   5.222 -0.2682  0.9104 -0.4538
 2593TIP3    H229271   2.569   4.431   5.171 -0.4810 -0.0318 -0.2641
 2594TIP3   OH229272   5.563   1.609  14.303 -0.1462 -0.3009 -0.2684
 2594TIP3    H129273   5.581   1.631  14.395 -1.4765  0.4028 -0.1453
 2594TIP3    H229274   5.646   1.623  14.258 -0.4068  3.5517  0.0922
 2595TIP3   OH229275   3.807   4.537  16.814  0.2256  0.0542 -0.1225
 2595TIP3    H129276   3.857   4.482  16.874 -1.6370 -1.4479  0.1359
 2595TIP3    H229277   3.822   4.626  16.846  0.3053 -0.6057  1.8065
 2596TIP3   OH229278   6.353   2.127  16.834  0.1714 -0.2107 -0.1159
 2596TIP3    H129279   6.390   2.105  16.920  1.4128 -0.4615 -0.6999
 2596TIP3    H229280   6.287   2.060  16.818 -1.2205  0.7405  1.3262
 2597TIP3   OH229281   3.596   3.422  12.461 -0.0215  0.3492 -0.3512
 2597TIP3    H129282   3.573   3.508  12.426  0.9108  0.2520 -1.2426
 2597TIP3    H229283   3.513   3.375  12.464 -0.4100  1.0033 -0.6423
 2598TIP3   OH229284   4.398   3.469  12.040  0.7809 -0.2162 -0.4558
 2598TIP3    H129285   4.322   3.431  12.083  0.9875  0.8045  0.8580
 2598TIP3    H229286   4.465   3.400  12.046 -0.1122 -1.2813 -1.9970
 2599TIP3   OH229287   3.688   6.531  14.613  0.0944 -0.0394  0.6213
 2599TIP3    H129288   3.606   6.542  14.661  0.0452 -0.0819  0.5466
 2599TIP3    H229289   3.756   6.540  14.680 -0.0082 -1.2514  0.9193
 2600TIP3   OH229290   6.180   6.052  12.442 -0.0993  0.4692 -0.4332
 2600TIP3    H129291   6.152   6.089  12.358 -3.8878 -1.8458 -0.4335
 2600TIP3    H229292   6.112   6.079  12.504 -0.5808 -2.5227  0.5057
 2601TIP3   OH229293   1.562   0.662   1.338  0.3468 -0.0235  0.1253
 2601TIP3    H129294   1.506   0.694   1.267 -3.0235  0.4620  2.7441
 2601TIP3    H229295   1.595   0.742   1.380 -2.0165  0.0202  2.1506
 2602TIP3   OH229296   5.510   5.249   6.031 -0.1337  0.4829 -0.5190
 2602TIP3    H129297   5.605   5.236   6.025 -0.1527 -1.7764  1.9949
 2602TIP3    H229298   5.474   5.201   5.956  0.6531 -0.7078 -0.1736
 2603TIP3   OH229299   0.434   2.622  14.854 -0.0681  0.2587 -0.7044
 2603TIP3    H129300   0.416   2.564  14.779 -1.6010 -0.1211 -0.0798
 2603TIP3    H229301   0.493   2.688  14.819  0.3493 -0.6956 -1.8961
 2604TIP3   OH229302   1.463   5.966   1.384  0.3445 -0.4113  0.4480
 2604TIP3    H129303   1.489   6.001   1.470 -0.7738 -0.7885  0.9578
 2604TIP3    H229304   1.534   5.992   1.325  1.0232  0.0519  1.4395
 2605TIP3   OH229305   3.135   2.265   6.335 -0.0570  0.0878  0.1500
 2605TIP3    H129306   3.060   2.238   6.389 -0.3576  0.7319  0.0738
 2605TIP3    H229307   3.110   2.239   6.246  0.7446 -1.6098  0.3875
 2606TIP3   OH229308   5.994   3.201   0.591 -0.1065 -0.4396  0.7548
 2606TIP3    H129309   5.978   3.177   0.499 -0.5403 -0.5182  0.8467
 2606TIP3    H229310   5.921   3.161   0.638 -0.8533  1.0678  0.9182
 2607TIP3   OH229311   6.141   6.448   5.192 -0.4288 -0.1371  0.2678
 2607TIP3    H129312   6.049   6.461   5.168 -0.1783 -1.5929 -1.7824
 2607TIP3    H229313   6.148   6.486   5.279 -2.9424  0.1173  0.4590
 2608TIP3   OH229314   0.524   2.694   5.117 -0.2512 -0.0549 -0.1494
 2608TIP3    H129315   0.521   2.767   5.179 -0.0810 -1.4531  1.5789
 2608TIP3    H229316   0.456   2.714   5.052 -1.3012  0.8645  1.1797
 2609TIP3   OH229317   5.551   2.398  13.679 -0.4561  0.0919 -0.3286
 2609TIP3    H129318   5.468   2.353  13.662 -1.0105  1.0281 -0.1669
 2609TIP3    H229319   5.611   2.362  13.614 -1.2360  0.0690 -1.0610
 2610TIP3   OH229320   6.538   5.120   1.403  0.1656  0.1697  0.1290
 2610TIP3    H129321   6.581   5.202   1.377  0.7101 -0.0852  0.2037
 2610TIP3    H229322   6.471   5.146   1.465  0.1320  0.5905 -0.0813
 2611TIP3   OH229323   4.066   5.097  11.485 -0.0613 -0.5330  0.2471
 2611TIP3    H129324   4.053   5.083  11.391 -1.1009 -0.8623  0.4272
 2611TIP3    H229325   4.122   5.174  11.491 -2.9454  1.8333 -0.6279
 2612TIP3   OH229326   2.352   0.055   5.274 -0.2295 -0.1846 -0.5156
 2612TIP3    H129327   2.390  -0.009   5.335  2.0918  0.0633 -1.5933
 2612TIP3    H229328   2.339   0.006   5.193 -0.7002  0.1376 -0.6367
 2613TIP3   OH229329   1.316   3.975  15.471  0.3257 -0.4569  0.0571
 2613TIP3    H129330   1.259   4.039  15.427  0.4640 -0.0054  0.5248
 2613TIP3    H229331   1.358   4.025  15.541 -0.4250 -1.3358  1.1742
 2614TIP3   OH229332   1.836   5.161   0.745 -0.4870  0.0053 -0.1896
 2614TIP3    H129333   1.810   5.095   0.681 -1.0240 -1.8081  1.7803
 2614TIP3    H229334   1.893   5.220   0.696 -0.1313 -1.7957 -2.1173
 2615TIP3   OH229335   1.729   3.656   3.375 -0.0965  0.1738 -0.1648
 2615TIP3    H129336   1.781   3.713   3.432  0.7031 -0.5711 -0.1315
 2615TIP3    H229337   1.689   3.593   3.435 -0.6743  0.4539 -0.2449
 2616TIP3   OH229338   4.836   1.731  15.686  0.7105 -0.3608  0.1968
 2616TIP3    H129339   4.798   1.684  15.760 -1.1457  0.7933  0.0334
 2616TIP3    H229340   4.771   1.798  15.664  2.5347  1.2738 -0.5719
 2617TIP3   OH229341   2.478   2.830  11.631 -0.1802 -0.6771  1.1118
 2617TIP3    H129342   2.411   2.820  11.563 -0.5351 -1.0485  1.5109
 2617TIP3    H229343   2.531   2.904  11.601  0.8819 -2.0411 -0.5523
 2618TIP3   OH229344   4.487   6.692  14.564  0.0336  0.1939 -0.1537
 2618TIP3    H129345   4.445   6.774  14.587  1.6090  1.2824 -0.9694
 2618TIP3    H229346   4.484   6.689  14.469  1.8046  0.3441 -0.2422
 2619TIP3   OH229347   2.549   4.039  16.702 -0.5030  0.1540  0.8035
 2619TIP3    H129348   2.639   4.038  16.736 -0.4175 -1.0438  0.5990
 2619TIP3    H229349   2.510   4.118  16.740  0.3198  0.1464  1.7279
 2620TIP3   OH229350   6.593   4.238  17.419  0.0981  0.5433 -0.0852
 2620TIP3    H129351   6.502   4.207  17.414  0.0469  0.2779  1.8490
 2620TIP3    H229352   6.646   4.159  17.418  0.3904  0.7176 -1.8295
 2621TIP3   OH229353   0.787   3.355   2.452  0.5079 -0.4153  0.2889
 2621TIP3    H129354   0.694   3.361   2.430  0.0045 -0.2641  2.2695
 2621TIP3    H229355   0.822   3.289   2.391 -0.6034  0.3803 -1.2707
 2622TIP3   OH229356   3.519   2.146  17.482 -0.0591  0.0431  0.9293
 2622TIP3    H129357   3.426   2.160  17.497  0.4829  1.4364  3.6286
 2622TIP3    H229358   3.527   2.052  17.464 -1.8488 -0.3314  1.8814
 2623TIP3   OH229359   6.034   5.344   0.058 -0.1797 -0.0674 -0.1243
 2623TIP3    H129360   5.981   5.389  -0.008 -0.4673 -1.1656 -0.6658
 2623TIP3    H229361   6.025   5.252   0.037  0.1682 -0.4060  1.1419
 2624TIP3   OH229362   6.082   3.537   4.471 -0.2172 -0.0898 -0.8868
 2624TIP3    H129363   6.143   3.600   4.431 -0.8712  0.5982 -0.8259
 2624TIP3    H229364   5.997   3.558   4.432 -1.0921  1.3085  1.5519
 2625TIP3   OH229365   0.467   6.488   5.386 -0.3732 -0.3011 -0.4259
 2625TIP3    H129366   0.474   6.470   5.293 -0.1602 -0.3469 -0.4007
 2625TIP3    H229367   0.374   6.504   5.400 -0.3283  0.2725 -0.7501
 2626TIP3   OH229368   0.529   6.334   2.950 -0.0297  0.6016  0.0711
 2626TIP3    H129369   0.566   6.258   2.905 -0.5759  0.8973 -0.9147
 2626TIP3    H229370   0.558   6.324   3.041  2.5285  0.8448 -0.6202
 2627TIP3   OH229371   1.073   5.268  16.851 -0.2271  0.9937 -0.2525
 2627TIP3    H129372   1.099   5.232  16.936 -0.7269  1.2322  0.0060
 2627TIP3    H229373   1.100   5.201  16.788 -2.1741 -0.4235  0.3218
 2628TIP3   OH229374   2.934   1.838   1.069  0.4706  0.5044  0.0058
 2628TIP3    H129375   2.918   1.771   1.135  1.9486  0.7060  0.6096
 2628TIP3    H229376   2.912   1.920   1.112  1.2810  0.6209  0.2258
 2629TIP3   OH229377   3.186   2.633  13.932 -0.0081 -0.3870  0.7259
 2629TIP3    H129378   3.118   2.576  13.897  0.1142 -0.0135 -0.1366
 2629TIP3    H229379   3.205   2.695  13.862  1.3252 -0.5636  0.8919
 2630TIP3   OH229380   5.963   4.896   6.586 -0.3360  0.2830 -0.4813
 2630TIP3    H129381   5.991   4.808   6.563 -2.4547 -1.4033  2.5929
 2630TIP3    H229382   6.042   4.940   6.617  0.5007 -1.1218 -0.5638
 2631TIP3   OH229383   0.129   6.357  11.706  0.2200  0.2068 -0.5178
 2631TIP3    H129384   0.180   6.277  11.693  1.5682  1.1696 -1.4112
 2631TIP3    H229385   0.185   6.413  11.759 -1.3686  0.0120  1.5292
 2632TIP3   OH229386   0.339   1.320   4.671 -0.4702  0.1764  0.7534
 2632TIP3    H129387   0.289   1.401   4.665 -2.4438 -0.8727  1.9513
 2632TIP3    H229388   0.380   1.323   4.757 -1.4216 -0.5137  1.2569
 2633TIP3   OH229389   4.539   0.441   2.051  0.2513 -0.5518 -0.3967
 2633TIP3    H129390   4.519   0.421   1.960 -0.0591 -0.9540 -0.2476
 2633TIP3    H229391   4.453   0.444   2.094  0.4093 -0.6189 -0.0731
 2634TIP3   OH229392   1.962   3.450  12.257 -0.5776  0.1705 -0.4960
 2634TIP3    H129393   1.906   3.390  12.209 -0.4076 -0.7714  0.4587
 2634TIP3    H229394   2.022   3.393  12.306  2.0402  1.0923 -2.3763
 2635TIP3   OH229395   0.849   3.035   5.082 -0.0269  0.3937 -0.1616
 2635TIP3    H129396   0.894   3.002   5.005  0.6780 -0.8260  0.7431
 2635TIP3    H229397   0.918   3.076   5.135 -0.2649  0.0319  0.4387
 2636TIP3   OH229398   5.542   6.206  17.079  0.4191 -0.4232 -0.3523
 2636TIP3    H129399   5.477   6.220  17.009  1.3617  0.7433 -1.0194
 2636TIP3    H229400   5.508   6.255  17.154 -0.1900 -1.0144 -0.2296
 2637TIP3   OH229401   3.529   0.800  15.982  0.0344  0.0917 -0.0456
 2637TIP3    H129402   3.445   0.777  15.944 -0.2731  0.2067  0.5584
 2637TIP3    H229403   3.517   0.789  16.077  1.2987 -1.9734 -0.0506
 2638TIP3   OH229404   1.785   3.334   2.114  0.1019  0.4429  0.7779
 2638TIP3    H129405   1.782   3.253   2.063 -2.3861  1.6745 -1.3063
 2638TIP3    H229406   1.809   3.401   2.050  0.2370  1.6261  2.0158
 2639TIP3   OH229407   0.422   0.236  13.347  1.2281 -0.0844 -0.6835
 2639TIP3    H129408   0.409   0.237  13.442 -0.1876  2.0010 -0.8328
 2639TIP3    H229409   0.415   0.144  13.322  1.9363 -0.7019  1.2465
 2640TIP3   OH229410   3.567   0.372  13.949 -0.4889 -0.2299 -0.2843
 2640TIP3    H129411   3.512   0.319  13.890 -1.2956 -0.6885  0.8482
 2640TIP3    H229412   3.637   0.313  13.975 -0.6514 -0.3244 -0.0590
 2641TIP3   OH229413   1.330   5.844   6.281 -0.8094  0.1129 -0.6480
 2641TIP3    H129414   1.382   5.773   6.318  1.9413  3.3918  2.5317
 2641TIP3    H229415   1.250   5.844   6.334 -0.5104 -0.2010 -0.1878
 2642TIP3   OH229416   1.707   3.810  12.933 -0.4462  0.1437 -0.0865
 2642TIP3    H129417   1.759   3.770  12.863 -0.1519 -1.1916  0.8685
 2642TIP3    H229418   1.757   3.794  13.013 -1.0959  1.0822  0.5383
 2643TIP3   OH229419   3.454   2.308  14.194 -0.6340  0.2104  0.0316
 2643TIP3    H129420   3.502   2.294  14.112 -0.2183  0.8480  0.1564
 2643TIP3    H229421   3.403   2.388  14.179 -0.4413  0.4125  0.4412
 2644TIP3   OH229422   2.184   2.597  16.236 -0.5312  0.0970  0.6187
 2644TIP3    H129423   2.217   2.657  16.303  3.1181 -2.1275  1.0545
 2644TIP3    H229424   2.191   2.647  16.154  1.3154  0.7101  1.1076
 2645TIP3   OH229425   5.300   6.321   1.850  0.4077  0.4805 -0.3033
 2645TIP3    H129426   5.235   6.378   1.807 -0.4471  0.4472  0.8845
 2645TIP3    H229427   5.334   6.374   1.923  0.5110 -0.0839  0.0661
 2646TIP3   OH229428   3.102   2.865   2.648 -0.4101  0.0402 -0.0019
 2646TIP3    H129429   3.176   2.853   2.588 -0.5491  0.9022 -0.3668
 2646TIP3    H229430   3.063   2.948   2.621 -0.7822  0.1971  0.9647
 2647TIP3   OH229431   2.224   5.312  14.378 -0.6624 -0.5303  0.0700
 2647TIP3    H129432   2.215   5.404  14.401  0.2415 -0.3632 -0.1820
 2647TIP3    H229433   2.314   5.304  14.345 -0.6059 -1.5732  0.4284
 2648TIP3   OH229434   3.416   3.094  12.983  0.6756 -0.2461 -0.0755
 2648TIP3    H129435   3.362   3.021  13.014  0.6036 -0.6916 -1.2020
 2648TIP3    H229436   3.503   3.074  13.016  0.2975  0.1458  1.2110
 2649TIP3   OH229437   6.629   1.549   6.375  0.1056  0.0930 -0.3094
 2649TIP3    H129438   6.697   1.481   6.371 -0.6104 -0.6878  0.4094
 2649TIP3    H229439   6.619   1.568   6.468 -1.0509 -0.2238 -0.3536
 2650TIP3   OH229440   0.113   5.778   1.301  0.5447  0.6990  0.6387
 2650TIP3    H129441   0.142   5.865   1.272  1.8961 -0.1740 -0.7692
 2650TIP3    H229442   0.173   5.755   1.372  0.7024  0.5889  0.4707
 2651TIP3   OH229443   2.136   3.687   5.113 -0.1151 -0.3732 -0.1804
 2651TIP3    H129444   2.079   3.672   5.188 -0.1430  0.0611 -0.1119
 2651TIP3    H229445   2.220   3.648   5.138  0.1100  0.4528  0.3988
 2652TIP3   OH229446   6.407   0.557   2.140 -0.1612  0.2185  0.4304
 2652TIP3    H129447   6.448   0.478   2.105 -1.1431  0.3087 -1.0256
 2652TIP3    H229448   6.478   0.604   2.182  0.9968 -0.2041 -0.9397
 2653TIP3   OH229449   1.623   1.015   3.111  0.0846 -0.2105 -0.1833
 2653TIP3    H129450   1.607   0.926   3.082  0.9438  0.1614 -1.9660
 2653TIP3    H229451   1.717   1.017   3.131  0.0513  0.2582 -0.0670
 2654TIP3   OH229452   6.459   0.217  14.530 -0.1684  0.3925 -0.2588
 2654TIP3    H129453   6.428   0.307  14.539  0.0456  0.3935  0.5962
 2654TIP3    H229454   6.532   0.210  14.592  0.3093 -0.1563 -0.8645
 2655TIP3   OH229455   3.178   3.109  16.173  0.2247  0.3355  0.1831
 2655TIP3    H129456   3.207   3.155  16.094 -0.0432  1.7892  0.8871
 2655TIP3    H229457   3.256   3.066  16.206  0.0013 -1.7187 -1.7479
 2656TIP3   OH229458   3.528   3.115   0.098  0.4259  0.6845 -0.2073
 2656TIP3    H129459   3.512   3.119   0.192 -1.4043  1.0139 -0.5026
 2656TIP3    H229460   3.530   3.021   0.078  1.2474  0.6034  0.2062
 2657TIP3   OH229461   0.366   0.458  17.297  0.3456  0.2319  0.4796
 2657TIP3    H129462   0.411   0.542  17.304  0.4158  0.2706 -0.4447
 2657TIP3    H229463   0.280   0.475  17.335  0.5580  0.5680  0.8227
 2658TIP3   OH229464   3.197   3.196   4.625  0.0212 -0.2774  0.0507
 2658TIP3    H129465   3.193   3.102   4.610 -0.6447 -0.1574 -0.5700
 2658TIP3    H229466   3.147   3.209   4.706 -0.6814 -0.3623 -0.3567
 2659TIP3   OH229467   1.307   0.594  14.501 -0.2137 -0.8909 -0.7426
 2659TIP3    H129468   1.327   0.682  14.531 -1.0513 -0.7081 -0.6851
 2659TIP3    H229469   1.386   0.543  14.519  1.7681  0.6131 -4.0826
 2660TIP3   OH229470   4.171   1.854   2.363  0.1467  0.6287  0.0887
 2660TIP3    H129471   4.113   1.788   2.325  3.0622 -2.2077  0.0331
 2660TIP3    H229472   4.127   1.937   2.348 -3.0325 -1.1394 -1.3700
 2661TIP3   OH229473   1.231   6.019  12.919  0.0532 -0.5665 -0.3858
 2661TIP3    H129474   1.254   6.074  12.845  0.7927 -0.9724 -0.4650
 2661TIP3    H229475   1.139   6.039  12.936  0.0404 -0.0427 -1.0378
 2662TIP3   OH229476   5.115   3.859   5.209  0.2955 -0.0027  0.5669
 2662TIP3    H129477   5.192   3.907   5.239  0.4593  0.5826 -0.7140
 2662TIP3    H229478   5.044   3.924   5.212  0.2106 -0.0764  0.1784
 2663TIP3   OH229479   3.783   2.893  17.632  0.2096 -0.3776  0.0462
 2663TIP3    H129480   3.842   2.903  17.707 -1.8655 -1.2798  1.9134
 2663TIP3    H229481   3.717   2.830  17.661 -0.6958 -0.7682 -2.5714
 2664TIP3   OH229482   4.931   2.813   1.116 -0.2170  0.4027  0.5095
 2664TIP3    H129483   4.927   2.771   1.030 -0.8065  1.5596 -0.0506
 2664TIP3    H229484   4.983   2.892   1.102 -0.9018  0.9655  1.0523
 2665TIP3   OH229485   0.533   0.104  16.987  0.2313  0.8543 -0.6352
 2665TIP3    H129486   0.555   0.104  17.080 -0.8531  0.1935 -0.3524
 2665TIP3    H229487   0.609   0.068  16.943  0.5970  0.7909  0.0438
 2666TIP3   OH229488   5.059   4.621  11.654  0.1124 -0.5656 -0.1571
 2666TIP3    H129489   5.116   4.642  11.580 -1.0515  0.0780 -0.9059
 2666TIP3    H229490   5.005   4.548  11.623 -1.2851  0.5597 -0.4525
 2667TIP3   OH229491   0.404   3.183   4.921  0.7354  0.0587 -0.4821
 2667TIP3    H129492   0.475   3.128   4.952  0.9085 -0.1612 -1.2516
 2667TIP3    H229493   0.395   3.162   4.828  0.0235  0.4734 -0.5197
 2668TIP3   OH229494   4.217   3.863   5.567 -0.0366  0.7140  0.2585
 2668TIP3    H129495   4.170   3.906   5.639 -0.2973  0.4348  0.2607
 2668TIP3    H229496   4.305   3.847   5.602 -0.7267 -1.2413  1.2706
 2669TIP3   OH229497   0.452   3.454   3.440 -0.3858  0.6408 -0.0748
 2669TIP3    H129498   0.462   3.373   3.491 -0.5594  0.9054  0.3837
 2669TIP3    H229499   0.367   3.444   3.397 -1.6492  1.6691  2.0106
 2670TIP3   OH229500   1.681   4.684  15.268  0.1579  0.1796  0.7200
 2670TIP3    H129501   1.732   4.621  15.217 -0.8881 -0.4754  0.4346
 2670TIP3    H229502   1.633   4.734  15.203 -2.6219 -1.8787  0.9630
 2671TIP3   OH229503   2.332   1.054   3.144  0.0134 -0.1081 -0.6334
 2671TIP3    H129504   2.248   1.092   3.119 -0.2997  0.9964  1.8450
 2671TIP3    H229505   2.391   1.129   3.153  0.7373 -0.6826 -0.4412
 2672TIP3   OH229506   2.007   1.219  14.177  0.1422  0.7575 -0.2406
 2672TIP3    H129507   2.063   1.291  14.149 -0.3621  0.6553 -1.5691
 2672TIP3    H229508   1.967   1.249  14.259  0.6472  1.5965 -0.2988
 2673TIP3   OH229509   0.054   5.469  16.343  0.3159 -0.7386 -0.2018
 2673TIP3    H129510   0.113   5.394  16.354 -0.5524 -1.9349 -2.9381
 2673TIP3    H229511  -0.017   5.436  16.289 -1.0250  1.6417 -0.0219
 2674TIP3   OH229512   4.275   0.740   2.529 -0.1102  0.2519 -0.1455
 2674TIP3    H129513   4.285   0.680   2.603 -1.0224 -0.4225 -0.5614
 2674TIP3    H229514   4.298   0.826   2.565  0.0593 -0.1607  0.7599
 2675TIP3   OH229515   1.602   6.183   3.642 -0.1212  0.8800  1.1184
 2675TIP3    H129516   1.566   6.252   3.587 -0.1602  2.0286  2.5164
 2675TIP3    H229517   1.682   6.221   3.679  2.7983 -1.6314 -1.9510
 2676TIP3   OH229518   5.787   4.697   2.129  0.1251 -0.4453  0.1545
 2676TIP3    H129519   5.757   4.727   2.044 -0.8865  0.3389  0.7647
 2676TIP3    H229520   5.767   4.603   2.129  1.6942 -0.8175 -1.0908
 2677TIP3   OH229521   3.496   1.653   1.141  0.1659 -0.8142 -0.3109
 2677TIP3    H129522   3.509   1.631   1.233 -1.5651  0.0378  0.1876
 2677TIP3    H229523   3.509   1.570   1.095 -1.3599 -1.8464  0.9824
 2678TIP3   OH229524   5.928   1.858   2.655  0.2973 -0.8612 -0.3405
 2678TIP3    H129525   5.965   1.856   2.744 -1.7331 -0.0337  0.5916
 2678TIP3    H229526   5.878   1.777   2.648 -0.0297 -0.6463 -0.4984
 2679TIP3   OH229527   1.402   0.445   0.608  0.4711  0.0344 -0.4120
 2679TIP3    H129528   1.427   0.386   0.679  0.6189 -0.2362 -0.6860
 2679TIP3    H229529   1.321   0.408   0.574  0.0433  0.5406  0.0478
 2680TIP3   OH229530   4.156   4.703   1.412 -0.4343 -0.2609 -0.2995
 2680TIP3    H129531   4.075   4.751   1.394 -0.4053 -0.3512 -0.6762
 2680TIP3    H229532   4.143   4.618   1.370  0.4204  0.2230 -1.6015
 2681TIP3   OH229533   5.918   4.096   0.176 -0.2751 -0.2614  0.1414
 2681TIP3    H129534   5.837   4.142   0.153 -1.6825 -1.4298  2.4741
 2681TIP3    H229535   5.942   4.049   0.096 -1.8046  0.2238 -0.6402
 2682TIP3   OH229536   3.312   4.421  16.371 -0.7042  0.4562 -0.2030
 2682TIP3    H129537   3.341   4.411  16.281  0.3384 -1.3712  0.2869
 2682TIP3    H229538   3.366   4.492  16.406  1.8474 -1.4953  0.0855
 2683TIP3   OH229539   2.217   1.849  14.128  0.1747  0.0499 -0.0364
 2683TIP3    H129540   2.307   1.838  14.160 -0.4262 -0.3590  1.6137
 2683TIP3    H229541   2.203   1.773  14.071  0.3884 -0.7513  0.9434
 2684TIP3   OH229542   5.485   1.521  12.836 -0.3451  0.0162  0.0900
 2684TIP3    H129543   5.512   1.429  12.830  1.0136  0.3689  0.4318
 2684TIP3    H229544   5.524   1.563  12.760 -0.7124  0.3645  0.0927
 2685TIP3   OH229545   1.461   4.624   1.063  0.3101 -0.2753  0.0809
 2685TIP3    H129546   1.466   4.530   1.080  0.2740 -0.3716 -0.4279
 2685TIP3    H229547   1.523   4.639   0.991 -1.0944 -0.2434 -1.1654
 2686TIP3   OH229548   2.647   0.675  16.298 -1.1954  0.2207  0.4786
 2686TIP3    H129549   2.628   0.587  16.331 -0.5242 -0.2336 -0.3261
 2686TIP3    H229550   2.734   0.695  16.331 -0.5115 -0.2380 -0.9591
 2687TIP3   OH229551   0.779   4.744   0.956 -0.7640 -0.2672 -0.2140
 2687TIP3    H129552   0.807   4.680   0.890 -0.1882 -0.2405  0.0034
 2687TIP3    H229553   0.698   4.781   0.920 -1.6129 -1.7607  0.0851
 2688TIP3   OH229554   2.019   6.710   5.831  0.4859  0.4500 -0.4763
 2688TIP3    H129555   2.011   6.622   5.794 -1.0411  0.2991  0.1645
 2688TIP3    H229556   2.051   6.764   5.758  0.2673 -0.3952 -1.2144
 2689TIP3   OH229557   0.161   5.723  16.934 -0.2651  0.5803 -0.0362
 2689TIP3    H129558   0.176   5.818  16.935 -2.2738  0.9508 -0.4895
 2689TIP3    H229559   0.078   5.712  16.980 -0.4472 -0.8840 -0.6764
 2690TIP3   OH229560   2.118   2.219  11.263 -0.5398  0.6730 -0.0849
 2690TIP3    H129561   2.076   2.148  11.312 -2.9527  1.2195 -1.2399
 2690TIP3    H229562   2.128   2.185  11.175  1.5164  0.5786  0.1391
 2691TIP3   OH229563   2.005   2.465   4.083 -0.0343  0.5606  0.4044
 2691TIP3    H129564   2.059   2.410   4.026  0.3541  1.7174 -0.3596
 2691TIP3    H229565   1.948   2.513   4.023  0.6134  2.0543  0.9604
 2692TIP3   OH229566   3.323   3.115  12.684  0.4672  0.0612  0.3310
 2692TIP3    H129567   3.360   3.093  12.770 -0.5464  0.0675  0.7839
 2692TIP3    H229568   3.334   3.034  12.633  1.1207  0.0723  0.4412
 2693TIP3   OH229569   2.929   0.800   2.352  0.5702  0.6999 -0.3215
 2693TIP3    H129570   2.834   0.787   2.347  0.7087  0.1368 -2.6247
 2693TIP3    H229571   2.942   0.890   2.322  0.8003  0.5671 -0.6202
 2694TIP3   OH229572   4.167   0.179   4.822  0.4656 -0.0983 -0.0493
 2694TIP3    H129573   4.160   0.130   4.903  2.1018  0.9286  0.7698
 2694TIP3    H229574   4.118   0.127   4.758 -2.9012  0.2478  2.0391
 2695TIP3   OH229575   3.653   0.688   2.528 -0.0106 -0.5317  0.0992
 2695TIP3    H129576   3.574   0.647   2.494  0.9874 -0.4165 -2.5846
 2695TIP3    H229577   3.723   0.656   2.472  1.6393  0.5413  1.4430
 2696TIP3   OH229578   1.092   0.576   5.113  0.7700  0.5040 -0.5173
 2696TIP3    H129579   1.141   0.494   5.118  0.3832  0.2259 -1.1806
 2696TIP3    H229580   1.159   0.644   5.119  1.0694  0.1513  0.3233
 2697TIP3   OH229581   5.386   6.656  16.827  0.0740  0.1677 -0.3964
 2697TIP3    H129582   5.382   6.709  16.748  0.4900 -0.6310 -0.9739
 2697TIP3    H229583   5.310   6.598  16.822 -0.7776  1.1609  0.5834
 2698TIP3   OH229584   2.821   0.626  14.259  0.0618 -0.4273  0.1888
 2698TIP3    H129585   2.872   0.610  14.180  0.3318 -0.3451  0.3461
 2698TIP3    H229586   2.882   0.670  14.319 -0.2088 -0.2735  0.3536
 2699TIP3   OH229587   5.049   1.651  16.428  0.5725  0.1245 -0.0973
 2699TIP3    H129588   5.064   1.708  16.503  3.3453 -0.0338 -0.4009
 2699TIP3    H229589   5.024   1.567  16.465 -2.1159  1.0534  0.4055
 2700TIP3   OH229590   0.538   5.490  16.186 -0.1641 -0.1526  0.6451
 2700TIP3    H129591   0.612   5.534  16.143 -0.1334 -0.5796  0.2484
 2700TIP3    H229592   0.535   5.528  16.274  0.5850 -0.1884  0.6933
 2701TIP3   OH229593   0.370   1.244   2.482  0.4633  0.7325 -0.0664
 2701TIP3    H129594   0.374   1.160   2.437  0.1743  0.9403 -0.4942
 2701TIP3    H229595   0.454   1.285   2.463  0.7468  0.3878  0.4483
 2702TIP3   OH229596   2.886   1.761  17.107 -0.0513  0.1322 -0.0071
 2702TIP3    H129597   2.878   1.857  17.111  1.3570  0.3095 -0.8255
 2702TIP3    H229598   2.962   1.741  17.161 -1.7567 -0.8166  2.1869
 2703TIP3   OH229599   4.320   1.357   1.012  0.0600 -0.1099 -0.0611
 2703TIP3    H129600   4.410   1.373   1.040  0.3924 -1.3644 -0.3553
 2703TIP3    H229601   4.307   1.263   1.025 -1.1262  0.0070 -0.2648
 2704TIP3   OH229602   2.884   0.981   3.586  0.5454 -0.2055 -0.2038
 2704TIP3    H129603   2.951   1.029   3.537  1.4485 -1.3000 -0.0832
 2704TIP3    H229604   2.821   1.048   3.612  1.4998  0.8296 -0.4718
 2705TIP3   OH229605   3.083   3.264   5.923  0.2994  0.0333  0.3729
 2705TIP3    H129606   3.005   3.318   5.929 -0.2451 -0.4827 -1.3895
 2705TIP3    H229607   3.152   3.318   5.962 -0.4339  1.5745 -0.3596
 2706TIP3   OH229608   4.339   0.380   4.703  0.7535  0.4598  0.6957
 2706TIP3    H129609   4.408   0.331   4.659  0.3868  0.7580 -0.2392
 2706TIP3    H229610   4.289   0.314   4.751  0.5145 -0.0328 -0.2105
 2707TIP3   OH229611   0.722   3.182  15.276  0.5355  0.3946 -0.0137
 2707TIP3    H129612   0.738   3.253  15.338  0.3875  1.2477 -0.9388
 2707TIP3    H229613   0.627   3.170  15.279  0.6646 -0.6003  1.0206
 2708TIP3   OH229614   6.691   3.847  17.518 -0.3517  0.1897 -0.6897
 2708TIP3    H129615   6.696   3.938  17.546 -1.0796 -0.0615  0.2793
 2708TIP3    H229616   6.695   3.796  17.599  0.0372 -0.6538 -1.2164
 2709TIP3   OH229617   1.185   0.065   1.968 -0.1154 -0.0965 -0.4758
 2709TIP3    H129618   1.234  -0.015   1.988 -0.4707  0.1154  1.5129
 2709TIP3    H229619   1.108   0.060   2.024 -1.3092  0.5809 -2.0045
 2710TIP3   OH229620   5.095   3.494   4.764 -0.1751 -0.3311 -0.0948
 2710TIP3    H129621   5.065   3.548   4.838  0.2013  0.2806 -0.3773
 2710TIP3    H229622   5.018   3.442   4.740  0.1242 -1.6884  1.7089
 2711TIP3   OH229623   4.791   0.035   1.676  0.6117 -0.4532 -0.0814
 2711TIP3    H129624   4.853   0.103   1.704 -2.4929  2.8079 -0.4692
 2711TIP3    H229625   4.810   0.024   1.582  3.3119 -2.8042  0.5905
 2712TIP3   OH229626   3.345   6.275   4.099  0.0682  0.3048  0.6143
 2712TIP3    H129627   3.379   6.298   4.013  1.3004 -1.3944  0.5819
 2712TIP3    H229628   3.250   6.278   4.090  0.1780  1.6132 -0.3560
 2713TIP3   OH229629   0.091   2.795   1.829  0.0685 -0.5017  0.0092
 2713TIP3    H129630   0.184   2.813   1.818 -0.3292  1.1406 -1.0334
 2713TIP3    H229631   0.055   2.798   1.741 -1.3598  1.4200  0.5864
 2714TIP3   OH229632   4.115   4.524   5.942  0.4087 -0.2179 -0.0619
 2714TIP3    H129633   4.120   4.619   5.955  0.7160 -0.0109 -1.5157
 2714TIP3    H229634   4.185   4.488   5.997  0.2833  0.3878  0.5069
 2715TIP3   OH229635   6.242   3.923   3.164 -0.2258 -0.7942 -0.3880
 2715TIP3    H129636   6.197   3.879   3.093  0.4547 -0.5933 -0.9530
 2715TIP3    H229637   6.335   3.908   3.147 -0.0535 -0.6893  0.4161
 2716TIP3   OH229638   4.679   4.752  13.221  0.2059 -0.6941 -0.0047
 2716TIP3    H129639   4.749   4.803  13.181  1.4480 -1.0420  1.5957
 2716TIP3    H229640   4.649   4.693  13.152  1.6328 -0.6714 -0.6860
 2717TIP3   OH229641   1.298   6.259   4.759 -0.5281  0.0365  0.3068
 2717TIP3    H129642   1.293   6.202   4.683  0.2971 -2.4649  2.0011
 2717TIP3    H229643   1.386   6.298   4.754 -0.6488  0.2424 -0.2460
 2718TIP3   OH229644   6.306   0.363   3.075  0.1216  0.0101  0.1570
 2718TIP3    H129645   6.222   0.317   3.076  0.2481 -0.2557 -0.4880
 2718TIP3    H229646   6.309   0.403   2.988 -0.1234  1.5017  0.8129
 2719TIP3   OH229647   4.896   0.848  17.090 -0.8221  0.1779 -0.2898
 2719TIP3    H129648   4.830   0.799  17.138  0.1998 -0.2595  0.7233
 2719TIP3    H229649   4.965   0.865  17.154  0.5018 -0.2605 -1.5269
 2720TIP3   OH229650   2.094   5.192   1.625  0.5571 -0.1510  0.3808
 2720TIP3    H129651   2.044   5.267   1.658 -1.4732 -1.6640  0.9362
 2720TIP3    H229652   2.046   5.163   1.547  1.2199 -0.9785  0.2651
 2721TIP3   OH229653   3.700   5.740  14.142 -0.3426  0.5291 -0.3647
 2721TIP3    H129654   3.746   5.779  14.216  0.5126 -0.5692 -0.2902
 2721TIP3    H229655   3.727   5.793  14.067  3.3482 -1.6300 -0.8155
 2722TIP3   OH229656   6.390   6.316   3.395 -0.4742 -0.2543 -0.4777
 2722TIP3    H129657   6.364   6.235   3.439  1.6142 -1.4187 -1.2696
 2722TIP3    H229658   6.404   6.290   3.304 -0.2022  1.1183 -0.8470
 2723TIP3   OH229659   3.871   4.700  16.155  0.1950  0.6733  0.3076
 2723TIP3    H129660   3.822   4.704  16.237  1.7221 -2.9436  1.5890
 2723TIP3    H229661   3.962   4.710  16.182  0.6796 -0.0183 -1.0210
 2724TIP3   OH229662   3.883   5.858  14.292 -0.5122  0.3337 -0.0179
 2724TIP3    H129663   3.944   5.868  14.365 -1.1652  0.4889  0.5213
 2724TIP3    H229664   3.866   5.948  14.262 -1.0410  0.3512  0.3188
 2725TIP3   OH229665   0.955   0.606  14.093  0.0722  0.6795 -0.4146
 2725TIP3    H129666   0.951   0.511  14.099  0.0038  0.5825 -1.6633
 2725TIP3    H229667   0.909   0.637  14.170  1.3071 -0.2790  0.7718
 2726TIP3   OH229668   0.083   5.425  15.794 -0.1538 -0.3020  0.5750
 2726TIP3    H129669   0.031   5.351  15.828  0.0120  0.2524  2.1106
 2726TIP3    H229670   0.024   5.471  15.735 -0.7470 -0.8157  0.7577
 2727TIP3   OH229671   6.426   2.281   5.105  0.6787  0.5255 -0.2565
 2727TIP3    H129672   6.517   2.305   5.122  0.6729 -0.3715  1.2166
 2727TIP3    H229673   6.426   2.186   5.104 -0.1433  0.5198 -0.9181
 2728TIP3   OH229674   2.619   2.205   2.222 -0.4382  0.7297 -0.3533
 2728TIP3    H129675   2.556   2.137   2.246  0.0727  0.6151  0.7227
 2728TIP3    H229676   2.701   2.177   2.263  0.9569 -0.2782 -3.4666
 2729TIP3   OH229677   3.429   5.252  12.367  0.4698  0.4067 -0.0374
 2729TIP3    H129678   3.451   5.200  12.444 -1.0968  3.1197  2.4300
 2729TIP3    H229679   3.514   5.284  12.335  1.1026 -0.2278  0.9375
 2730TIP3   OH229680   0.451   3.746  14.752 -0.0241  0.0815 -0.0297
 2730TIP3    H129681   0.380   3.693  14.787  0.6893 -1.4176 -0.7830
 2730TIP3    H229682   0.500   3.774  14.830  0.4193 -1.5832  0.3290
 2731TIP3   OH229683   5.306   1.770  13.423  0.0263  0.0450 -0.0049
 2731TIP3    H129684   5.340   1.779  13.334  1.4857 -2.0773  0.2455
 2731TIP3    H229685   5.216   1.799  13.418 -0.0461 -0.3861 -2.2801
 2732TIP3   OH229686   4.159   4.358   2.017 -0.0292 -0.4868  0.4416
 2732TIP3    H129687   4.213   4.308   1.956 -1.9849 -1.0815 -0.9327
 2732TIP3    H229688   4.137   4.438   1.968 -1.5142 -0.9060  0.3793
 2733TIP3   OH229689   5.873   4.128   0.636  0.5853 -0.0088  0.0199
 2733TIP3    H129690   5.826   4.127   0.552  1.1932 -1.8110 -0.3472
 2733TIP3    H229691   5.807   4.108   0.701  0.1574  1.1531 -0.0325
 2734TIP3   OH229692   4.081   2.677  15.765  0.2952  0.1445  0.2814
 2734TIP3    H129693   4.154   2.667  15.705  0.0128  2.5325 -0.5660
 2734TIP3    H229694   4.005   2.643  15.717 -0.0868  2.7850 -1.2096
 2735TIP3   OH229695   5.701   4.922  13.013 -0.2225 -0.4076  0.1429
 2735TIP3    H129696   5.763   4.869  13.063 -0.7847 -0.7181  0.5174
 2735TIP3    H229697   5.696   5.005  13.061  0.7705  0.0662 -0.5250
 2736TIP3   OH229698   0.585   2.181   2.691 -0.4716  0.7337 -0.0903
 2736TIP3    H129699   0.654   2.118   2.672  1.1517  2.1428  0.9098
 2736TIP3    H229700   0.558   2.161   2.781 -2.6014 -0.8532 -0.9815
 2737TIP3   OH229701   0.252   2.116  15.503 -0.4184  0.4770 -0.1247
 2737TIP3    H129702   0.223   2.106  15.413 -1.2864  1.9949 -0.0450
 2737TIP3    H229703   0.248   2.210  15.519 -0.5709  0.2072  1.5864
 2738TIP3   OH229704   0.839   2.392   1.728  0.3839 -0.0866  0.2251
 2738TIP3    H129705   0.858   2.446   1.804  2.5847 -1.4091  0.7001
 2738TIP3    H229706   0.919   2.393   1.677 -1.1399  1.0084 -2.3089
 2739TIP3   OH229707   4.774   1.976   2.347 -0.1493 -0.4866  0.3561
 2739TIP3    H129708   4.747   1.966   2.255 -1.0750 -0.5759  0.6302
 2739TIP3    H229709   4.854   2.029   2.342 -0.0556 -0.6898 -0.5166
 2740TIP3   OH229710   2.057   4.246  17.225 -0.4017 -0.4591  0.5351
 2740TIP3    H129711   2.021   4.164  17.191  0.0586  0.1174 -1.5098
 2740TIP3    H229712   1.986   4.309  17.215 -0.4080 -0.3766  1.0932
 2741TIP3   OH229713   5.109   2.471   6.608 -0.5261 -0.1134 -0.2755
 2741TIP3    H129714   5.156   2.501   6.530  0.5540  0.6773  0.6414
 2741TIP3    H229715   5.122   2.542   6.671 -2.1612 -0.3222  0.3295
 2742TIP3   OH229716   1.018   5.164   1.464 -0.1878 -0.4921 -0.6952
 2742TIP3    H129717   1.060   5.209   1.391 -0.5011  2.1104  0.5900
 2742TIP3    H229718   0.928   5.152   1.436  0.2442 -1.6878 -1.6174
 2743TIP3   OH229719   2.532   1.811   0.875  0.3194 -0.5976  0.8722
 2743TIP3    H129720   2.608   1.790   0.822  0.8695  0.9123  1.0253
 2743TIP3    H229721   2.459   1.815   0.812  0.4358 -1.5464  0.6585
 2744TIP3   OH229722   3.480   1.231  14.854 -0.0991 -0.1847 -0.0203
 2744TIP3    H129723   3.486   1.142  14.891  0.0879  0.0001  0.4013
 2744TIP3    H229724   3.561   1.274  14.883  1.0592 -0.6476 -2.3294
 2745TIP3   OH229725   1.508   5.513  15.050  0.0647 -1.0020 -0.0493
 2745TIP3    H129726   1.425   5.551  15.079 -0.0534 -0.3342 -1.2056
 2745TIP3    H229727   1.560   5.506  15.130 -0.4053  0.3535  0.3984
 2746TIP3   OH229728   1.660   1.740   1.283 -0.2295 -0.3539 -0.1823
 2746TIP3    H129729   1.579   1.767   1.327  0.8473  1.2033  0.9463
 2746TIP3    H229730   1.632   1.671   1.223 -1.9820 -1.8602  2.1596
 2747TIP3   OH229731   6.600   2.666   5.683 -0.5474  0.5467 -0.1821
 2747TIP3    H129732   6.666   2.612   5.726  0.2258  1.4987 -0.1464
 2747TIP3    H229733   6.610   2.648   5.590 -1.7421 -0.9714 -0.0667
 2748TIP3   OH229734   6.347   3.274   4.415  0.3196 -0.4400  0.3860
 2748TIP3    H129735   6.330   3.253   4.507 -1.3463 -2.1779 -0.2414
 2748TIP3    H229736   6.431   3.234   4.396  0.1237 -1.1071  0.8677
 2749TIP3   OH229737   6.526   3.270  16.394 -0.0251  0.9040 -0.4006
 2749TIP3    H129738   6.478   3.282  16.312  1.5157  0.4920 -1.4061
 2749TIP3    H229739   6.480   3.198  16.438  0.1581 -0.0636 -1.7250
 2750TIP3   OH229740   4.611   4.598   5.545 -0.2688  0.1241  0.0824
 2750TIP3    H129741   4.636   4.560   5.629 -2.4202  0.9705  1.1907
 2750TIP3    H229742   4.628   4.529   5.481 -1.0722 -1.5557  1.5808
 2751TIP3   OH229743   5.772   6.100  13.224 -0.1053 -0.2938  0.1918
 2751TIP3    H129744   5.707   6.157  13.267  1.6108  1.6599  0.3727
 2751TIP3    H229745   5.723   6.058  13.153 -2.0677 -0.5639  1.6143
 2752TIP3   OH229746   1.193   3.215   1.877  0.2087  0.6988 -0.3738
 2752TIP3    H129747   1.172   3.122   1.867 -0.4623  0.5558  1.8756
 2752TIP3    H229748   1.183   3.251   1.789 -0.4556 -1.1594 -1.1195
 2753TIP3   OH229749   0.613   4.484  13.030 -0.1924 -0.1339 -0.1503
 2753TIP3    H129750   0.584   4.423  13.098  1.9667 -0.6395  0.3895
 2753TIP3    H229751   0.538   4.490  12.970 -1.9359 -0.1689  1.8880
 2754TIP3   OH229752   6.550   4.288  12.162  0.5084 -0.4211 -0.1145
 2754TIP3    H129753   6.606   4.366  12.162  0.3311 -0.2832 -0.8358
 2754TIP3    H229754   6.611   4.215  12.156  0.6561 -0.3204  0.1272
 2755TIP3   OH229755   1.887   0.121  16.447  0.0908  0.3767  0.2670
 2755TIP3    H129756   1.927   0.128  16.533 -0.0205  0.7937  0.2863
 2755TIP3    H229757   1.951   0.159  16.387 -1.1075  3.1036  0.5448
 2756TIP3   OH229758   5.238   6.459  15.259 -0.4991  0.0347  0.0435
 2756TIP3    H129759   5.305   6.484  15.322 -0.2399  2.8634 -1.1835
 2756TIP3    H229760   5.184   6.538  15.249 -1.8490 -1.0202 -1.6356
 2757TIP3   OH229761   6.411   1.768   5.027  0.1405 -0.3915  0.2881
 2757TIP3    H129762   6.361   1.780   4.947 -1.7040 -0.7600  1.3130
 2757TIP3    H229763   6.419   1.673   5.036 -1.6969 -0.4827  1.6405
 2758TIP3   OH229764   2.732   2.882  12.746 -0.3661  0.0159 -0.1202
 2758TIP3    H129765   2.812   2.906  12.699 -0.9777  0.5956 -0.9008
 2758TIP3    H229766   2.679   2.836  12.681 -1.1199  0.5954  0.0716
 2759TIP3   OH229767   5.435   5.232  15.346  0.1577  0.5785 -0.4617
 2759TIP3    H129768   5.432   5.321  15.380  2.8079  1.3349 -1.9518
 2759TIP3    H229769   5.498   5.186  15.401 -0.2332 -0.0227 -0.4973
 2760TIP3   OH229770   2.406   6.421   3.429 -0.2794  0.6086  0.1656
 2760TIP3    H129771   2.426   6.338   3.386  1.9874  0.8741  0.5839
 2760TIP3    H229772   2.470   6.428   3.500  0.1548  3.0672 -0.3554
 2761TIP3   OH229773   6.624   3.027  14.870  0.2458  0.2432  0.3117
 2761TIP3    H129774   6.658   2.952  14.822 -0.0600  1.9410 -2.8315
 2761TIP3    H229775   6.530   3.011  14.878  0.2017  0.2274 -0.2352
 2762TIP3   OH229776   2.313   4.852  16.901  0.0858  0.2458 -0.7743
 2762TIP3    H129777   2.401   4.848  16.939 -0.6110  0.6333  0.9772
 2762TIP3    H229778   2.287   4.943  16.911 -1.8584 -0.4873  2.0870
 2763TIP3   OH229779   6.617   6.067   2.326  0.4762 -0.2096  0.1235
 2763TIP3    H129780   6.592   5.975   2.333  1.7727 -0.6222 -0.4118
 2763TIP3    H229781   6.712   6.067   2.340  0.1703  1.3837  2.8639
 2764TIP3   OH229782   3.988   0.089  12.944 -0.6058  0.1653 -0.2517
 2764TIP3    H129783   3.976   0.027  12.872 -0.3575  0.6738 -0.7383
 2764TIP3    H229784   3.914   0.148  12.937 -1.5729 -0.8349  1.0202
 2765TIP3   OH229785   5.056   0.567  13.206 -0.1203  0.3313 -0.2384
 2765TIP3    H129786   5.150   0.579  13.195  0.0479 -1.6830 -1.4433
 2765TIP3    H229787   5.048   0.490  13.262 -0.9486 -1.8172 -3.0839
 2766TIP3   OH229788   3.583   1.624  12.750 -0.1794 -0.7487 -0.7230
 2766TIP3    H129789   3.577   1.715  12.780 -0.6941 -1.2783  0.8523
 2766TIP3    H229790   3.498   1.607  12.708 -1.3640 -1.3856  1.7178
 2767TIP3   OH229791   5.349   0.249   2.961  0.3259  0.7333  0.0869
 2767TIP3    H129792   5.276   0.310   2.956 -0.3442  0.1432  2.0594
 2767TIP3    H229793   5.416   0.297   3.010 -0.4879 -0.3005  2.3287
 2768TIP3   OH229794   4.334   0.684   6.516 -0.1768 -0.6881 -0.9743
 2768TIP3    H129795   4.304   0.675   6.606  1.9529 -0.6030 -0.2171
 2768TIP3    H229796   4.283   0.758   6.482  3.2257  3.6920  2.2306
 2769TIP3   OH229797   4.215   2.313  12.123  0.4306  0.3061 -0.2337
 2769TIP3    H129798   4.179   2.232  12.160  0.0244  0.3885 -0.4425
 2769TIP3    H229799   4.139   2.361  12.093  0.5871  1.2440  0.8197
 2770TIP3   OH229800   4.800   5.173   1.518 -0.0301 -0.7063 -0.1124
 2770TIP3    H129801   4.879   5.120   1.504 -0.0930 -1.4619  2.0443
 2770TIP3    H229802   4.755   5.130   1.591 -2.6302 -0.4736 -1.4696
 2771TIP3   OH229803   5.818   5.015   0.301  0.7421 -0.1004 -0.2951
 2771TIP3    H129804   5.762   5.002   0.377 -2.6127 -0.8208 -2.6697
 2771TIP3    H229805   5.882   4.943   0.306 -0.6060 -1.2848  0.8721
 2772TIP3   OH229806   6.170   5.142   1.841  0.1916 -0.0881  0.1734
 2772TIP3    H129807   6.103   5.106   1.900 -1.1885  0.2208 -1.1246
 2772TIP3    H229808   6.190   5.069   1.781  0.7470 -0.0663  0.3317
 2773TIP3   OH229809   5.336   0.986   4.597  0.0675 -0.7617  0.1742
 2773TIP3    H129810   5.366   0.913   4.544  0.4611 -0.4142 -0.0855
 2773TIP3    H229811   5.413   1.014   4.646  0.1718  0.0968 -0.4544
 2774TIP3   OH229812   0.315   4.903   2.851  0.0587 -0.2330  0.6456
 2774TIP3    H129813   0.289   4.825   2.900 -2.4779  0.1460  0.0543
 2774TIP3    H229814   0.258   4.904   2.774  1.7052  0.9314 -0.6408
 2775TIP3   OH229815   5.245   1.652   0.663 -0.2338  0.0153  0.3285
 2775TIP3    H129816   5.157   1.620   0.645 -0.9616  1.8484  0.4078
 2775TIP3    H229817   5.301   1.574   0.657 -1.6801 -0.9836 -0.8714
 2776TIP3   OH229818   0.534   4.273   6.727  0.0339  0.0411  0.1486
 2776TIP3    H129819   0.616   4.229   6.705 -0.2568 -0.8670  0.7906
 2776TIP3    H229820   0.560   4.359   6.760  0.7418 -0.3303  0.5768
 2777TIP3   OH229821   4.789   1.912   5.061  0.0679  0.0739  0.5714
 2777TIP3    H129822   4.882   1.920   5.039  0.2359  0.6110  1.4379
 2777TIP3    H229823   4.745   1.972   5.002  0.3196  0.1344  0.4433
 2778TIP3   OH229824   1.906   6.521  17.306 -0.2286  0.0920 -0.0239
 2778TIP3    H129825   1.935   6.524  17.215 -0.3169  2.2280 -0.0359
 2778TIP3    H229826   1.919   6.611  17.338 -1.2435 -0.3457  1.7385
 2779TIP3   OH229827   5.541   6.494   3.036  0.1415 -0.5635  0.7213
 2779TIP3    H129828   5.490   6.418   3.009 -1.0397  0.4941 -0.1584
 2779TIP3    H229829   5.531   6.557   2.965 -0.5462  1.1476  2.2206
 2780TIP3   OH229830   0.050   0.850  17.440 -0.2686 -0.2029  0.2798
 2780TIP3    H129831   0.076   0.841  17.531 -0.5331  0.9242  0.4742
 2780TIP3    H229832   0.062   0.943  17.420  1.2977 -0.6833 -1.3102
 2781TIP3   OH229833   3.725   6.029   6.159  0.3340  0.0535 -0.1480
 2781TIP3    H129834   3.768   5.946   6.137  3.6273  1.7972 -0.9052
 2781TIP3    H229835   3.670   6.048   6.082  1.0805 -0.5202 -0.8428
 2782TIP3   OH229836   0.575   0.957  16.837 -0.1630  0.0996  0.2047
 2782TIP3    H129837   0.538   0.980  16.922  1.4049  0.8876  0.7260
 2782TIP3    H229838   0.570   1.038  16.787 -1.6549 -0.5189 -0.7225
 2783TIP3   OH229839   4.979   5.322   4.186 -0.0839 -0.3289  0.0328
 2783TIP3    H129840   4.980   5.417   4.184  0.0634 -0.2902  1.2079
 2783TIP3    H229841   4.987   5.299   4.278  1.4494 -1.4876 -0.3330
 2784TIP3   OH229842   0.298   4.878  16.688  0.1505  0.5334 -0.7851
 2784TIP3    H129843   0.230   4.883  16.620  0.1460  2.6921 -0.6974
 2784TIP3    H229844   0.263   4.817  16.753 -0.1687 -1.0084 -2.3344
 2785TIP3   OH229845   5.031   5.953   3.362  0.2526 -0.4025 -0.0389
 2785TIP3    H129846   5.019   6.046   3.378 -1.9925 -0.7578  0.6296
 2785TIP3    H229847   4.962   5.930   3.299  0.9431 -1.5619 -0.4051
 2786TIP3   OH229848   1.134   2.041   4.742  0.3436 -0.0497 -0.0234
 2786TIP3    H129849   1.078   2.067   4.815 -0.0522 -0.8678 -0.0335
 2786TIP3    H229850   1.131   2.116   4.683 -3.1904 -1.1317 -1.4757
 2787TIP3   OH229851   2.213   1.950  16.484  0.4952  0.2175  0.8296
 2787TIP3    H129852   2.301   1.982  16.468  1.7216 -2.0259  2.4865
 2787TIP3    H229853   2.173   2.018  16.538  2.1641  0.1544  2.2404
 2788TIP3   OH229854   4.719   6.299   1.870  0.0865  0.4930  0.5462
 2788TIP3    H129855   4.656   6.257   1.813  1.0119 -1.6733  1.0276
 2788TIP3    H229856   4.764   6.362   1.813  0.3017 -0.8922 -0.8957
 2789TIP3   OH229857   1.046   2.115  13.476 -0.2110 -0.6090 -0.5649
 2789TIP3    H129858   1.002   2.103  13.559 -0.7043 -0.0963 -0.7439
 2789TIP3    H229859   1.138   2.127  13.499 -0.3418 -0.4967 -0.0961
 2790TIP3   OH229860   5.799   5.979   1.848  0.4219  0.7999 -0.0767
 2790TIP3    H129861   5.776   6.010   1.760  1.7958  1.2577 -0.2928
 2790TIP3    H229862   5.868   6.038   1.878  2.5405 -1.4779 -0.1601
 2791TIP3   OH229863   3.304   3.806   0.093  0.2081 -0.1664 -0.5073
 2791TIP3    H129864   3.264   3.719   0.092 -0.1143 -0.0193 -0.5268
 2791TIP3    H229865   3.292   3.837   0.182  0.8575 -0.3816 -0.3359
 2792TIP3   OH229866   0.927   0.913   1.018 -0.0041 -0.1781 -0.5174
 2792TIP3    H129867   0.891   0.999   1.040  0.6984  0.0732 -0.3117
 2792TIP3    H229868   0.935   0.869   1.102  3.1477  0.9653 -0.0858
 2793TIP3   OH229869   3.105   0.272  15.248 -0.2983 -0.6659  0.1846
 2793TIP3    H129870   3.021   0.301  15.212  0.7139  2.0588 -0.2251
 2793TIP3    H229871   3.171   0.306  15.188  1.2317  0.0614  2.1435
 2794TIP3   OH229872   2.157   2.479  11.717 -0.2050  0.1115 -0.4072
 2794TIP3    H129873   2.122   2.483  11.805  1.2943  2.1806  0.1706
 2794TIP3    H229874   2.133   2.564  11.677  1.7644  0.4993 -0.8718
 2795TIP3   OH229875   0.371   3.204   3.542  0.0727  0.3244 -0.2616
 2795TIP3    H129876   0.305   3.137   3.559  0.6279  0.4351  2.9505
 2795TIP3    H229877   0.413   3.218   3.627  5.7250 -1.2350 -2.3389
 2796TIP3   OH229878   1.773   2.328   2.223  0.7317 -0.2139 -0.5096
 2796TIP3    H129879   1.805   2.289   2.142  0.6519 -0.2935 -0.5032
 2796TIP3    H229880   1.850   2.367   2.264  0.5209  1.1631 -1.3718
 2797TIP3   OH229881   3.717   1.279  16.641 -0.0837 -0.4318  0.3806
 2797TIP3    H129882   3.688   1.309  16.554  1.4259 -1.3935 -0.4928
 2797TIP3    H229883   3.640   1.237  16.679 -0.6143 -0.4961 -0.7322
 2798TIP3   OH229884   4.771   4.073  12.474 -0.5766 -0.6013 -0.0567
 2798TIP3    H129885   4.788   3.984  12.443 -1.2308 -0.8142  0.1907
 2798TIP3    H229886   4.766   4.126  12.395 -1.8521 -1.0743 -0.3116
 2799TIP3   OH229887   5.327   4.331  11.364  0.1359 -0.4617 -0.5724
 2799TIP3    H129888   5.285   4.254  11.402 -0.3386 -0.8681 -1.8661
 2799TIP3    H229889   5.314   4.321  11.269  0.5493  0.9250 -0.7951
 2800TIP3   OH229890   1.026   0.554  16.003  0.7095  0.2370  0.0307
 2800TIP3    H129891   1.044   0.601  16.085  1.1015  2.0210 -1.0192
 2800TIP3    H229892   0.940   0.588  15.975  0.3684 -0.6982 -0.0743
 2801TIP3   OH229893   6.487   3.340  15.550  0.2237 -0.4595  0.0903
 2801TIP3    H129894   6.548   3.374  15.615 -0.7329 -0.4474  1.0004
 2801TIP3    H229895   6.410   3.313  15.600 -0.4735 -0.6037 -1.0163
 2802TIP3   OH229896   3.158   1.835   0.756 -0.5163  0.2479 -0.5379
 2802TIP3    H129897   3.199   1.759   0.796 -0.8538  0.7132  0.7181
 2802TIP3    H229898   3.131   1.890   0.829 -1.2255  1.0852 -1.3983
 2803TIP3   OH229899   6.710   5.919  13.941  0.2784 -0.2064 -0.2606
 2803TIP3    H129900   6.677   5.853  13.881  1.4488 -2.6914  1.6176
 2803TIP3    H229901   6.805   5.915  13.932  0.3761  1.4374 -0.2610
 2804TIP3   OH229902   2.699   3.325   5.113  0.0902 -0.1519 -0.3921
 2804TIP3    H129903   2.672   3.337   5.204 -1.6409 -2.4790 -0.4766
 2804TIP3    H229904   2.617   3.322   5.065  0.8978 -0.5208 -1.7899
 2805TIP3   OH229905   3.286   2.755  15.636  0.6005 -0.0912 -0.1862
 2805TIP3    H129906   3.367   2.721  15.674  0.7723  0.8584  0.3095
 2805TIP3    H229907   3.225   2.762  15.709 -0.0503 -1.0902 -0.6051
 2806TIP3   OH229908   2.949   5.228   3.224  0.4173 -0.6611 -0.1118
 2806TIP3    H129909   2.972   5.214   3.132  1.7122 -1.0009  0.2466
 2806TIP3    H229910   2.866   5.275   3.221 -0.6861 -2.5562 -1.4354
 2807TIP3   OH229911   0.550   1.550   0.098 -0.2123 -0.3893  0.2922
 2807TIP3    H129912   0.456   1.568   0.105 -0.6193 -1.0078 -2.3503
 2807TIP3    H229913   0.569   1.491   0.170 -1.1392  2.0207  2.6836
 2808TIP3   OH229914   5.781   2.251   4.006  0.1713  0.2026 -0.1535
 2808TIP3    H129915   5.694   2.264   4.044  0.1785 -1.1898  0.3945
 2808TIP3    H229916   5.830   2.204   4.074  0.4917 -1.5152 -1.5117
 2809TIP3   OH229917   4.108   1.941  14.380  0.0542 -0.2723 -0.3272
 2809TIP3    H129918   4.082   2.033  14.378 -2.6711 -0.9632 -0.7621
 2809TIP3    H229919   4.165   1.930  14.304  1.5267  1.2912  0.4859
 2810TIP3   OH229920   4.287   3.085   6.010 -0.3039 -0.0970 -0.9105
 2810TIP3    H129921   4.298   2.998   6.049 -2.8553 -0.3193 -0.4828
 2810TIP3    H229922   4.203   3.079   5.964 -2.5759  3.1603  2.3179
 2811TIP3   OH229923   3.646   1.234  14.389 -0.0513 -0.4580  1.0907
 2811TIP3    H129924   3.702   1.169  14.431  2.5725 -0.1394 -1.5999
 2811TIP3    H229925   3.705   1.306  14.366 -1.5870  0.1372 -1.4574
 2812TIP3   OH229926   6.682   5.023   3.771 -0.5491  0.5460 -0.0866
 2812TIP3    H129927   6.612   5.055   3.829 -1.3884  0.9826 -1.2990
 2812TIP3    H229928   6.761   5.026   3.825 -1.2458  1.2422  0.9358
 2813TIP3   OH229929   3.191   3.760  11.587  0.5273 -0.6111  0.1193
 2813TIP3    H129930   3.173   3.703  11.512  1.3819 -1.9199  0.8826
 2813TIP3    H229931   3.107   3.765  11.634  0.0391  0.0580 -0.7761
 2814TIP3   OH229932   4.999   5.715  13.526  0.3737  0.3321 -0.1988
 2814TIP3    H129933   4.928   5.659  13.557  0.8128 -0.4305 -0.5488
 2814TIP3    H229934   5.010   5.780  13.596 -0.0992 -0.0526  0.2417
 2815TIP3   OH229935   2.125   2.371   4.647  0.3286  0.3666  0.8723
 2815TIP3    H129936   2.208   2.325   4.634 -0.1260 -0.3454  0.4613
 2815TIP3    H229937   2.058   2.308   4.622 -0.3289  1.0601  0.8520
 2816TIP3   OH229938   2.306   1.162   4.916  0.3866  0.5880  0.4455
 2816TIP3    H129939   2.282   1.100   4.847  1.3620  1.2494 -0.5211
 2816TIP3    H229940   2.393   1.194   4.891  0.2614  1.7281  1.3508
 2817TIP3   OH229941   4.137   5.282   3.315  0.7002 -0.0645 -0.1739
 2817TIP3    H129942   4.180   5.355   3.359 -0.1072 -0.4386  1.2709
 2817TIP3    H229943   4.085   5.239   3.383  0.5337 -1.5168 -1.1689
 2818TIP3   OH229944   5.173   2.874   6.028  0.2605  0.5050  0.1197
 2818TIP3    H129945   5.187   2.780   6.041  0.0018  0.4833  0.2571
 2818TIP3    H229946   5.191   2.913   6.114 -0.8701  0.4319  0.4066
 2819TIP3   OH229947   4.990   1.658  16.857  0.2983 -0.2189 -0.5102
 2819TIP3    H129948   5.065   1.662  16.915  1.3472 -0.1789 -1.8131
 2819TIP3    H229949   4.973   1.564  16.848  0.0622 -0.2214 -0.0650
 2820TIP3   OH229950   4.040   4.482   3.884  0.0395 -0.3215 -0.0234
 2820TIP3    H129951   4.026   4.403   3.936 -1.2917 -0.0907 -0.0012
 2820TIP3    H229952   3.964   4.486   3.826  2.3710 -1.6261 -3.4645
 2821TIP3   OH229953   4.075   3.630  14.845 -0.3536 -0.1638  0.1586
 2821TIP3    H129954   4.084   3.535  14.851 -2.4052 -0.3152  1.7874
 2821TIP3    H229955   4.104   3.651  14.756  0.8734 -2.1803  0.0084
 2822TIP3   OH229956   6.582   1.737   6.165  0.0646  0.2338 -1.0201
 2822TIP3    H129957   6.567   1.685   6.243 -0.9642  1.4640 -0.3519
 2822TIP3    H229958   6.638   1.683   6.110  0.5000 -0.8099  0.4020
 2823TIP3   OH229959   3.694   3.396  16.840 -0.3279 -0.6730  0.0004
 2823TIP3    H129960   3.749   3.458  16.792 -0.1711 -0.2432  0.7100
 2823TIP3    H229961   3.746   3.316  16.846  0.4140 -0.1353  1.0275
 2824TIP3   OH229962   4.085   2.398   3.884  0.2286 -1.0794  0.7213
 2824TIP3    H129963   4.056   2.339   3.953  2.0326 -2.3617  0.4535
 2824TIP3    H229964   4.047   2.363   3.804 -0.9117 -0.2655  0.8839
 2825TIP3   OH229965   5.005   3.204   0.593  0.5854 -0.2947 -0.2944
 2825TIP3    H129966   4.985   3.268   0.662 -0.4136 -0.0221 -0.8061
 2825TIP3    H229967   4.959   3.238   0.516  0.5967 -1.2877 -0.7480
 2826TIP3   OH229968   5.528   0.162  16.063  0.0523  0.0612  0.4532
 2826TIP3    H129969   5.571   0.196  15.985 -0.5407  1.0629  0.5470
 2826TIP3    H229970   5.437   0.191  16.055 -0.1841 -0.4533  1.1594
 2827TIP3   OH229971   3.683   5.994   1.138 -0.0494  0.3246 -0.1184
 2827TIP3    H129972   3.683   6.089   1.150  0.2918  0.1185  1.7062
 2827TIP3    H229973   3.763   5.977   1.088  0.4091  0.8997  0.4093
 2828TIP3   OH229974   2.697   6.058  15.367  0.2833  0.3570 -0.1841
 2828TIP3    H129975   2.732   6.039  15.280  1.4370  1.0610  0.1056
 2828TIP3    H229976   2.693   5.973  15.411  0.6850  0.1371 -0.5720
 2829TIP3   OH229977   6.338   1.955  13.820  0.9483 -0.0438  0.0393
 2829TIP3    H129978   6.414   1.900  13.803  0.0249 -1.2756 -0.2435
 2829TIP3    H229979   6.264   1.895  13.816 -0.0017  1.0343  0.8098
 2830TIP3   OH229980   4.035   6.618   1.527 -0.6998 -0.6608 -0.0605
 2830TIP3    H129981   4.038   6.547   1.591 -1.2067 -3.1305 -2.5678
 2830TIP3    H229982   4.067   6.578   1.446  1.0521  2.6073 -1.1447
 2831TIP3   OH229983   1.229   4.148   1.246 -0.4951  0.1853  0.2688
 2831TIP3    H129984   1.149   4.142   1.194  0.7199  1.9836 -2.0149
 2831TIP3    H229985   1.271   4.228   1.215  1.6635 -0.1118  2.1830
 2832TIP3   OH229986   5.504   1.881   1.639 -0.1850 -0.4816  0.5309
 2832TIP3    H129987   5.540   1.902   1.725  0.4161 -0.1655  0.2060
 2832TIP3    H229988   5.430   1.822   1.658 -0.9999  0.7635  1.3484
 2833TIP3   OH229989   3.398   2.496   5.402  0.0644  0.4049 -0.2219
 2833TIP3    H129990   3.311   2.496   5.362  0.4886  1.1199 -1.2097
 2833TIP3    H229991   3.403   2.413   5.449 -1.8815  1.2241  1.5603
 2834TIP3   OH229992   6.177   3.776  11.890 -0.4797  0.2218 -0.4740
 2834TIP3    H129993   6.183   3.697  11.944  0.0423  0.0574 -0.7613
 2834TIP3    H229994   6.109   3.829  11.932  0.6365  0.5715  0.9826
 2835TIP3   OH229995   5.906   1.115  11.907  0.6363 -0.0708 -0.4473
 2835TIP3    H129996   5.820   1.118  11.950 -0.4255 -2.3873 -2.1785
 2835TIP3    H229997   5.968   1.141  11.975 -1.2400 -0.4185  1.5071
 2836TIP3   OH229998   2.832   0.925   5.601  0.8725  0.1002 -0.0781
 2836TIP3    H129999   2.808   0.902   5.690  1.1615  1.1209  0.2761
 2836TIP3    H230000   2.793   0.856   5.547  0.1150 -0.1529  0.7721
 2837TIP3   OH230001   5.965   3.051   4.588 -0.1115 -0.3697 -0.2082
 2837TIP3    H130002   5.871   3.033   4.599  0.1382 -1.4813  0.2080
 2837TIP3    H230003   5.982   3.034   4.496  0.3018 -3.3735  0.3364
 2838TIP3   OH230004   2.465   1.249   2.823 -0.2072  0.1530  0.1228
 2838TIP3    H130005   2.381   1.294   2.830 -0.4014  0.0846 -1.3516
 2838TIP3    H230006   2.503   1.255   2.910 -2.3536 -1.0891  1.2175
 2839TIP3   OH230007   6.389   5.768   4.841  0.1328 -0.4457 -0.0556
 2839TIP3    H130008   6.477   5.733   4.828  0.0057 -1.7389  2.0785
 2839TIP3    H230009   6.355   5.782   4.753  1.9356 -1.3087 -0.9352
 2840TIP3   OH230010   2.153   1.051  14.850 -0.5652 -0.2317 -0.4535
 2840TIP3    H130011   2.147   1.018  14.939 -0.3234  0.1934 -0.2806
 2840TIP3    H230012   2.210   0.988  14.805  0.6499  0.4328  0.1150
 2841TIP3   OH230013   3.857   3.386   5.396 -0.0408  0.2731  0.0495
 2841TIP3    H130014   3.901   3.446   5.456  2.9486 -0.2249 -1.4723
 2841TIP3    H230015   3.892   3.300   5.418  0.1689 -0.0873 -1.5573
 2842TIP3   OH230016   1.197   1.277   2.357 -0.1125  0.0211 -0.5641
 2842TIP3    H130017   1.177   1.208   2.420  0.9363  0.0392 -0.1917
 2842TIP3    H230018   1.111   1.311   2.330 -0.5973 -0.6158  0.1427
 2843TIP3   OH230019   3.367   2.506  12.110  0.1909 -0.1303 -0.2917
 2843TIP3    H130020   3.312   2.472  12.040 -1.1308 -1.8334  1.4672
 2843TIP3    H230021   3.328   2.472  12.191  0.9106  2.7528  1.4211
 2844TIP3   OH230022   3.337   5.701   3.400 -0.2597 -0.0872  0.5787
 2844TIP3    H130023   3.412   5.654   3.364 -0.7826  0.1463 -0.8903
 2844TIP3    H230024   3.345   5.691   3.495  1.3176 -0.5176  0.4245
 2845TIP3   OH230025   1.245   0.678   2.537 -0.8118 -0.2608 -0.0648
 2845TIP3    H130026   1.189   0.623   2.590 -1.1459  1.4852  1.4975
 2845TIP3    H230027   1.283   0.619   2.472 -0.7501 -2.4026  1.8060
 2846TIP3   OH230028   5.475   2.843  13.245 -0.0057  0.1923  0.1412
 2846TIP3    H130029   5.532   2.830  13.321 -1.8030 -1.1501  1.3565
 2846TIP3    H230030   5.477   2.938  13.230  0.1871  0.5321  2.0627
 2847TIP3   OH230031   4.098   0.843   6.239 -0.1315 -0.2046 -0.0457
 2847TIP3    H130032   4.053   0.908   6.186  2.6523  1.4274 -0.6322
 2847TIP3    H230033   4.128   0.890   6.316  3.0882 -0.2793 -1.0965
 2848TIP3   OH230034   2.507   6.704  16.739 -0.3121  0.5475 -0.4163
 2848TIP3    H130035   2.458   6.783  16.717  0.9216  2.7228  3.7118
 2848TIP3    H230036   2.451   6.658  16.802  0.4271 -0.0799 -0.1966
 2849TIP3   OH230037   4.233   1.667  12.171 -0.8006 -0.0661 -0.8960
 2849TIP3    H130038   4.327   1.653  12.185 -1.0350  0.0894  1.0926
 2849TIP3    H230039   4.229   1.737  12.106  0.4454 -0.4484 -1.4226
 2850TIP3   OH230040   6.612   3.880  12.869 -0.0376 -0.2207  0.3778
 2850TIP3    H130041   6.579   3.968  12.852  1.4884  0.4210  0.6536
 2850TIP3    H230042   6.544   3.839  12.924 -0.5533  0.9119  0.6010
 2851TIP3   OH230043   3.103   0.959  15.203  0.4768  0.7157  0.0856
 2851TIP3    H130044   3.042   0.997  15.139 -0.2563  0.2135  0.4728
 2851TIP3    H230045   3.179   1.017  15.201 -0.5042  2.0689  0.4511
 2852TIP3   OH230046   2.769   2.353   1.555  0.3511 -0.1633  0.3830
 2852TIP3    H130047   2.810   2.269   1.578  1.9399  0.5758  0.4046
 2852TIP3    H230048   2.842   2.409   1.529 -0.8076  0.8496 -0.8221
 2853TIP3   OH230049   4.933   3.692   0.100 -0.8438 -0.4292  0.6231
 2853TIP3    H130050   4.840   3.686   0.078 -1.0655 -0.4086  1.5007
 2853TIP3    H230051   4.943   3.636   0.177 -0.5752  1.2300  1.8381
 2854TIP3   OH230052   6.322   0.673   5.818 -0.9820 -0.1402 -0.1606
 2854TIP3    H130053   6.337   0.755   5.771  0.0350 -0.1126  0.1876
 2854TIP3    H230054   6.235   0.644   5.790 -0.3490 -0.2175 -2.1564
 2855TIP3   OH230055   6.026   0.294   1.749  0.8830  0.1461  0.2936
 2855TIP3    H130056   6.002   0.330   1.664  0.4672  2.5124  1.3505
 2855TIP3    H230057   6.103   0.345   1.776 -0.0908  0.7261  2.1218
 2856TIP3   OH230058   5.524   4.751  12.321 -0.5191  0.5386 -0.0425
 2856TIP3    H130059   5.534   4.811  12.247 -1.5653  0.2103 -0.4667
 2856TIP3    H230060   5.430   4.735  12.326 -0.1671 -2.3381 -0.9693
 2857TIP3   OH230061   4.635   5.172   1.961  0.3240 -0.7468 -0.5116
 2857TIP3    H130062   4.623   5.083   1.994  2.5347 -0.9773 -0.1686
 2857TIP3    H230063   4.647   5.225   2.040 -2.8561  0.2803 -0.5841
 2858TIP3   OH230064   3.202   6.404   4.424  0.0761  0.7313  0.2156
 2858TIP3    H130065   3.117   6.391   4.465  0.1748  2.2433  0.9611
 2858TIP3    H230066   3.189   6.476   4.362  0.4439 -0.0925 -0.8452
 2859TIP3   OH230067   2.144   2.349   4.290 -0.2779  0.4780 -1.1203
 2859TIP3    H130068   2.081   2.295   4.336  0.2136 -0.3248 -1.3696
 2859TIP3    H230069   2.091   2.408   4.236 -0.8173  0.3727 -0.7081
 2860TIP3   OH230070   6.197   5.945  12.135  0.1411  0.2812 -0.2153
 2860TIP3    H130071   6.226   5.970  12.047 -0.6619 -0.8392 -0.8313
 2860TIP3    H230072   6.276   5.911  12.176  0.5271  0.8107 -0.5042
 2861TIP3   OH230073   3.036   3.972  12.527 -0.3478 -0.7232  0.1799
 2861TIP3    H130074   3.023   4.033  12.454 -0.4722  1.1685  1.6964
 2861TIP3    H230075   3.131   3.966  12.537 -0.3373  0.2107  0.7705
 2862TIP3   OH230076   1.584   6.058  10.931 -0.1561  0.2521 -0.3123
 2862TIP3    H130077   1.660   6.031  10.983 -0.9393 -0.9392  0.2624
 2862TIP3    H230078   1.531   5.979  10.923 -2.7937  1.6240  1.7909
 2863TIP3   OH230079   5.209   3.888   3.141 -0.3184 -0.2257  0.0434
 2863TIP3    H130080   5.279   3.832   3.176 -0.0489  0.9939  1.5987
 2863TIP3    H230081   5.244   3.923   3.059  1.0024  0.4974  0.8790
 2864TIP3   OH230082   3.059   6.199  17.532  0.0929 -0.7744 -0.1543
 2864TIP3    H130083   3.149   6.229  17.531  0.5481 -1.9841  0.9655
 2864TIP3    H230084   3.055   6.131  17.465 -0.4500  0.4216 -1.3779
 2865TIP3   OH230085   0.712   1.259  15.256 -0.1388  0.7736  0.1285
 2865TIP3    H130086   0.798   1.219  15.239 -1.2511 -1.2766 -1.0712
 2865TIP3    H230087   0.690   1.304  15.174 -0.9735 -0.3120 -0.2803
 2866TIP3   OH230088   2.146   3.960   5.583  0.1839 -0.2232 -0.2963
 2866TIP3    H130089   2.159   3.889   5.646 -0.6731 -0.2320 -0.1196
 2866TIP3    H230090   2.234   3.992   5.564  0.5354 -0.9958  0.0134
 2867TIP3   OH230091   1.948   0.555   2.889 -0.5649  0.9197  0.0623
 2867TIP3    H130092   1.868   0.559   2.942 -0.9913 -1.3625 -0.3006
 2867TIP3    H230093   2.000   0.486   2.930  0.0307  0.5505 -1.2718
 2868TIP3   OH230094   6.215   5.695   5.033 -0.3572  0.5090  0.5067
 2868TIP3    H130095   6.287   5.714   4.972 -1.6084 -0.8735 -1.5306
 2868TIP3    H230096   6.253   5.708   5.120  1.8049  1.6079 -0.5172
 2869TIP3   OH230097   5.005   3.595   3.108  0.0479  0.1634  0.4500
 2869TIP3    H130098   4.919   3.625   3.137 -0.0039  3.0285 -2.1693
 2869TIP3    H230099   5.062   3.670   3.121  1.6537 -0.9403  0.0397
 2870TIP3   OH230100   5.635   1.022  11.327 -0.1383  0.4625 -0.6812
 2870TIP3    H130101   5.641   1.071  11.245 -1.5139  0.8068 -0.5850
 2870TIP3    H230102   5.621   0.931  11.300 -1.1295  0.6539 -0.8381
 2871TIP3   OH230103   3.224   2.801  12.767 -0.4412 -0.2009  0.2342
 2871TIP3    H130104   3.272   2.737  12.819  0.3386  0.7201  0.6812
 2871TIP3    H230105   3.273   2.806  12.685 -0.4536 -0.1126  0.2323
 2872TIP3   OH230106   5.619   1.714   5.864 -0.3576  0.4262 -0.1927
 2872TIP3    H130107   5.676   1.730   5.938  0.7722 -2.2510 -0.3871
 2872TIP3    H230108   5.672   1.735   5.787 -0.1750 -0.4731 -0.3248
 2873TIP3   OH230109   0.277   4.918  17.148  0.3885 -0.1607  0.8032
 2873TIP3    H130110   0.325   4.851  17.100 -0.1816  1.2879 -1.9545
 2873TIP3    H230111   0.195   4.875  17.174  0.4724 -0.8262 -0.0035
 2874TIP3   OH230112   6.575   3.302  14.380 -0.3736 -0.4513  0.2962
 2874TIP3    H130113   6.628   3.343  14.311  0.7237 -2.7883 -0.3650
 2874TIP3    H230114   6.521   3.373  14.415  0.5588  1.2523 -1.5399
 2875TIP3   OH230115   4.967   2.117  13.966  0.4048  0.5248  0.5520
 2875TIP3    H130116   4.950   2.210  13.953  0.3616  0.3079 -1.1659
 2875TIP3    H230117   4.882   2.075  13.955  0.5667  0.2091  0.4905
 2876TIP3   OH230118   2.523   5.265   5.300  0.3871 -0.2233  0.2108
 2876TIP3    H130119   2.618   5.274   5.304  0.3789  0.0484 -0.1683
 2876TIP3    H230120   2.503   5.259   5.206 -0.0762  0.9610  0.2167
 2877TIP3   OH230121   6.039   4.702  17.539  0.0287  0.1677 -0.0774
 2877TIP3    H130122   5.999   4.785  17.565 -2.7529 -0.8464 -0.7065
 2877TIP3    H230123   5.995   4.636  17.594  0.1187 -1.1497 -1.5156
 2878TIP3   OH230124   0.476   0.202  17.338 -0.2569 -0.3399  0.0409
 2878TIP3    H130125   0.460   0.284  17.292  0.1744 -0.7892 -0.9476
 2878TIP3    H230126   0.567   0.209  17.367 -0.2374 -0.4409  0.0047
 2879TIP3   OH230127   5.306   3.349  16.375  0.5108  0.5991 -0.2611
 2879TIP3    H130128   5.230   3.344  16.317  0.1454  1.0585  0.1709
 2879TIP3    H230129   5.278   3.407  16.446  1.2071  0.6369 -0.0131
 2880TIP3   OH230130   4.010   6.209  11.288  0.0827 -0.0465 -0.0698
 2880TIP3    H130131   4.008   6.192  11.194 -2.2247 -1.0591  0.0779
 2880TIP3    H230132   3.980   6.127  11.328 -0.7229  0.9188  1.4196
 2881TIP3   OH230133   2.160   5.864  14.196 -0.1603  0.2756 -0.1937
 2881TIP3    H130134   2.227   5.798  14.211 -1.5304 -0.8022  1.5873
 2881TIP3    H230135   2.120   5.877  14.282 -2.5062  0.5493 -1.2615
 2882TIP3   OH230136   1.961   5.796   5.159 -0.0036 -0.9123  0.2964
 2882TIP3    H130137   1.957   5.713   5.207  0.0892  0.0225  2.0171
 2882TIP3    H230138   1.955   5.863   5.228 -2.7075  0.5612 -1.2030
 2883TIP3   OH230139   4.788   4.746  11.945  0.2117 -0.4941  0.0197
 2883TIP3    H130140   4.759   4.836  11.930 -2.3928 -1.1503  0.6807
 2883TIP3    H230141   4.796   4.739  12.040  0.2190 -1.0053 -0.0166
 2884TIP3   OH230142   5.662   4.333  17.478  0.3859 -0.4790 -0.1922
 2884TIP3    H130143   5.703   4.415  17.449  0.1013 -0.1115  0.4314
 2884TIP3    H230144   5.596   4.315  17.412  0.6155 -0.3418 -0.4638
 2885TIP3   OH230145   5.933   1.390   4.520 -0.5818  0.6780  0.0210
 2885TIP3    H130146   5.903   1.364   4.433 -0.1156 -0.2974  0.1444
 2885TIP3    H230147   5.853   1.391   4.573 -0.6688 -0.0785 -0.0919
 2886TIP3   OH230148   3.797   0.569  15.523 -0.0614  0.2586  0.4316
 2886TIP3    H130149   3.706   0.597  15.536 -0.1573 -0.8225  2.4991
 2886TIP3    H230150   3.825   0.615  15.444 -2.1370  1.2618  0.2085
 2887TIP3   OH230151   2.242   1.568  15.208  0.6823 -0.5742 -0.1749
 2887TIP3    H130152   2.213   1.511  15.279  0.9222  0.0350  0.4182
 2887TIP3    H230153   2.305   1.627  15.248 -1.0587  1.4560 -0.2860
 2888TIP3   OH230154   0.611   3.805   0.711 -0.1796 -0.1058  0.2296
 2888TIP3    H130155   0.643   3.872   0.771 -1.3947  0.9000 -0.1782
 2888TIP3    H230156   0.524   3.782   0.745  0.2400 -1.5095  0.3770
 2889TIP3   OH230157   2.812   6.583  17.363 -0.0309 -0.0310  0.0787
 2889TIP3    H130158   2.725   6.545  17.350 -0.1881  0.3575 -0.0013
 2889TIP3    H230159   2.796   6.675  17.380  0.4224  0.2488 -0.9403
 2890TIP3   OH230160   5.814   1.493   4.991  0.3520 -0.3919  0.7255
 2890TIP3    H130161   5.851   1.531   4.912  1.9129 -0.7121  1.2716
 2890TIP3    H230162   5.880   1.432   5.022 -0.7135 -1.1120  1.6684
 2891TIP3   OH230163   0.805   2.432  16.616 -0.1895  0.0148  0.1121
 2891TIP3    H130164   0.750   2.391  16.549 -1.4920  0.1534  1.0768
 2891TIP3    H230165   0.788   2.526  16.608  1.5634  0.2977 -1.0032
 2892TIP3   OH230166   3.434   2.162  14.617 -0.2972 -0.0399 -0.3920
 2892TIP3    H130167   3.360   2.116  14.656  1.2498 -2.1282  0.2804
 2892TIP3    H230168   3.424   2.149  14.523 -0.1598 -1.3783 -0.2377
 2893TIP3   OH230169   1.534   2.733   2.247  0.2500 -0.2506 -0.4756
 2893TIP3    H130170   1.517   2.731   2.341 -1.5715  2.8960 -0.6007
 2893TIP3    H230171   1.605   2.796   2.237 -0.7368  0.7785 -1.2691
 2894TIP3   OH230172   6.563   4.201  17.048 -0.0149  0.0374  0.2525
 2894TIP3    H130173   6.641   4.160  17.008 -1.6907 -2.0782 -1.1000
 2894TIP3    H230174   6.573   4.184  17.142  0.0987 -2.2913 -0.1212
 2895TIP3   OH230175   4.720   5.124   5.483  0.6952  0.2395 -0.4904
 2895TIP3    H130176   4.662   5.052   5.507 -0.0105  0.6259 -1.0148
 2895TIP3    H230177   4.737   5.170   5.565 -0.9433  0.9990 -0.5329
 2896TIP3   OH230178   1.186   6.156  11.178  0.1093 -0.2332 -0.1337
 2896TIP3    H130179   1.204   6.215  11.104 -1.3719  0.0387 -0.2954
 2896TIP3    H230180   1.150   6.077  11.137 -0.1197 -0.3308  0.2549
 2897TIP3   OH230181   0.601   2.159   1.668 -0.0229  0.0032 -0.1017
 2897TIP3    H130182   0.651   2.238   1.690  1.2542 -0.4283 -1.3604
 2897TIP3    H230183   0.515   2.175   1.706  0.2450  1.9503 -0.1918
 2898TIP3   OH230184   0.354   6.351  11.336 -0.1971  0.4450  0.1521
 2898TIP3    H130185   0.313   6.419  11.283  0.8396 -0.9537 -2.6862
 2898TIP3    H230186   0.303   6.273  11.319  0.5160 -0.1702  0.7643
 2899TIP3   OH230187   2.721   0.808  11.334 -0.1429  0.8012 -0.2547
 2899TIP3    H130188   2.812   0.809  11.306 -0.0936  0.3432 -0.1166
 2899TIP3    H230189   2.672   0.840  11.259 -0.1517 -1.5928 -1.3401
 2900TIP3   OH230190   3.444   1.156   1.598 -0.0803 -0.7520 -0.4186
 2900TIP3    H130191   3.519   1.215   1.600 -0.1683 -0.5431 -2.0228
 2900TIP3    H230192   3.369   1.212   1.616 -0.1255 -0.4261 -1.5758
 2901TIP3   OH230193   6.653   4.610   4.809  0.0415 -0.8162  0.7654
 2901TIP3    H130194   6.625   4.677   4.748  4.1406  0.9099  0.4740
 2901TIP3    H230195   6.609   4.632   4.892 -3.0589 -1.3243 -0.5805
 2902TIP3   OH230196   5.496   2.993   5.352 -0.1125  0.0042  0.1360
 2902TIP3    H130197   5.485   2.900   5.374  1.0204 -0.0514  0.4988
 2902TIP3    H230198   5.555   2.993   5.277  0.1033  0.4477  0.3027
 2903TIP3   OH230199   1.865   6.216  14.102  0.0896 -0.3083 -0.7509
 2903TIP3    H130200   1.927   6.213  14.029 -1.6280  0.8051 -2.3601
 2903TIP3    H230201   1.814   6.296  14.086  1.7236  1.9105  3.5078
 2904TIP3   OH230202   5.512   2.435  16.135  0.2785 -0.7351 -0.7607
 2904TIP3    H130203   5.524   2.528  16.153  2.4289 -1.2421  0.8293
 2904TIP3    H230204   5.420   2.427  16.110 -0.1873  1.6725 -0.0688
 2905TIP3   OH230205   1.230   3.817   2.479  0.8969  0.4916 -0.3368
 2905TIP3    H130206   1.173   3.828   2.404  1.1937  0.2000 -0.6077
 2905TIP3    H230207   1.195   3.877   2.545 -0.1137 -0.1418 -0.2703
 2906TIP3   OH230208   1.446   3.718   0.597  0.5179 -0.1183 -0.1035
 2906TIP3    H130209   1.407   3.754   0.518 -1.2214 -0.8089  0.3894
 2906TIP3    H230210   1.458   3.793   0.655  1.2228  0.2964 -0.7658
 2907TIP3   OH230211   4.069   0.414   2.596  0.2890  0.1843  0.5679
 2907TIP3    H130212   4.142   0.371   2.639  1.6105  1.6779 -0.0578
 2907TIP3    H230213   4.020   0.456   2.666 -0.2851 -1.2283  1.0412
 2908TIP3   OH230214   1.091   6.461   2.574  0.4454 -0.4987  0.1809
 2908TIP3    H130215   1.164   6.512   2.539 -0.0839 -0.0760 -0.3593
 2908TIP3    H230216   1.122   6.426   2.657  1.3705 -0.6079 -0.2029
 2909TIP3   OH230217   3.659   6.419  17.342 -0.2396  0.1301  0.3226
 2909TIP3    H130218   3.656   6.329  17.309  1.6410 -0.9768  2.8307
 2909TIP3    H230219   3.569   6.451  17.333 -0.8767 -1.8190 -0.9919
 2910TIP3   OH230220   4.055   4.319   5.338 -0.5486  0.1131  0.8905
 2910TIP3    H130221   4.141   4.282   5.360 -0.8815 -0.3097  1.5198
 2910TIP3    H230222   4.023   4.264   5.266 -0.4532  0.0283  0.9114
 2911TIP3   OH230223   0.567   2.829  16.484 -0.1276  0.6045  0.8155
 2911TIP3    H130224   0.493   2.827  16.545  0.1038  1.5954  1.1487
 2911TIP3    H230225   0.541   2.892  16.417  0.3906  0.9243  0.9132
 2912TIP3   OH230226   6.420   3.346   1.504  0.0208  0.2523 -0.5695
 2912TIP3    H130227   6.499   3.367   1.454  1.6582 -0.7620  1.4233
 2912TIP3    H230228   6.412   3.251   1.498 -0.8154  0.3088 -0.4238
 2913TIP3   OH230229   2.867   3.325  10.868 -0.6365 -0.7459  0.2608
 2913TIP3    H130230   2.951   3.324  10.822 -1.4016 -0.0029 -1.2318
 2913TIP3    H230231   2.872   3.251  10.928  0.6968 -1.3279 -0.5133
 2914TIP3   OH230232   6.483   0.847  15.729 -0.0379 -0.0723 -0.4981
 2914TIP3    H130233   6.537   0.858  15.807  0.6714 -1.3437 -0.7870
 2914TIP3    H230234   6.410   0.792  15.757 -1.3937  1.8496 -0.0433
 2915TIP3   OH230235   6.155   6.190   3.946  0.0774 -0.3490 -0.6490
 2915TIP3    H130236   6.101   6.210   4.022  1.6734 -0.8552  0.6796
 2915TIP3    H230237   6.100   6.212   3.870 -2.3946 -1.8669  0.5690
 2916TIP3   OH230238   3.637   5.515   2.967 -1.0655 -0.3844  0.0717
 2916TIP3    H130239   3.631   5.487   2.875 -0.6469  1.6824 -0.6526
 2916TIP3    H230240   3.625   5.435   3.017 -1.0704 -1.6287 -1.7899
 2917TIP3   OH230241   3.429   5.919   0.396  0.0392  0.7142 -0.2828
 2917TIP3    H130242   3.520   5.902   0.371  0.2043  0.5978  0.3822
 2917TIP3    H230243   3.378   5.859   0.342  0.4413 -0.0536  0.1752
 2918TIP3   OH230244   0.861   1.103   4.319  0.5367  0.4392  0.1704
 2918TIP3    H130245   0.823   1.027   4.275  2.4265 -0.7816  0.5183
 2918TIP3    H230246   0.794   1.171   4.312  0.0186 -0.2388 -2.9339
 2919TIP3   OH230247   3.152   4.466   2.495 -0.7003  0.1320 -0.6464
 2919TIP3    H130248   3.112   4.423   2.419  1.5676 -1.1504 -1.2278
 2919TIP3    H230249   3.189   4.547   2.460 -1.2864  0.4641 -0.4956
 2920TIP3   OH230250   1.285   0.829   1.939 -0.1165 -0.4928 -0.5761
 2920TIP3    H130251   1.255   0.876   2.017  0.0232 -0.6228 -0.4424
 2920TIP3    H230252   1.370   0.868   1.919 -0.8680  0.6572 -1.6276
 2921TIP3   OH230253   4.794   6.500  14.835  0.1556 -0.4932 -1.0004
 2921TIP3    H130254   4.814   6.408  14.854  0.1438 -0.4484 -0.7707
 2921TIP3    H230255   4.719   6.496  14.775 -0.3532 -0.6173 -0.3719
 2922TIP3   OH230256   3.336   3.023   3.113  0.1738  0.4474 -0.0926
 2922TIP3    H130257   3.328   3.113   3.145  3.2384  0.6482  0.5064
 2922TIP3    H230258   3.256   2.980   3.143  0.0694  2.1814  2.5505
 2923TIP3   OH230259   1.562   0.787   0.480  0.4061 -0.1407 -0.4235
 2923TIP3    H130260   1.556   0.808   0.387  2.8332  0.8019 -0.4567
 2923TIP3    H230261   1.655   0.798   0.501 -0.3741  1.9175  2.6133
 2924TIP3   OH230262   5.692   1.624   2.842  0.4110 -0.0669  0.0005
 2924TIP3    H130263   5.775   1.585   2.868  0.7253 -0.8969 -2.0405
 2924TIP3    H230264   5.682   1.600   2.750 -1.2200  1.5636 -0.3114
 2925TIP3   OH230265   1.515   1.973   0.366  0.0707 -0.6304 -0.0874
 2925TIP3    H130266   1.460   2.049   0.384  2.2172  1.0455 -0.2248
 2925TIP3    H230267   1.522   1.928   0.450  0.8172  0.7712  0.6342
 2926TIP3   OH230268   1.666   4.986   0.984  0.0753 -0.1289  0.2428
 2926TIP3    H130269   1.680   4.915   1.045  0.4032  0.9090  1.4154
 2926TIP3    H230270   1.754   5.017   0.962 -0.0273 -0.6395 -0.9516
 2927TIP3   OH230271   1.925   0.198   4.140 -0.1869  0.4009 -0.0337
 2927TIP3    H130272   2.019   0.195   4.157  0.0678  0.7215 -1.2763
 2927TIP3    H230273   1.885   0.213   4.226  0.9204  0.6837  0.4465
 2928TIP3   OH230274   0.581   0.916   0.463  0.2371  0.3154 -0.0249
 2928TIP3    H130275   0.490   0.885   0.463  1.2859 -3.2231 -0.8150
 2928TIP3    H230276   0.582   0.989   0.401 -2.2640  1.4398  1.0995
 2929TIP3   OH230277   4.794   5.511  13.877  0.1119 -0.2844 -0.4269
 2929TIP3    H130278   4.777   5.417  13.869  0.3965 -0.2483 -1.6838
 2929TIP3    H230279   4.758   5.534  13.962  0.5474 -1.6377  0.1505
 2930TIP3   OH230280   4.624   2.527  16.560  0.5135 -0.4295  0.1935
 2930TIP3    H130281   4.663   2.614  16.550 -1.2733  0.3912  0.1129
 2930TIP3    H230282   4.687   2.469  16.517  1.1296  0.9700 -0.8943
 2931TIP3   OH230283   5.146   4.345   2.228 -0.1206  0.3197 -0.2082
 2931TIP3    H130284   5.091   4.372   2.301  0.1835 -0.1292  0.1905
 2931TIP3    H230285   5.197   4.424   2.206 -1.0081  0.7741 -0.6727
 2932TIP3   OH230286   2.493   2.787   2.790  0.4137  0.6498  0.1328
 2932TIP3    H130287   2.519   2.816   2.702 -0.5234 -1.4287 -0.8932
 2932TIP3    H230288   2.513   2.694   2.792 -3.4254 -0.3332  0.5346
 2933TIP3   OH230289   1.593   5.069   2.088  0.2370 -0.0135 -0.0312
 2933TIP3    H130290   1.638   5.045   2.169 -0.5773 -2.5278 -0.2386
 2933TIP3    H230291   1.601   4.991   2.032  0.7876  1.6430 -2.4156
 2934TIP3   OH230292   5.150   0.833  11.291 -0.2203 -0.3628 -0.0995
 2934TIP3    H130293   5.089   0.793  11.229 -0.4158  1.1985 -0.9693
 2934TIP3    H230294   5.234   0.835  11.245 -0.2153  0.2298 -0.0699
 2935TIP3   OH230295   0.677   2.586  11.831 -0.1042 -0.5295  0.0124
 2935TIP3    H130296   0.698   2.628  11.747 -1.4678 -0.2086 -0.1869
 2935TIP3    H230297   0.616   2.646  11.874 -2.4676 -2.4205 -0.4624
 2936TIP3   OH230298   2.527   3.118  16.580  0.3790 -0.1490  0.1875
 2936TIP3    H130299   2.607   3.132  16.528  0.0771  0.9669  0.0136
 2936TIP3    H230300   2.553   3.136  16.670  0.9053 -2.0938  0.4753
 2937TIP3   OH230301   1.644   4.332   6.493  0.2293  0.7782  0.3782
 2937TIP3    H130302   1.640   4.390   6.570  1.3663 -1.0933  1.9366
 2937TIP3    H230303   1.593   4.256   6.518  1.8161 -0.4992 -0.1146
 2938TIP3   OH230304   0.633   1.723  12.181  0.1479 -0.5303  0.1373
 2938TIP3    H130305   0.657   1.742  12.272 -0.9408  0.4148  0.2473
 2938TIP3    H230306   0.705   1.670  12.148  1.0857  0.0277  1.2220
 2939TIP3   OH230307   0.219   2.491  13.818 -0.1046  0.4326 -0.1876
 2939TIP3    H130308   0.193   2.559  13.880  0.5394  0.8588 -0.3805
 2939TIP3    H230309   0.183   2.520  13.734 -0.4945  0.1360 -0.1289
 2940TIP3   OH230310   0.663   3.017   2.802 -0.2419 -0.3368 -0.5590
 2940TIP3    H130311   0.748   3.054   2.827  0.5727 -1.6590 -1.2611
 2940TIP3    H230312   0.661   2.931   2.844 -1.9581  0.2994  0.7870
 2941TIP3   OH230313   4.475   3.755   6.671 -0.1216  0.5007  0.8223
 2941TIP3    H130314   4.553   3.714   6.635 -0.8128 -0.6941  0.6405
 2941TIP3    H230315   4.507   3.806   6.746  0.7086 -0.7354  1.3331
 2942TIP3   OH230316   4.106   4.761  11.890 -0.5703  0.2833  0.1270
 2942TIP3    H130317   4.143   4.759  11.978 -2.7080  0.5133  1.1006
 2942TIP3    H230318   4.118   4.672  11.857  3.0198  0.9204 -0.6671
 2943TIP3   OH230319   5.112   4.675   0.436 -0.3622 -0.0171  0.0438
 2943TIP3    H130320   5.166   4.754   0.444  1.4869 -1.4023  3.1813
 2943TIP3    H230321   5.130   4.642   0.348  1.2881  1.3759 -0.1835
 2944TIP3   OH230322   4.112   5.280  13.571  0.3077 -0.1219  0.4837
 2944TIP3    H130323   4.092   5.262  13.479  0.9246 -0.2412  0.3718
 2944TIP3    H230324   4.030   5.316  13.606  0.6772  2.0675 -0.6674
 2945TIP3   OH230325   5.506   5.385  13.148 -0.2884  0.2528 -0.1037
 2945TIP3    H130326   5.594   5.362  13.117 -0.9588 -0.3442 -1.7046
 2945TIP3    H230327   5.447   5.341  13.086 -1.7084  2.2467 -0.2770
 2946TIP3   OH230328   5.856   3.038  16.118 -0.0731 -0.4163  0.3366
 2946TIP3    H130329   5.853   2.996  16.204  0.1110 -0.7019  0.2057
 2946TIP3    H230330   5.792   2.989  16.066 -1.4136  0.8079  0.7674
 2947TIP3   OH230331   0.238   0.620  13.482 -0.0850  0.0060  0.4080
 2947TIP3    H130332   0.163   0.598  13.427 -0.2303  1.7452 -0.1357
 2947TIP3    H230333   0.207   0.601  13.571 -0.3121 -1.5393  0.0413
 2948TIP3   OH230334   5.677   6.382   0.367  0.0330  0.1760  0.1731
 2948TIP3    H130335   5.642   6.332   0.294  0.4002 -0.8301  0.6755
 2948TIP3    H230336   5.602   6.429   0.402 -0.0024  1.3074 -1.3289
 2949TIP3   OH230337   5.140   5.316  16.850  0.0830 -0.2583  0.0059
 2949TIP3    H130338   5.189   5.238  16.874 -0.3181  0.7047  5.0382
 2949TIP3    H230339   5.206   5.382  16.831  0.6656 -0.2798  1.8328
 2950TIP3   OH230340   1.774   2.390   4.266  0.1884  0.0039  0.2066
 2950TIP3    H130341   1.854   2.438   4.244 -0.6905  0.0169 -3.7720
 2950TIP3    H230342   1.801   2.298   4.269  0.7097  0.1764  1.2319
 2951TIP3   OH230343   4.149   6.681   1.240 -0.3908  0.0668 -0.5642
 2951TIP3    H130344   4.169   6.765   1.280 -0.2108 -0.6316  0.8907
 2951TIP3    H230345   4.185   6.686   1.152  0.6246  1.0967 -0.1061
 2952TIP3   OH230346   4.667   6.436  13.045  0.1472 -0.1838 -0.0313
 2952TIP3    H130347   4.614   6.373  12.997 -1.9169  1.3324  0.1305
 2952TIP3    H230348   4.658   6.410  13.137 -1.5938  0.8837  0.1488
 2953TIP3   OH230349   1.858   0.900  15.210  0.1777  0.3764  0.3101
 2953TIP3    H130350   1.871   0.807  15.189  0.3362  1.0824 -3.3880
 2953TIP3    H230351   1.763   0.911  15.212  0.1617  0.3430 -0.3123
 2954TIP3   OH230352   0.786   1.105   1.224 -0.4199 -0.2984 -0.5705
 2954TIP3    H130353   0.696   1.082   1.244 -1.5274  2.9574 -1.2569
 2954TIP3    H230354   0.827   1.117   1.310 -0.9456 -0.6518 -0.2656
 2955TIP3   OH230355   1.905   6.059   1.455 -0.8158  0.0509  0.1366
 2955TIP3    H130356   1.932   6.125   1.391  0.9206  0.5338  1.2975
 2955TIP3    H230357   1.960   5.983   1.437 -0.3111  0.1890  1.0312
 2956TIP3   OH230358   5.916   1.396  16.792  1.0887  0.4965 -0.4380
 2956TIP3    H130359   5.962   1.312  16.790  1.1523  0.5235 -0.2080
 2956TIP3    H230360   5.828   1.377  16.762  0.7198  0.0991  0.8559
 2957TIP3   OH230361   5.477   0.576   1.296 -0.0116  0.1051  0.3172
 2957TIP3    H130362   5.458   0.667   1.319  0.3059  0.1606  0.3686
 2957TIP3    H230363   5.416   0.525   1.350  1.3607  0.1905  2.0381
 2958TIP3   OH230364   6.226   1.112  14.056  0.0739 -0.5701  0.1808
 2958TIP3    H130365   6.278   1.141  13.981  1.5218  0.3342  1.4815
 2958TIP3    H230366   6.239   1.179  14.122 -1.2689 -1.2850  1.2344
 2959TIP3   OH230367   3.893   0.904   5.561  0.3197 -0.2571 -0.4962
 2959TIP3    H130368   3.981   0.921   5.593  1.6925 -3.0430 -2.3561
 2959TIP3    H230369   3.880   0.810   5.575 -0.5927 -0.8020 -3.9774
 2960TIP3   OH230370   3.281   4.478  11.643 -0.5499  0.0232 -0.6767
 2960TIP3    H130371   3.269   4.429  11.561  0.8708 -0.1867 -0.7781
 2960TIP3    H230372   3.270   4.570  11.617 -0.5811 -0.0710 -1.0078
 2961TIP3   OH230373   3.624   3.992   0.567  0.2550 -0.2508  0.0126
 2961TIP3    H130374   3.595   4.082   0.582  1.3016  0.0271  0.4550
 2961TIP3    H230375   3.612   3.948   0.651 -0.3808 -0.5736 -0.2376
 2962TIP3   OH230376   2.956   1.184   5.675  0.3536  0.9313 -0.2835
 2962TIP3    H130377   3.047   1.157   5.678  0.1767  0.2997 -0.5414
 2962TIP3    H230378   2.911   1.113   5.629 -0.3100  1.1123  0.0789
 2963TIP3   OH230379   5.462   0.558   2.439 -0.3255 -0.2013  0.1956
 2963TIP3    H130380   5.421   0.538   2.523  1.7524  1.2269  1.6327
 2963TIP3    H230381   5.501   0.644   2.451  1.6497 -0.7612 -1.6010
 2964TIP3   OH230382   3.352   2.491  17.052 -0.6557 -0.2425 -0.5525
 2964TIP3    H130383   3.364   2.459  17.141  0.5299  2.2635  0.2973
 2964TIP3    H230384   3.421   2.448  17.001  0.7175  0.6656  0.4694
 2965TIP3   OH230385   6.553   6.536   4.625  0.5327 -0.2169 -0.2188
 2965TIP3    H130386   6.549   6.599   4.697 -2.2553 -0.2115 -0.2439
 2965TIP3    H230387   6.536   6.451   4.667 -1.0911 -0.2186 -0.8040
 2966TIP3   OH230388   2.435   1.805   2.526 -0.0369  0.1902  0.0094
 2966TIP3    H130389   2.484   1.803   2.445 -0.8625  1.6679 -0.5600
 2966TIP3    H230390   2.351   1.844   2.503 -1.2912 -1.6776  1.0676
 2967TIP3   OH230391   1.341   3.420  17.441  0.4096  1.0756 -0.3063
 2967TIP3    H130392   1.283   3.344  17.434 -1.2321  2.2182  0.4000
 2967TIP3    H230393   1.428   3.382  17.455  0.0000 -0.6877 -2.2020
 2968TIP3   OH230394   3.524   3.030  14.627  0.6418 -0.4145 -0.0207
 2968TIP3    H130395   3.511   2.939  14.653 -0.3983 -0.2444  0.1083
 2968TIP3    H230396   3.566   3.025  14.541 -0.1350 -1.0358 -0.3742
 2969TIP3   OH230397   5.368   0.422   4.072 -0.2381 -0.0908  0.2195
 2969TIP3    H130398   5.364   0.504   4.022  0.9505  0.9321  1.7097
 2969TIP3    H230399   5.375   0.354   4.005 -1.6414  0.9674 -1.0710
 2970TIP3   OH230400   1.746   5.361  14.652 -0.3009  0.0182 -0.2695
 2970TIP3    H130401   1.763   5.419  14.727  1.3248 -2.6126  1.5887
 2970TIP3    H230402   1.757   5.418  14.576  2.2054  2.0084  1.3629
 2971TIP3   OH230403   0.740   6.292  15.013 -0.5219  0.0878 -0.2591
 2971TIP3    H130404   0.736   6.218  14.953  0.1052 -0.0091 -0.1869
 2971TIP3    H230405   0.656   6.290  15.059 -0.9777  0.1224 -1.0743
 2972TIP3   OH230406   5.509   6.392  16.740 -0.0193  0.2590 -0.2178
 2972TIP3    H130407   5.519   6.372  16.647  0.5509  2.1488 -0.5944
 2972TIP3    H230408   5.416   6.410  16.751 -0.2471 -0.8594 -0.2133
 2973TIP3   OH230409   3.493   5.107   5.269 -0.0640  0.1714  0.5042
 2973TIP3    H130410   3.470   5.106   5.362  0.3589 -3.2928  0.7225
 2973TIP3    H230411   3.434   5.044   5.229 -1.0867  2.5100 -1.9147
 2974TIP3   OH230412   4.752   0.664  17.303  0.2256  0.0329  0.1034
 2974TIP3    H130413   4.805   0.594  17.343 -0.7772 -0.3288  0.8524
 2974TIP3    H230414   4.711   0.707  17.378 -1.0150 -0.0889 -0.4860
 2975TIP3   OH230415   1.651   6.438  16.093 -0.1779  0.3040 -0.4749
 2975TIP3    H130416   1.639   6.524  16.053  1.0881  1.4066  1.3754
 2975TIP3    H230417   1.740   6.439  16.127 -0.5266 -1.3073  0.6162
 2976TIP3   OH230418   2.866   3.012   3.658 -0.1408  0.4035  0.1116
 2976TIP3    H130419   2.891   2.927   3.694 -2.2972 -0.3759 -0.1088
 2976TIP3    H230420   2.825   3.058   3.731 -1.9368 -0.0723 -0.5462
 2977TIP3   OH230421   2.814   0.088  14.518  0.0813  0.2633 -0.0011
 2977TIP3    H130422   2.808   0.152  14.590 -3.0221 -0.8543  0.8891
 2977TIP3    H230423   2.726   0.054  14.509  1.2024 -2.5135 -1.7793
 2978TIP3   OH230424   3.660   0.422   2.208 -0.0505 -0.6227 -0.3507
 2978TIP3    H130425   3.734   0.412   2.149  0.5432  2.2845 -0.2079
 2978TIP3    H230426   3.689   0.484   2.275 -1.6228 -1.7169  1.4787
 2979TIP3   OH230427   5.663   6.112  10.467  0.3409 -0.1672 -0.0300
 2979TIP3    H130428   5.742   6.128  10.416  1.0588 -0.6566  0.9002
 2979TIP3    H230429   5.637   6.199  10.499  1.3086 -0.1606  0.7999
 2980TIP3   OH230430   3.501   5.508   2.335  0.5716  0.3730  0.1933
 2980TIP3    H130431   3.583   5.497   2.383  0.6299  1.0922  0.2577
 2980TIP3    H230432   3.495   5.602   2.317  0.9043  0.0495 -1.8320
 2981TIP3   OH230433   2.172   5.392  11.172 -0.7334  0.1552  0.0976
 2981TIP3    H130434   2.195   5.450  11.099  0.7649 -0.4310  0.0667
 2981TIP3    H230435   2.214   5.308  11.150  0.2244  0.1292  1.8853
 2982TIP3   OH230436   0.190   3.043   3.087 -0.0121  0.3037  0.8511
 2982TIP3    H130437   0.259   3.084   3.140 -0.1844  2.2239 -0.3030
 2982TIP3    H230438   0.235   3.008   3.011 -0.1569  0.4354  0.7037
 2983TIP3   OH230439   6.144   1.206   1.185  0.5850 -0.2101  0.8455
 2983TIP3    H130440   6.230   1.243   1.207  0.1164  0.3420  1.7946
 2983TIP3    H230441   6.144   1.201   1.089  1.8083 -0.5527  0.8512
 2984TIP3   OH230442   0.013   0.738   4.415 -0.3436 -0.1047  0.9825
 2984TIP3    H130443  -0.027   0.651   4.403  2.4284 -1.7275  2.5930
 2984TIP3    H230444  -0.012   0.763   4.504  1.1378 -0.5837  1.5549
 2985TIP3   OH230445   6.160   4.160  11.812  0.2751  0.0049  0.7028
 2985TIP3    H130446   6.116   4.077  11.829  1.7407 -1.0137 -0.2724
 2985TIP3    H230447   6.196   4.186  11.897 -0.2644 -0.3031  1.0316
 2986TIP3   OH230448   5.083   5.914  15.959  0.7077  0.2133  0.2723
 2986TIP3    H130449   5.133   5.877  15.887 -0.6516 -0.3816 -0.3859
 2986TIP3    H230450   5.015   5.850  15.978 -0.4417  1.4411  0.4724
 2987TIP3   OH230451   4.505   4.650   4.380 -0.3951  0.3473 -0.1526
 2987TIP3    H130452   4.517   4.555   4.373  0.5338  0.3905  0.6362
 2987TIP3    H230453   4.485   4.678   4.291 -0.5800 -0.5700 -0.4134
 2988TIP3   OH230454   3.606   4.808   5.350  0.2674  0.4814  0.3984
 2988TIP3    H130455   3.586   4.744   5.419  1.3951 -1.8329 -1.3089
 2988TIP3    H230456   3.654   4.877   5.396  0.9134 -0.9310  1.9994
 2989TIP3   OH230457   6.030   5.241   4.859 -0.1687 -0.1465  0.1154
 2989TIP3    H130458   6.044   5.310   4.924 -2.8455  0.6811 -0.0768
 2989TIP3    H230459   6.019   5.162   4.910  0.3005  0.0445  0.5146
 2990TIP3   OH230460   4.326   5.415   5.409  0.2557  0.3630 -0.0916
 2990TIP3    H130461   4.405   5.365   5.427 -0.6270 -0.9326  0.3225
 2990TIP3    H230462   4.256   5.364   5.449 -0.6226  2.2767  0.9689
 2991TIP3   OH230463   0.928   1.714   3.584  0.0511 -1.2182 -0.1180
 2991TIP3    H130464   0.920   1.808   3.564  1.4416 -0.6769  1.6037
 2991TIP3    H230465   0.838   1.684   3.592 -0.4429 -0.2444 -1.5362
 2992TIP3   OH230466   1.231   3.792   5.643  0.4599 -0.5440 -0.2984
 2992TIP3    H130467   1.237   3.706   5.684  1.9978 -1.2218 -1.8210
 2992TIP3    H230468   1.190   3.847   5.709 -0.9494 -2.5192  0.5830
 2993TIP3   OH230469   4.947   0.057   2.525  0.0265 -1.0396  0.5601
 2993TIP3    H130470   4.884   0.126   2.546  1.9003  1.4537 -1.4093
 2993TIP3    H230471   4.896  -0.007   2.475 -1.5969 -0.7781  1.7904
 2994TIP3   OH230472   5.915   3.349  14.800 -0.0379 -0.6019 -0.1977
 2994TIP3    H130473   5.982   3.305  14.748 -2.0354 -2.3278 -1.4536
 2994TIP3    H230474   5.847   3.373  14.738 -0.2508  1.9720  0.8958
 2995TIP3   OH230475   4.507   5.968   2.900  0.0154 -1.1994  0.2829
 2995TIP3    H130476   4.534   5.883   2.934  0.1924 -1.1666  0.2259
 2995TIP3    H230477   4.589   6.011   2.876  0.2476  0.1829  3.0460
 2996TIP3   OH230478   1.782   2.499  11.686 -0.0810 -0.6335  0.0626
 2996TIP3    H130479   1.787   2.413  11.645 -0.2016 -0.1235 -1.0600
 2996TIP3    H230480   1.764   2.481  11.778 -2.4802 -1.7894 -0.5434
 2997TIP3   OH230481   6.569   4.460  13.900 -0.0285  0.0124 -0.5835
 2997TIP3    H130482   6.588   4.443  13.808 -2.0488 -0.1821 -1.0127
 2997TIP3    H230483   6.568   4.556  13.907  0.5676  0.0273 -0.6482
 2998TIP3   OH230484   0.393   5.202  15.130 -0.3051 -0.5103 -0.4964
 2998TIP3    H130485   0.482   5.187  15.097  0.1135  0.0284  0.3290
 2998TIP3    H230486   0.389   5.150  15.211 -0.5882 -0.1872 -0.3002
 2999TIP3   OH230487   4.214   1.079   4.531  0.0871 -0.1729 -0.7090
 2999TIP3    H130488   4.220   1.010   4.597 -0.3429 -0.8197 -1.3358
 2999TIP3    H230489   4.126   1.115   4.540  0.6826  1.1281  0.4039
 3000TIP3   OH230490   4.606   4.436   2.826  0.1107  0.2146  0.3334
 3000TIP3    H130491   4.679   4.469   2.774  0.8869  1.0729  1.8961
 3000TIP3    H230492   4.641   4.358   2.870 -0.9503 -1.3331 -1.3778
 3001TIP3   OH230493   0.721   3.690   1.192 -0.5074  0.6665 -0.1810
 3001TIP3    H130494   0.674   3.761   1.237 -0.7039  1.4132 -1.5341
 3001TIP3    H230495   0.813   3.716   1.195 -0.1426 -0.5871  2.0841
 3002TIP3   OH230496   5.270   4.560   2.662 -0.3501 -0.3541 -0.2483
 3002TIP3    H130497   5.288   4.467   2.678  0.8865 -0.0740  0.0577
 3002TIP3    H230498   5.210   4.585   2.732 -0.4807 -0.8507 -0.1763
 3003TIP3   OH230499   5.829   3.622  11.683 -0.4044 -0.0865  0.2695
 3003TIP3    H130500   5.753   3.652  11.633  0.0488 -2.1995 -1.8943
 3003TIP3    H230501   5.899   3.617  11.619  0.4217 -2.2561  1.2321
 3004TIP3   OH230502   6.428   3.722  13.341  0.5082  0.1473  0.6148
 3004TIP3    H130503   6.429   3.686  13.430  0.9362  0.7811  0.8692
 3004TIP3    H230504   6.498   3.675  13.296 -1.1593 -1.8639 -0.0949
 3005TIP3   OH230505   5.369   2.102  16.101 -0.2118  0.1110  0.1333
 3005TIP3    H130506   5.425   2.024  16.105  0.8280  0.7718 -0.7404
 3005TIP3    H230507   5.299   2.079  16.040 -1.1515 -0.8517  1.5099
 3006TIP3   OH230508   0.541   6.319   4.337  0.7592 -0.2046  0.3411
 3006TIP3    H130509   0.465   6.373   4.313 -0.3120 -1.6735  0.3159
 3006TIP3    H230510   0.509   6.260   4.404  2.1397 -0.2763  0.9718
 3007TIP3   OH230511   0.876   0.916  13.220 -0.3852  0.1740 -0.0011
 3007TIP3    H130512   0.861   0.822  13.210  0.9728 -0.0503 -0.0949
 3007TIP3    H230513   0.937   0.938  13.150 -1.0712  1.2320 -0.2742
 3008TIP3   OH230514   5.639   4.211   5.909  0.2097 -0.5175  0.5152
 3008TIP3    H130515   5.578   4.199   5.837  0.2223  0.7546  0.2596
 3008TIP3    H230516   5.664   4.304   5.904 -1.4353  0.2303  3.4003
 3009TIP3   OH230517   5.645   3.154  12.041  0.3748  0.3995  0.4048
 3009TIP3    H130518   5.719   3.167  11.982  0.6034  2.1271  1.0168
 3009TIP3    H230519   5.684   3.145  12.128 -0.0758  0.1842  0.5884
 3010TIP3   OH230520   1.691   4.391   4.153  0.2605  0.1238  0.5804
 3010TIP3    H130521   1.613   4.412   4.101  0.7970  2.9512  0.7353
 3010TIP3    H230522   1.662   4.324   4.215 -2.3210  1.6382  1.1618
 3011TIP3   OH230523   1.434   5.155   5.640 -0.2128  0.0380 -0.1000
 3011TIP3    H130524   1.384   5.185   5.564 -1.2669 -0.2984  0.4355
 3011TIP3    H230525   1.388   5.193   5.715  0.0795 -0.6311  0.4282
 3012TIP3   OH230526   4.337   6.539  12.121  0.1139  0.3828 -0.1716
 3012TIP3    H130527   4.372   6.559  12.034  1.3441 -2.3877 -0.4286
 3012TIP3    H230528   4.348   6.444  12.129 -1.2198  0.3810  2.4963
 3013TIP3   OH230529   1.929   6.445   6.473  0.5601  0.4109  0.3605
 3013TIP3    H130530   1.924   6.391   6.394 -1.8581  0.9504  0.0876
 3013TIP3    H230531   1.926   6.381   6.545  2.1298 -0.0408  0.0599
 3014TIP3   OH230532   4.152   2.002  11.135 -0.1625  0.0317 -0.3469
 3014TIP3    H130533   4.111   2.050  11.063  0.7353 -0.6046 -1.3187
 3014TIP3    H230534   4.081   1.985  11.196 -0.5206  2.5949  0.0682
 3015TIP3   OH230535   4.708   5.689  12.959 -0.5688  0.1831 -0.3413
 3015TIP3    H130536   4.688   5.625  13.029  0.4579  0.2411  0.0183
 3015TIP3    H230537   4.623   5.729  12.939 -1.3097 -1.4873 -0.7811
 3016TIP3   OH230538   0.028   1.516  11.292 -0.1187  0.0770 -0.6470
 3016TIP3    H130539   0.005   1.528  11.200  1.0569 -0.3528 -1.0199
 3016TIP3    H230540  -0.042   1.461  11.328  1.1420 -2.7180 -2.1800
 3017TIP3   OH230541   3.107   2.239   2.796 -0.3576  0.2692 -0.3213
 3017TIP3    H130542   3.197   2.209   2.786 -0.6059 -0.1392 -1.6131
 3017TIP3    H230543   3.067   2.224   2.710 -1.9593 -0.5943  0.5152
 3018TIP3   OH230544   3.353   0.462  14.628  0.5622 -0.1372  0.6150
 3018TIP3    H130545   3.268   0.430  14.657  0.8830 -0.1984  1.5254
 3018TIP3    H230546   3.354   0.554  14.652  0.4376  0.0682 -0.1436
 3019TIP3   OH230547   3.457   4.752  11.433 -0.3729  0.3970  0.0418
 3019TIP3    H130548   3.535   4.733  11.381 -0.1909 -1.1571  0.8324
 3019TIP3    H230549   3.460   4.847  11.447  1.7725  0.2779  0.6869
 3020TIP3   OH230550   6.412   2.337  12.923  0.2891  0.1151 -0.6858
 3020TIP3    H130551   6.477   2.267  12.935 -0.8621 -0.9722 -0.6467
 3020TIP3    H230552   6.459   2.405  12.875  1.2304 -0.9977 -1.3858
 3021TIP3   OH230553   5.060   0.545  17.156  1.0360 -0.4290 -0.2476
 3021TIP3    H130554   5.010   0.523  17.077 -2.5107 -0.4857  1.8157
 3021TIP3    H230555   5.054   0.467  17.211 -0.4058  1.0312  1.8074
 3022TIP3   OH230556   3.049   1.216  14.833 -0.0778 -0.1620  0.5435
 3022TIP3    H130557   3.108   1.200  14.760 -2.5906 -1.7655 -1.2915
 3022TIP3    H230558   2.998   1.293  14.806 -1.3240 -1.0269  0.3261
 3023TIP3   OH230559   3.056   4.522  16.656  0.2309  0.8196 -0.5010
 3023TIP3    H130560   3.073   4.578  16.581  2.6677 -1.0851 -1.4995
 3023TIP3    H230561   3.143   4.501  16.691 -0.7572  0.4779  1.9942
 3024TIP3   OH230562   4.787   1.136  14.362  0.1071  0.3563  0.4776
 3024TIP3    H130563   4.814   1.051  14.327  2.0247  0.9808  0.3188
 3024TIP3    H230564   4.834   1.144  14.445 -3.0329 -0.3372  2.5148
 3025TIP3   OH230565   6.574   1.782  12.780  0.3275 -0.1167  0.0304
 3025TIP3    H130566   6.579   1.753  12.689 -0.3391 -0.1915  0.0141
 3025TIP3    H230567   6.640   1.729  12.825  1.0742  0.3254 -0.5046
 3026TIP3   OH230568   5.705   1.498  17.306 -0.1502 -0.3509 -0.0417
 3026TIP3    H130569   5.775   1.496  17.241 -0.7520  0.3823 -0.7361
 3026TIP3    H230570   5.751   1.501  17.390  0.6749  0.7753 -0.5029
 3027TIP3   OH230571   1.384   5.264  11.793 -0.3128 -0.3328  0.0189
 3027TIP3    H130572   1.474   5.285  11.818 -0.7322  0.8481  0.6205
 3027TIP3    H230573   1.392   5.214  11.712  0.9654 -1.7632  0.9670
 3028TIP3   OH230574   5.725   4.567   4.106 -0.2540 -0.3446  0.5051
 3028TIP3    H130575   5.821   4.569   4.102 -0.1756 -1.9559  1.1455
 3028TIP3    H230576   5.699   4.654   4.075  1.3288 -0.5647 -1.6521
 3029TIP3   OH230577   5.449   1.808   3.591 -0.3396  0.7826 -0.2936
 3029TIP3    H130578   5.457   1.771   3.679  0.0817  0.4218 -0.4807
 3029TIP3    H230579   5.508   1.884   3.591 -0.5781  0.9700 -0.1696
 3030TIP3   OH230580   5.246   6.169  17.500  0.0506 -0.1533 -0.2980
 3030TIP3    H130581   5.333   6.209  17.508 -0.0389 -0.2835  1.9730
 3030TIP3    H230582   5.236   6.152  17.407  1.9445  1.0087 -0.7694
 3031TIP3   OH230583   4.849   3.406   2.948 -0.4127 -0.0183  0.5618
 3031TIP3    H130584   4.848   3.362   3.033  1.3489 -2.8277 -0.7104
 3031TIP3    H230585   4.925   3.464   2.951 -0.1817 -0.3323  0.8051
 3032TIP3   OH230586   2.281   6.644  14.795  0.4547 -0.7746  0.3365
 3032TIP3    H130587   2.266   6.582  14.866  1.8526 -0.6617  0.7643
 3032TIP3    H230588   2.356   6.696  14.824 -0.1023  0.5027 -0.4246
 3033TIP3   OH230589   3.325   5.177  17.165 -0.1570  0.1824 -0.0831
 3033TIP3    H130590   3.269   5.128  17.225  0.3997  0.6114  0.8074
 3033TIP3    H230591   3.406   5.126  17.160 -0.0349  0.3796 -0.1262
 3034TIP3   OH230592   5.795   1.237   1.064 -0.5467  0.2050  0.2271
 3034TIP3    H130593   5.849   1.161   1.086 -0.8011 -0.3330 -0.9121
 3034TIP3    H230594   5.805   1.296   1.138  0.8592 -0.2862  0.4553
 3035TIP3   OH230595   5.328   2.343   0.424  0.2817  0.5280  0.2088
 3035TIP3    H130596   5.370   2.257   0.416  0.6417  0.6641  0.5945
 3035TIP3    H230597   5.290   2.359   0.338 -0.2241 -0.2438  0.2805
 3036TIP3   OH230598   0.906   4.024   3.888  0.6871 -0.2673 -0.1375
 3036TIP3    H130599   0.870   3.974   3.816 -2.1881  1.9209 -0.3845
 3036TIP3    H230600   0.897   4.116   3.862 -1.4117  0.7042  3.2449
 3037TIP3   OH230601   4.608   6.661  12.897  0.1964  0.0964 -0.0154
 3037TIP3    H130602   4.533   6.673  12.956 -1.3234 -1.4293 -1.5340
 3037TIP3    H230603   4.665   6.601  12.945 -0.5529 -0.3718  0.3164
 3038TIP3   OH230604   1.583   0.994   6.699 -0.2674 -0.3608 -0.3369
 3038TIP3    H130605   1.528   0.918   6.720 -0.5409  0.4850  2.4756
 3038TIP3    H230606   1.654   0.990   6.763 -0.3748  1.8070 -0.0016
 3039TIP3   OH230607   4.055   3.074   1.273 -0.7366  0.1947 -0.1991
 3039TIP3    H130608   4.059   3.057   1.367 -2.6576 -0.2026 -0.1617
 3039TIP3    H230609   4.097   3.159   1.263 -1.2884  0.6561  1.1411
 3040TIP3   OH230610   2.885   5.615  12.917 -0.1936 -0.0746  0.1029
 3040TIP3    H130611   2.938   5.694  12.932 -0.1743 -0.0391 -0.1481
 3040TIP3    H230612   2.798   5.649  12.898  0.3212  0.0263 -2.4553
 3041TIP3   OH230613   5.302   6.705  14.345  0.3639  0.0502 -0.3433
 3041TIP3    H130614   5.209   6.707  14.324  0.3066 -0.8730 -0.1906
 3041TIP3    H230615   5.310   6.645  14.419  0.9732  0.8200  0.2428
 3042TIP3   OH230616   0.113   6.185   2.166 -0.2316  0.0814 -0.5588
 3042TIP3    H130617   0.205   6.211   2.156 -0.0411 -0.2596  0.2283
 3042TIP3    H230618   0.111   6.134   2.247 -1.2535  0.7208 -0.1626
 3043TIP3   OH230619   3.807   4.393  16.575  0.2234 -0.1209  0.0316
 3043TIP3    H130620   3.885   4.350  16.610  0.5829  1.1741  0.8984
 3043TIP3    H230621   3.764   4.431  16.652 -0.1549  0.9262 -0.6852
 3044TIP3   OH230622   4.287   1.800  11.014 -0.3010 -0.9877 -0.2351
 3044TIP3    H130623   4.240   1.860  11.072  0.7982 -2.1619  2.0039
 3044TIP3    H230624   4.331   1.857  10.951  0.3673  0.5791  1.5508
 3045TIP3   OH230625   6.364   0.855  14.703  0.2223 -0.0873  0.2418
 3045TIP3    H130626   6.379   0.932  14.649  1.2094 -0.6302 -0.2776
 3045TIP3    H230627   6.290   0.810  14.660  0.4319 -0.0621 -0.1501
 3046TIP3   OH230628   0.371   4.443   3.169  0.0940 -0.2790  0.2870
 3046TIP3    H130629   0.321   4.365   3.145  0.5015 -0.2743 -0.6489
 3046TIP3    H230630   0.351   4.458   3.261 -2.5540  0.4069 -0.3225
 3047TIP3   OH230631   1.439   3.868  14.992 -0.0420  0.0743  0.2042
 3047TIP3    H130632   1.370   3.808  15.020  0.9362 -0.8949  0.6059
 3047TIP3    H230633   1.407   3.955  15.017 -2.3905  0.0106 -2.1934
 3048TIP3   OH230634   5.620   6.717  15.629  0.2954 -0.4611  0.3788
 3048TIP3    H130635   5.621   6.732  15.535 -1.4694  2.0449  0.6657
 3048TIP3    H230636   5.553   6.777  15.663  0.6938 -1.4324  3.2159
 3049TIP3   OH230637   3.753   5.396   2.070 -0.0410  0.9346 -0.3383
 3049TIP3    H130638   3.794   5.312   2.089 -0.7174  1.1499  2.4500
 3049TIP3    H230639   3.799   5.428   1.992  1.2837 -1.2821 -0.5423
 3050TIP3   OH230640   6.094   4.705   7.106 -0.2739 -0.1303 -0.7221
 3050TIP3    H130641   6.003   4.703   7.136  0.3895 -0.3191  1.4752
 3050TIP3    H230642   6.088   4.719   7.012 -2.5728 -0.2067 -0.6461
 3051TIP3   OH230643   5.283   3.029   0.298  0.2270  0.4538  0.4016
 3051TIP3    H130644   5.313   3.070   0.379  2.4149 -0.0953 -0.0681
 3051TIP3    H230645   5.234   3.098   0.253 -0.8952  0.8202  2.0645
 3052TIP3   OH230646   2.101   4.935  14.933  0.4844  0.5870 -0.5158
 3052TIP3    H130647   2.169   4.986  14.977  1.3224 -0.2432 -0.8058
 3052TIP3    H230648   2.134   4.921  14.844  0.6077 -1.0021 -0.2564
 3053TIP3   OH230649   2.359   0.456  14.070 -0.6497  0.2084 -0.2864
 3053TIP3    H130650   2.440   0.433  14.115 -0.4567  0.2474 -0.6126
 3053TIP3    H230651   2.376   0.437  13.978 -1.4924 -1.0961 -0.1895
 3054TIP3   OH230652   5.347   4.099  15.692 -0.7268  0.0693 -0.3483
 3054TIP3    H130653   5.392   4.183  15.683 -1.5284  0.7775  1.6448
 3054TIP3    H230654   5.327   4.093  15.785 -1.4575 -1.9466 -0.5957
 3055TIP3   OH230655   5.298   4.076   2.234 -0.6256 -0.1093  1.0075
 3055TIP3    H130656   5.219   4.128   2.245 -2.6224 -1.6353 -3.7462
 3055TIP3    H230657   5.348   4.123   2.167  0.7122 -1.0432  1.3083
 3056TIP3   OH230658   2.463   1.222  15.887 -0.0580  0.2401 -0.1274
 3056TIP3    H130659   2.539   1.279  15.873  0.1002 -0.4174 -2.1161
 3056TIP3    H230660   2.491   1.162  15.956  1.1384  0.1796 -0.6349
 3057TIP3   OH230661   5.650   5.941   0.205 -0.0948  0.1925  0.7066
 3057TIP3    H130662   5.577   5.969   0.261 -0.0398  1.0349  0.3845
 3057TIP3    H230663   5.715   5.907   0.266 -1.4724 -2.3451  0.8788
 3058TIP3   OH230664   5.164   4.626   3.592  0.2925 -0.1579 -0.0267
 3058TIP3    H130665   5.193   4.563   3.527  2.1255  0.7595 -0.1655
 3058TIP3    H230666   5.141   4.704   3.542  2.3957  0.8054  0.3749
 3059TIP3   OH230667   5.675   2.295   4.675  0.0443 -0.4928  0.3083
 3059TIP3    H130668   5.703   2.336   4.757 -0.4111 -0.4162  0.4267
 3059TIP3    H230669   5.757   2.276   4.629  0.2417  2.4818 -0.7316
 3060TIP3   OH230670   2.971   2.117  14.658  0.3257  0.0180 -0.0276
 3060TIP3    H130671   2.989   2.202  14.700  0.2449 -0.4485  0.9793
 3060TIP3    H230672   2.919   2.069  14.723  1.2653 -1.2013 -0.1462
 3061TIP3   OH230673   2.659   0.219  15.608  0.5799  0.4205  0.5084
 3061TIP3    H130674   2.724   0.169  15.658  1.2420  0.1685 -0.5545
 3061TIP3    H230675   2.646   0.168  15.528 -0.8264  0.5548  0.6269
 3062TIP3   OH230676   3.367   3.458   4.585  0.1031  0.6203  0.0034
 3062TIP3    H130677   3.388   3.462   4.492 -1.7297  1.1417 -0.4265
 3062TIP3    H230678   3.358   3.365   4.604  0.3184  0.5215 -0.3735
 3063TIP3   OH230679   4.273   1.807   3.378  0.5683  0.7464  0.2201
 3063TIP3    H130680   4.282   1.786   3.285 -1.1067  0.0381  0.1870
 3063TIP3    H230681   4.182   1.837   3.387  0.7093  0.7905  1.6395
 3064TIP3   OH230682   5.771   5.213   6.037 -0.1749  0.0728  0.0475
 3064TIP3    H130683   5.817   5.286   5.997  0.5437 -1.7047 -2.6181
 3064TIP3    H230684   5.823   5.190   6.114  1.6841  0.0654 -1.1599
 3065TIP3   OH230685   2.867   5.849  11.110  0.4716  0.7224 -0.0956
 3065TIP3    H130686   2.907   5.934  11.090  0.7634  0.8176  0.8737
 3065TIP3    H230687   2.834   5.818  11.025 -0.7193  2.3376 -0.2648
 3066TIP3   OH230688   1.599   6.704  12.420  0.2013  0.0461  0.2016
 3066TIP3    H130689   1.595   6.732  12.328  1.2005 -1.0013 -0.1878
 3066TIP3    H230690   1.572   6.612  12.417 -3.5474  0.9153  1.5076
 3067TIP3   OH230691   1.945   5.274   4.270  0.4073 -0.2029 -0.3997
 3067TIP3    H130692   1.911   5.279   4.360  1.5849 -0.9795  0.1252
 3067TIP3    H230693   1.873   5.239   4.219  0.2219 -1.2756  0.5601
 3068TIP3   OH230694   1.747   6.475   4.965  0.1063 -0.4936 -0.0567
 3068TIP3    H130695   1.809   6.547   4.972 -0.6556  0.3317 -1.2470
 3068TIP3    H230696   1.670   6.505   5.014 -0.8234  0.2554 -1.8778
 3069TIP3   OH230697   3.962   2.586  12.920 -0.1428 -0.1336  0.6443
 3069TIP3    H130698   3.991   2.542  13.000 -0.0668  0.2758  0.8491
 3069TIP3    H230699   3.923   2.517  12.867  1.0489 -0.6668  0.4326
 3070TIP3   OH230700   1.691   3.356  11.605  0.3058  0.6708  0.2512
 3070TIP3    H130701   1.716   3.307  11.527 -0.8028 -0.9969  0.8998
 3070TIP3    H230702   1.700   3.448  11.580  0.5705  0.1626 -1.6255
 3071TIP3   OH230703   4.612   3.424  11.623 -0.2531 -0.0583  0.4567
 3071TIP3    H130704   4.621   3.515  11.593  0.3750 -0.1898  0.2267
 3071TIP3    H230705   4.518   3.413  11.636 -0.3065  0.7404  0.8566
 3072TIP3   OH230706   0.440   3.356  15.347 -0.0070 -0.2715  0.9208
 3072TIP3    H130707   0.352   3.357  15.383 -0.4965  0.2859 -0.2290
 3072TIP3    H230708   0.472   3.267  15.364 -1.1922 -0.8180  0.4444
 3073TIP3   OH230709   6.494   1.688  17.386  0.1441 -0.8752  0.2102
 3073TIP3    H130710   6.560   1.688  17.317  0.0924 -1.9280  0.1342
 3073TIP3    H230711   6.540   1.720  17.463 -0.1324  1.6000 -0.5662
 3074TIP3   OH230712   6.608   0.209  14.759  1.0987  0.2655 -0.0269
 3074TIP3    H130713   6.690   0.167  14.785 -0.4169 -2.1313  1.3067
 3074TIP3    H230714   6.559   0.217  14.841  0.1987  2.2029 -0.7058
 3075TIP3   OH230715   2.657   2.127  16.523  0.1418  0.1419 -0.5213
 3075TIP3    H130716   2.716   2.058  16.556 -2.2698 -2.2822 -0.9436
 3075TIP3    H230717   2.617   2.164  16.602  1.5265  1.2112 -0.2847
 3076TIP3   OH230718   1.510   2.444   1.205 -0.3030  1.1261 -0.8510
 3076TIP3    H130719   1.451   2.432   1.130 -0.0945 -0.6303 -0.7806
 3076TIP3    H230720   1.598   2.429   1.169 -0.1105  1.2843 -0.4558
 3077TIP3   OH230721   2.247   0.740  13.284  0.3502 -0.3152  0.0582
 3077TIP3    H130722   2.214   0.653  13.305  0.1181 -0.4191 -0.6908
 3077TIP3    H230723   2.189   0.800  13.332 -0.1345 -0.5440 -0.2254
 3078TIP3   OH230724   4.092   1.615  14.462 -0.3324 -0.2561 -0.3744
 3078TIP3    H130725   4.174   1.567  14.473 -0.6935 -0.7037  0.3776
 3078TIP3    H230726   4.081   1.620  14.367  1.4113  1.2738 -0.5739
 3079TIP3   OH230727   2.868   4.310  16.810  0.0553  0.3763 -0.8071
 3079TIP3    H130728   2.962   4.311  16.827  0.0389 -0.5051 -0.6065
 3079TIP3    H230729   2.861   4.320  16.715  0.3398  0.7523 -0.7865
 3080TIP3   OH230730   2.200   4.362   1.632 -0.3857 -0.5497  0.1421
 3080TIP3    H130731   2.111   4.374   1.598  0.0121 -0.1999 -0.7971
 3080TIP3    H230732   2.227   4.276   1.600 -0.1244 -0.3516 -0.1740
 3081TIP3   OH230733   5.958   0.859   0.096 -0.2163 -0.0533 -0.4126
 3081TIP3    H130734   6.040   0.837   0.140 -0.3423  0.9290  0.3508
 3081TIP3    H230735   5.984   0.915   0.023 -0.1305 -0.5276 -0.7493
 3082TIP3   OH230736   6.676   1.760  12.091  0.1494 -0.0130 -0.0389
 3082TIP3    H130737   6.610   1.699  12.124 -0.1708 -0.0435 -0.7281
 3082TIP3    H230738   6.759   1.711  12.096  0.6214  0.8553  3.2595
 3083TIP3   OH230739   4.655   1.727  14.318 -0.7075 -0.4420  0.1461
 3083TIP3    H130740   4.616   1.699  14.234  0.0361 -0.5864 -0.1550
 3083TIP3    H230741   4.590   1.702  14.383 -1.5680  0.2046 -0.4346
 3084TIP3   OH230742   5.057   1.820  13.320  0.3483  0.0974 -0.4814
 3084TIP3    H130743   5.000   1.862  13.384 -0.7602  1.5142 -2.2820
 3084TIP3    H230744   4.997   1.774  13.261  1.2305 -0.3034 -1.0921
 3085TIP3   OH230745   2.594   4.746   1.980  0.3805 -0.3062 -0.4592
 3085TIP3    H130746   2.663   4.812   1.981 -0.1843  0.3239  1.4917
 3085TIP3    H230747   2.542   4.767   1.903  2.6562 -1.2085 -2.3775
 3086TIP3   OH230748   3.690   0.601  14.011 -0.3101 -0.6151 -0.0007
 3086TIP3    H130749   3.636   0.653  14.071  1.0413  0.6749  0.1738
 3086TIP3    H230750   3.639   0.522  13.994 -1.1909 -0.5412  2.0164
 3087TIP3   OH230751   2.928   3.654  11.649  0.1834  0.0837 -0.4132
 3087TIP3    H130752   2.917   3.709  11.726 -1.6668 -1.5265  0.5502
 3087TIP3    H230753   2.845   3.660  11.603  1.0790  0.5957 -2.0516
 3088TIP3   OH230754   6.068   1.730  14.113 -1.0913  0.1023  0.1070
 3088TIP3    H130755   6.060   1.675  14.035 -0.3938 -0.7677  0.6296
 3088TIP3    H230756   6.162   1.733  14.131 -1.2875 -0.2218  1.2611
 3089TIP3   OH230757   6.343   1.986  15.173  0.2069 -0.2098 -0.0758
 3089TIP3    H130758   6.387   2.023  15.249  0.4446  1.5682 -1.0102
 3089TIP3    H230759   6.250   1.987  15.196  0.2761  0.3483  0.2011
 3090TIP3   OH230760   1.292   5.002   5.890  0.3379 -0.4759 -0.1623
 3090TIP3    H130761   1.252   5.018   5.805  1.2177 -3.3030 -1.1982
 3090TIP3    H230762   1.222   5.016   5.953 -0.1995  2.1961 -1.2203
 3091TIP3   OH230763   5.701   0.425   6.176  0.0708 -0.3304 -0.3869
 3091TIP3    H130764   5.650   0.502   6.149 -0.0606 -0.9328 -2.0188
 3091TIP3    H230765   5.637   0.353   6.174  0.9141 -1.1218 -2.5846
 3092TIP3   OH230766   2.381   5.590   2.432  0.1892 -0.1475  0.8135
 3092TIP3    H130767   2.394   5.513   2.486 -2.0092 -0.3336  1.1506
 3092TIP3    H230768   2.449   5.651   2.461  1.5794 -1.6859  0.9588
 3093TIP3   OH230769   0.405   4.902  12.276 -0.2750 -0.3309  0.3474
 3093TIP3    H130770   0.465   4.973  12.298  0.0212 -0.4975  0.0749
 3093TIP3    H230771   0.318   4.941  12.286 -0.1285 -0.1434  0.9179
 3094TIP3   OH230772   4.427   0.234  16.122 -0.1049 -0.4787  0.3372
 3094TIP3    H130773   4.354   0.194  16.169 -1.1922  3.0782  2.0612
 3094TIP3    H230774   4.385   0.288  16.055  1.1857 -0.8612 -0.8272
 3095TIP3   OH230775   4.074   3.378   0.028 -0.0026  0.7918 -0.3167
 3095TIP3    H130776   4.152   3.400  -0.023 -0.2620  0.6552 -0.7849
 3095TIP3    H230777   4.086   3.286   0.052 -0.2334  0.6314 -0.7956
 3096TIP3   OH230778   2.893   2.590   1.000 -0.0203 -0.9212  0.3043
 3096TIP3    H130779   2.808   2.561   1.033 -1.4272  1.2378 -1.1693
 3096TIP3    H230780   2.882   2.684   0.983  2.0538 -0.9577 -1.7633
 3097TIP3   OH230781   0.607   4.982  15.131 -0.1020  0.1818  0.1726
 3097TIP3    H130782   0.623   4.897  15.172  0.3549 -2.1089 -4.0790
 3097TIP3    H230783   0.686   5.032  15.148  1.6498 -2.0409 -0.7991
 3098TIP3   OH230784   5.059   0.886  15.170  0.3191  0.0240 -0.2086
 3098TIP3    H130785   5.001   0.845  15.107 -0.5384 -0.7128  1.0079
 3098TIP3    H230786   5.018   0.971  15.188 -0.3395 -0.4302  0.5311
 3099TIP3   OH230787   0.320   1.090  13.618  0.5397  0.1510  0.3738
 3099TIP3    H130788   0.409   1.125  13.631  0.6793  0.5241 -1.3627
 3099TIP3    H230789   0.333   1.008  13.572 -0.0384  0.5175 -0.4548
 3100TIP3   OH230790   6.181   5.295   3.991 -0.4258 -0.3868 -0.2981
 3100TIP3    H130791   6.195   5.219   4.049 -0.1428  1.6416  2.5258
 3100TIP3    H230792   6.204   5.263   3.904  1.1993 -3.1337  0.9827
 3101TIP3   OH230793   3.451   1.727   5.053 -0.2928  0.5442 -0.1359
 3101TIP3    H130794   3.442   1.719   4.958  0.0115  4.7272 -0.6974
 3101TIP3    H230795   3.420   1.643   5.087 -0.9408 -0.9254 -3.8625
 3102TIP3   OH230796   3.518   3.104   2.652  0.0580  0.0815 -0.7449
 3102TIP3    H130797   3.503   3.049   2.728  0.6326  1.9307  0.7870
 3102TIP3    H230798   3.613   3.112   2.646 -0.0064  2.5546  0.3961
 3103TIP3   OH230799   5.577   1.145  15.399  0.1675  0.1371  0.3821
 3103TIP3    H130800   5.638   1.147  15.473  0.1824  0.8432  0.3557
 3103TIP3    H230801   5.516   1.217  15.416 -0.8608 -0.7467  0.5663
 3104TIP3   OH230802   0.431   2.341   5.072 -0.0703  0.4222 -0.1866
 3104TIP3    H130803   0.523   2.366   5.074 -0.0872  0.6007 -1.1210
 3104TIP3    H230804   0.420   2.283   5.147  0.8010  0.4026 -0.0642
 3105TIP3   OH230805   6.606   5.953  14.178  0.0870  0.4284 -0.2626
 3105TIP3    H130806   6.639   5.951  14.088 -0.9550  0.0657 -0.6550
 3105TIP3    H230807   6.525   6.003  14.172  0.2875  0.8510  0.5735
 3106TIP3   OH230808   2.879   0.515   0.071  0.1114 -0.2853 -0.2741
 3106TIP3    H130809   2.855   0.531  -0.021 -0.2805  1.2758  0.0723
 3106TIP3    H230810   2.848   0.593   0.117  1.7194 -0.3281  0.9416
 3107TIP3   OH230811   0.104   5.411   2.655  0.6246  0.3485  0.2143
 3107TIP3    H130812   0.083   5.480   2.718  1.8750  0.7322  0.2481
 3107TIP3    H230813   0.112   5.332   2.709 -1.5778 -0.0236  0.0757
 3108TIP3   OH230814   5.741   2.443   2.447 -0.5808  0.6861  0.5978
 3108TIP3    H130815   5.744   2.485   2.533 -2.5364 -0.3797  1.2356
 3108TIP3    H230816   5.671   2.379   2.454 -0.4994  0.2781 -1.6790
 3109TIP3   OH230817   2.206   3.128   5.855 -0.2747  0.4984 -0.0256
 3109TIP3    H130818   2.188   3.217   5.825  1.8984  0.6263 -1.1722
 3109TIP3    H230819   2.132   3.106   5.910 -0.6516  3.2125  0.7064
 3110TIP3   OH230820   2.351   6.140  15.689  0.4046 -0.3744 -0.1098
 3110TIP3    H130821   2.346   6.082  15.612  0.5894 -0.2923 -0.1853
 3110TIP3    H230822   2.445   6.146  15.708  0.4645  0.6004 -0.6434
 3111TIP3   OH230823   4.766   4.306   0.793  0.1504 -0.3917 -0.0963
 3111TIP3    H130824   4.745   4.300   0.699 -1.6253  0.1039  0.2340
 3111TIP3    H230825   4.756   4.216   0.825  3.5175 -1.1660 -0.8376
 3112TIP3   OH230826   4.146   4.504   1.718  0.0222 -0.5816  0.2771
 3112TIP3    H130827   4.125   4.416   1.687 -1.1077 -0.2454  0.0473
 3112TIP3    H230828   4.077   4.559   1.682 -0.7307 -0.0004  2.4514
 3113TIP3   OH230829   6.098   1.407   3.130 -0.1354  0.2369 -0.2115
 3113TIP3    H130830   6.051   1.329   3.102  2.3944 -1.3957 -0.1795
 3113TIP3    H230831   6.152   1.378   3.204  0.6882  2.0873 -0.0100
 3114TIP3   OH230832   2.491   5.603   3.573 -0.0434 -0.0004  0.5345
 3114TIP3    H130833   2.529   5.595   3.485 -1.2646  2.0308 -0.2519
 3114TIP3    H230834   2.479   5.697   3.585 -2.7175 -0.3864  1.6233
 3115TIP3   OH230835   1.610   3.125  17.019  0.2405  0.2317  0.3886
 3115TIP3    H130836   1.546   3.149  16.952  1.2438 -0.4785 -0.8644
 3115TIP3    H230837   1.695   3.135  16.977  0.8301 -3.3538  0.3912
 3116TIP3   OH230838   0.453   3.011   0.878 -0.2696  0.2188  0.2740
 3116TIP3    H130839   0.526   2.991   0.936  1.5487  0.3782 -1.8393
 3116TIP3    H230840   0.419   2.925   0.851  1.0271  0.0559 -0.9472
 3117TIP3   OH230841   0.148   5.279  11.228  0.0719  0.9355  0.2646
 3117TIP3    H130842   0.093   5.358  11.234 -1.2622  0.1537 -1.0299
 3117TIP3    H230843   0.090   5.212  11.191  1.9731  0.1689 -1.5444
 3118TIP3   OH230844   0.301   5.005  11.213  0.4087 -0.3571 -0.0043
 3118TIP3    H130845   0.361   5.025  11.141 -0.1215  1.9184  0.0967
 3118TIP3    H230846   0.216   5.034  11.181  0.4338  2.4527  2.0927
 3119TIP3   OH230847   0.250   2.644  14.444  0.1553  0.7742 -0.1885
 3119TIP3    H130848   0.237   2.657  14.537  1.9629  0.0946  0.1953
 3119TIP3    H230849   0.333   2.687  14.425 -0.8700  2.1641 -1.8042
 3120TIP3   OH230850   3.739   1.778  13.722 -0.4881  0.1755 -0.2016
 3120TIP3    H130851   3.718   1.807  13.633 -0.4182 -2.0525 -1.0185
 3120TIP3    H230852   3.783   1.853  13.762 -1.5849  1.6554 -1.6250
 3121TIP3   OH230853   4.388   3.255   1.227  0.2568 -0.2022  0.1664
 3121TIP3    H130854   4.416   3.260   1.319 -0.5615  0.8038  0.3805
 3121TIP3    H230855   4.318   3.320   1.220 -0.5451 -1.1489 -0.8787
 3122TIP3   OH230856   0.899   3.389  16.027  0.2390 -0.1652  0.1116
 3122TIP3    H130857   0.814   3.432  16.029  0.6173  0.6411 -0.7535
 3122TIP3    H230858   0.961   3.456  16.056  0.6358 -0.6002  0.2784
 3123TIP3   OH230859   5.280   3.792   1.271  0.4360 -0.2276 -0.0715
 3123TIP3    H130860   5.202   3.760   1.224  0.4080 -0.2631 -0.0017
 3123TIP3    H230861   5.343   3.721   1.262  1.0985  0.5122 -1.6457
 3124TIP3   OH230862   6.736   6.241  13.660 -0.2224  0.1421 -0.4114
 3124TIP3    H130863   6.709   6.329  13.635 -0.3271 -0.3904 -2.3717
 3124TIP3    H230864   6.695   6.226  13.745 -0.1730  1.9786 -0.0367
 3125TIP3   OH230865   0.290   2.530  17.461  0.0813  0.6450  0.2543
 3125TIP3    H130866   0.342   2.588  17.517 -0.4581  0.7737  0.6273
 3125TIP3    H230867   0.328   2.540  17.374  2.0702 -0.8710  0.8741
 3126TIP3   OH230868   3.820   6.310  15.987 -0.0755  0.1473  0.2848
 3126TIP3    H130869   3.742   6.340  15.940 -0.5971  0.7326  1.4707
 3126TIP3    H230870   3.842   6.383  16.045  2.0877  0.4923 -0.8431
 3127TIP3   OH230871   1.348   5.120   3.367  0.5007  0.0675  0.2234
 3127TIP3    H130872   1.262   5.078   3.375  0.4283  0.2075  0.1837
 3127TIP3    H230873   1.398   5.086   3.441 -0.1819  1.3741  1.3507
 3128TIP3   OH230874   3.267   1.138  16.966  0.0243 -0.0966  0.0864
 3128TIP3    H130875   3.200   1.162  16.902  0.3192  1.1924  0.2298
 3128TIP3    H230876   3.276   1.216  17.021  2.1529  0.0101 -0.3600
 3129TIP3   OH230877   4.582   1.423   5.398  0.0574 -0.2484 -0.6868
 3129TIP3    H130878   4.512   1.400   5.337 -0.1931 -1.1332 -0.0876
 3129TIP3    H230879   4.661   1.424   5.345 -0.5336  2.1553 -1.6900
 3130TIP3   OH230880   3.167   6.656   4.150 -0.0269 -0.2258 -0.6065
 3130TIP3    H130881   3.133   6.740   4.119  0.7971  0.8061  1.1346
 3130TIP3    H230882   3.145   6.654   4.244  2.2623 -0.7258 -0.0216
 3131TIP3   OH230883   1.231   5.482   5.166  0.3063 -0.4190  0.2524
 3131TIP3    H130884   1.289   5.442   5.101  0.6692 -2.6405  1.8312
 3131TIP3    H230885   1.153   5.428   5.165 -1.8514  2.4359 -1.7201
 3132TIP3   OH230886   6.558   3.093   4.391 -0.5034 -0.0412 -0.2448
 3132TIP3    H130887   6.556   3.002   4.421  0.0144 -0.3399 -1.1054
 3132TIP3    H230888   6.551   3.088   4.296 -0.4600  0.8244 -0.3061
 3133TIP3   OH230889   6.460   3.315   3.765  0.1487  0.1604 -0.2946
 3133TIP3    H130890   6.514   3.394   3.755  1.4963 -0.6211  0.5376
 3133TIP3    H230891   6.463   3.296   3.859  1.2722 -1.8193 -0.6719
 3134TIP3   OH230892   4.074   3.639  11.126  0.0925  0.4179  0.7617
 3134TIP3    H130893   4.090   3.546  11.113 -1.4367  0.0252  1.4707
 3134TIP3    H230894   4.161   3.680  11.123  0.6226 -0.6963 -1.9084
 3135TIP3   OH230895   2.107   4.432  15.042 -0.2975  0.3622 -0.2546
 3135TIP3    H130896   2.163   4.404  14.969 -1.1880 -0.2167 -0.7311
 3135TIP3    H230897   2.140   4.519  15.064  0.8447  0.0044 -0.4614
 3136TIP3   OH230898   1.675   1.529   5.235 -0.1154 -0.3674 -0.1765
 3136TIP3    H130899   1.625   1.589   5.181  1.4306  1.9905  0.8356
 3136TIP3    H230900   1.764   1.531   5.198  1.1207  1.7093  2.5367
 3137TIP3   OH230901   5.113   1.410  12.323  0.9650 -0.1682 -0.0535
 3137TIP3    H130902   5.161   1.467  12.263  0.4324  2.9452  2.2577
 3137TIP3    H230903   5.141   1.437  12.410 -1.8690 -1.1139  1.2692
 3138TIP3   OH230904   6.590   4.880  13.169  0.1504  0.1272 -0.8451
 3138TIP3    H130905   6.614   4.801  13.121  1.2091  1.2278 -2.1841
 3138TIP3    H230906   6.670   4.933  13.170 -0.1463  0.6417  1.1938
 3139TIP3   OH230907   3.308   5.613  14.008  0.4947 -0.2848  0.0293
 3139TIP3    H130908   3.334   5.686  14.064 -0.0824 -0.3235  0.3547
 3139TIP3    H230909   3.229   5.644  13.964 -0.8939 -1.3685  1.6026
 3140TIP3   OH230910   0.451   4.036  10.969  0.3024 -0.1212 -0.4769
 3140TIP3    H130911   0.477   4.096  10.900 -0.3269  0.5653 -0.1266
 3140TIP3    H230912   0.355   4.045  10.974  0.5409  2.1689  2.5470
 3141TIP3   OH230913   3.910   5.628  11.655  0.0127  0.5071  0.1224
 3141TIP3    H130914   3.911   5.611  11.749  0.3014  0.5974  0.1339
 3141TIP3    H230915   4.002   5.639  11.631  0.2141 -2.0547 -0.6247
 3142TIP3   OH230916   1.085   5.753  14.567  0.7179 -0.4182 -0.3227
 3142TIP3    H130917   1.138   5.819  14.610  0.4646 -0.0946 -0.5043
 3142TIP3    H230918   1.043   5.704  14.638  0.0798  0.2930 -0.1993
 3143TIP3   OH230919   6.110   1.546  12.037 -0.0489  0.2341 -0.0401
 3143TIP3    H130920   6.199   1.533  12.007  0.1236  0.5161  0.3306
 3143TIP3    H230921   6.055   1.500  11.974  0.3902 -0.3420 -0.0035
 3144TIP3   OH230922   2.256   6.363   5.432  0.8499  0.5869  0.5410
 3144TIP3    H130923   2.213   6.288   5.472  0.2371 -0.2813 -1.6146
 3144TIP3    H230924   2.269   6.338   5.341 -0.0171  3.3549 -0.4467
 3145TIP3   OH230925   5.114   2.152  12.311 -0.5879  0.4026 -0.4152
 3145TIP3    H130926   5.199   2.124  12.345 -1.1770 -0.6671  0.2165
 3145TIP3    H230927   5.096   2.092  12.238 -0.8448  0.5568 -0.4802
 3146TIP3   OH230928   4.572   2.350   2.742  0.0137  0.6472  0.1269
 3146TIP3    H130929   4.641   2.391   2.795 -0.5582  0.3253  1.1420
 3146TIP3    H230930   4.542   2.276   2.795 -2.0710  1.5922  0.3729
 3147TIP3   OH230931   3.551   5.879   3.632  0.2282 -1.1589  0.2507
 3147TIP3    H130932   3.457   5.873   3.645 -0.0543 -3.4143 -1.8855
 3147TIP3    H230933   3.589   5.837   3.709 -0.3528  1.1220  1.8690
 3148TIP3   OH230934   3.224   5.391   6.307  0.5609  0.0449  0.4890
 3148TIP3    H130935   3.280   5.384   6.385  1.3348  0.6532  0.0117
 3148TIP3    H230936   3.183   5.477   6.314  0.4267 -0.0080  0.3584
 3149TIP3   OH230937   4.830   0.257  13.326  0.2430  0.3878 -0.3568
 3149TIP3    H130938   4.814   0.172  13.367  0.9345  1.6121  2.7744
 3149TIP3    H230939   4.775   0.317  13.376  1.9987  2.1797 -0.4707
 3150TIP3   OH230940   5.646   1.060  16.336  0.0135 -0.1288 -0.1424
 3150TIP3    H130941   5.711   1.073  16.267  0.2646 -0.4267  0.0342
 3150TIP3    H230942   5.631   1.147  16.372  0.3542 -0.0672 -0.1465
 3151TIP3   OH230943   4.022   5.329  17.612  0.5145  0.0213 -0.0815
 3151TIP3    H130944   3.964   5.256  17.632  0.8141  0.0600  1.0112
 3151TIP3    H230945   4.006   5.349  17.519 -0.7487 -0.3719  0.0368
 3152TIP3   OH230946   6.423   5.895  15.113  0.4691 -0.0812 -0.1004
 3152TIP3    H130947   6.480   5.972  15.108  1.7776 -0.8410  1.7252
 3152TIP3    H230948   6.426   5.857  15.025 -0.3805  2.0330 -1.1055
 3153TIP3   OH230949   2.581   6.325  16.889 -0.0593  0.2260 -0.8357
 3153TIP3    H130950   2.494   6.347  16.923  0.9537  2.3305  0.6481
 3153TIP3    H230951   2.626   6.284  16.964 -0.4834 -3.2958 -2.3144
 3154TIP3   OH230952   5.885   6.263   4.912  0.1484  0.1678  0.2660
 3154TIP3    H130953   5.839   6.270   4.995 -1.3949 -0.7098 -0.4743
 3154TIP3    H230954   5.931   6.347   4.902 -1.9616  1.4310  0.6572
 3155TIP3   OH230955   0.445   4.519  14.359  0.0498 -0.6882  0.5640
 3155TIP3    H130956   0.530   4.530  14.316 -0.2388  0.3874  0.2411
 3155TIP3    H230957   0.399   4.601  14.342 -1.1554 -1.3605  0.5285
 3156TIP3   OH230958   1.066   0.363  15.837  0.3985 -0.2379  0.8563
 3156TIP3    H130959   1.065   0.425  15.909  1.4831 -0.5226  1.1361
 3156TIP3    H230960   0.974   0.342  15.821  0.1487 -0.1274  2.1107
 3157TIP3   OH230961   6.655   4.156   2.475 -0.1200  0.0498  0.7563
 3157TIP3    H130962   6.738   4.116   2.500  0.2527  0.1924 -0.1804
 3157TIP3    H230963   6.636   4.219   2.544  1.0557  0.7202  0.4910
 3158TIP3   OH230964   2.288   5.359  16.709  0.6343  0.1027 -0.1232
 3158TIP3    H130965   2.343   5.438  16.704 -0.5924  1.0358  0.6031
 3158TIP3    H230966   2.225   5.369  16.638  0.7705 -0.4677 -0.3275
 3159TIP3   OH230967   0.409   4.469   1.832  0.3895 -0.4941 -0.5655
 3159TIP3    H130968   0.401   4.488   1.739 -0.1243 -1.7634 -0.8030
 3159TIP3    H230969   0.441   4.379   1.836 -1.1758 -1.0557  0.4543
 3160TIP3   OH230970   2.483   3.835  17.086 -0.1379  0.3705 -0.7375
 3160TIP3    H130971   2.401   3.801  17.122  0.6802  0.3298  1.1932
 3160TIP3    H230972   2.456   3.892  17.014 -1.8029 -0.3198 -0.6949
 3161TIP3   OH230973   1.590   5.186  12.704  0.0706 -0.4343 -0.3574
 3161TIP3    H130974   1.642   5.257  12.741 -2.0537  0.8124  0.4244
 3161TIP3    H230975   1.545   5.148  12.780 -1.3642 -0.4168 -1.1839
 3162TIP3   OH230976   2.334   0.967  16.569  0.2704 -0.2064  0.0617
 3162TIP3    H130977   2.371   0.886  16.605  0.6616 -0.4413 -0.8634
 3162TIP3    H230978   2.384   0.984  16.490  0.2561  1.0057  0.2869
 3163TIP3   OH230979   4.217   0.429  11.669  0.3161  0.1222 -0.5064
 3163TIP3    H130980   4.248   0.377  11.594 -0.0230 -0.5547 -0.1914
 3163TIP3    H230981   4.128   0.455  11.645  0.5433  0.6936 -0.7300
 3164TIP3   OH230982   6.171   0.301  16.989  0.5317  0.1781 -0.8439
 3164TIP3    H130983   6.202   0.354  17.063 -0.8367 -0.1172 -0.0271
 3164TIP3    H230984   6.251   0.271  16.946  1.4600 -1.2148  1.6479
 3165TIP3   OH230985   4.044   2.230  16.278 -0.1725 -0.4876 -0.3198
 3165TIP3    H130986   3.999   2.247  16.195 -1.1023  0.2108  0.3049
 3165TIP3    H230987   4.083   2.143  16.267 -2.7863 -1.7648 -0.4638
 3166TIP3   OH230988   2.875   0.712   5.877  0.0283  0.0518 -0.4809
 3166TIP3    H130989   2.934   0.637   5.871 -1.6446 -1.2044 -2.5708
 3166TIP3    H230990   2.827   0.699   5.958  1.4152  0.2057  0.3981
 3167TIP3   OH230991   3.176   3.211  14.935  0.5618  0.0177 -0.0070
 3167TIP3    H130992   3.137   3.293  14.965  0.2405 -0.2697  0.3631
 3167TIP3    H230993   3.256   3.239  14.889 -0.5684  0.6854 -1.6610
 3168TIP3   OH230994   2.262   4.278   6.033  0.3123 -0.0704 -0.1905
 3168TIP3    H130995   2.292   4.257   6.122 -1.2067  0.6989  0.5480
 3168TIP3    H230996   2.180   4.229   6.023 -0.4814  1.2535 -0.4466
 3169TIP3   OH230997   6.544   4.149  15.227 -0.2732 -0.2091 -0.2979
 3169TIP3    H130998   6.471   4.206  15.205 -0.8956 -0.8633  0.0408
 3169TIP3    H230999   6.606   4.159  15.155 -0.0548  1.4110  0.0834
 3170TIP3   OH231000   1.581   0.297  12.104  0.1107 -0.3033  0.0043
 3170TIP3    H131001   1.643   0.363  12.073 -2.0176  1.4175 -0.8619
 3170TIP3    H231002   1.510   0.299  12.040 -2.0691 -0.2613  2.2807
 3171TIP3   OH231003   6.390   4.091  17.323  0.2678 -0.0969 -0.3448
 3171TIP3    H131004   6.304   4.131  17.310 -0.0478  0.1306  1.9451
 3171TIP3    H231005   6.373   3.997  17.330 -0.0595  0.0642  1.5535
 3172TIP3   OH231006   3.862   4.582   4.910  0.1624 -0.3381  0.0242
 3172TIP3    H131007   3.841   4.650   4.974 -0.2916 -0.5473  0.0982
 3172TIP3    H231008   3.938   4.617   4.863  0.8827 -0.4352  1.0645
 3173TIP3   OH231009   5.306   3.645   2.863  0.1257  0.1548  0.5493
 3173TIP3    H131010   5.305   3.550   2.875  2.3211 -0.5886 -3.4585
 3173TIP3    H231011   5.399   3.668   2.864 -0.1653  1.7176 -1.4346
 3174TIP3   OH231012   0.710   5.423   3.507 -0.3641 -0.7632 -0.4314
 3174TIP3    H131013   0.786   5.390   3.556 -0.3457  0.0883  0.1219
 3174TIP3    H231014   0.748   5.462   3.428 -0.2575 -0.7088 -0.3546
 3175TIP3   OH231015   1.421   3.833   5.093  0.0317  0.0843 -0.3015
 3175TIP3    H131016   1.416   3.738   5.101  0.4330  0.0588 -0.3275
 3175TIP3    H231017   1.508   3.850   5.056 -0.1020  0.4511 -0.4582
 3176TIP3   OH231018   0.908   4.006  14.373  0.3021 -0.4812  0.1882
 3176TIP3    H131019   0.972   4.077  14.380  0.7147 -0.7303 -0.7894
 3176TIP3    H231020   0.924   3.951  14.450  0.1803  0.3235  0.7912
 3177TIP3   OH231021   4.599   1.138   2.350  0.3169  0.3436 -0.1202
 3177TIP3    H131022   4.623   1.074   2.418  0.7728  0.5926 -0.0387
 3177TIP3    H231023   4.511   1.112   2.323  0.6820 -0.6251 -0.4404
 3178TIP3   OH231024   0.339   2.629  15.889  0.1509  0.4906  0.1415
 3178TIP3    H131025   0.327   2.624  15.795  2.1967  2.1727 -0.2858
 3178TIP3    H231026   0.434   2.619  15.902  0.1248  1.8797  1.8481
 3179TIP3   OH231027   5.062   0.703  13.776 -0.3495 -0.9204 -0.7360
 3179TIP3    H131028   4.990   0.697  13.840 -1.3545  1.2209 -1.5825
 3179TIP3    H231029   5.020   0.684  13.692  0.0777  0.2804 -1.2300
 3180TIP3   OH231030   1.196   3.455   3.241 -0.4251  0.0964 -0.4322
 3180TIP3    H131031   1.291   3.440   3.235 -0.4104  0.7514 -2.2381
 3180TIP3    H231032   1.187   3.519   3.311  0.3625 -0.6637  0.4088
 3181TIP3   OH231033   6.560   1.824   2.285 -0.3071  0.6949 -0.5832
 3181TIP3    H131034   6.504   1.885   2.238  0.4910  1.0768 -1.0504
 3181TIP3    H231035   6.583   1.869   2.366  2.2307  2.0878 -1.9532
 3182TIP3   OH231036   1.821   6.470  13.086 -0.4671  0.1709  0.3494
 3182TIP3    H131037   1.837   6.435  13.173 -1.1586 -1.0664 -0.0066
 3182TIP3    H231038   1.901   6.450  13.037 -1.3222 -2.1351 -0.2118
 3183TIP3   OH231039   2.408   2.716   0.002  0.3122 -0.0220 -0.2682
 3183TIP3    H131040   2.397   2.800   0.047  1.5308  0.7390 -1.3274
 3183TIP3    H231041   2.492   2.683   0.033 -0.0663 -0.7588 -0.0174
 3184TIP3   OH231042   0.681   6.646   0.260  0.1460 -0.1107  0.6018
 3184TIP3    H131043   0.667   6.572   0.320 -2.1267  1.0898  1.6875
 3184TIP3    H231044   0.626   6.625   0.185  0.8215 -0.2976  0.1542
 3185TIP3   OH231045   5.955   5.911  13.389  0.1724 -0.1477 -0.5313
 3185TIP3    H131046   5.909   5.960  13.320  2.1143  0.3635 -1.5536
 3185TIP3    H231047   6.037   5.959  13.401  1.1130 -1.8425  0.1471
 3186TIP3   OH231048   3.400   0.151  14.464  0.4126  0.5410  0.0064
 3186TIP3    H131049   3.353   0.181  14.542 -0.6763  0.2438 -0.5152
 3186TIP3    H231050   3.487   0.188  14.473  1.4271 -2.1093  3.0171
 3187TIP3   OH231051   5.014   1.124   4.858 -0.5848  0.1990  0.0554
 3187TIP3    H131052   5.076   1.052   4.844  0.7028  1.4710 -1.2275
 3187TIP3    H231053   4.938   1.101   4.804 -1.0605 -1.1320  1.2340
 3188TIP3   OH231054   3.399   0.540   3.396 -0.0816  0.8164 -0.2827
 3188TIP3    H131055   3.416   0.593   3.318  0.5558  1.5444  0.3321
 3188TIP3    H231056   3.402   0.603   3.468  0.8719 -0.0812  0.4822
 3189TIP3   OH231057   0.630   2.424  16.402 -0.2959  0.1658  0.8209
 3189TIP3    H131058   0.546   2.379  16.413  0.8637 -1.7806  2.4230
 3189TIP3    H231059   0.612   2.494  16.339 -3.3232  0.4227  1.8088
 3190TIP3   OH231060   0.084   3.878   2.213 -0.2851  0.6567  0.1102
 3190TIP3    H131061   0.066   3.834   2.130  0.3242 -0.7897  0.7252
 3190TIP3    H231062   0.002   3.923   2.234 -0.9116 -0.1266 -0.5782
 3191TIP3   OH231063   3.134   4.960   0.143 -0.7277  0.0180  0.0512
 3191TIP3    H131064   3.138   4.865   0.156  0.3775 -0.2561 -1.9169
 3191TIP3    H231065   3.124   4.971   0.049 -0.2358  1.8695  0.1805
 3192TIP3   OH231066   4.407   3.376   2.594 -0.4515 -1.3060  0.8282
 3192TIP3    H131067   4.347   3.315   2.637 -2.3761 -2.0767 -2.6612
 3192TIP3    H231068   4.473   3.320   2.552 -0.1962 -0.7500  0.4678
 3193TIP3   OH231069   0.714   5.126   1.765  0.1997  0.5585  0.7352
 3193TIP3    H131070   0.701   5.177   1.845 -1.1272 -0.3603  1.1443
 3193TIP3    H231071   0.809   5.120   1.755  0.5238  4.3375 -0.1524
 3194TIP3   OH231072   0.380   4.788  17.413 -0.2421  0.0253  0.2850
 3194TIP3    H131073   0.313   4.809  17.478 -0.6249 -0.5665  0.0924
 3194TIP3    H231074   0.348   4.828  17.332  0.7560  1.6869  0.6626
 3195TIP3   OH231075   3.213   3.136  14.143  0.2792  0.2060 -0.4060
 3195TIP3    H131076   3.129   3.099  14.114  0.3299 -0.8021  0.6493
 3195TIP3    H231077   3.261   3.060  14.177  1.8392  0.6813 -1.4630
 3196TIP3   OH231078   0.992   0.630   4.234 -0.1508 -0.4079  0.2581
 3196TIP3    H131079   0.986   0.625   4.139  0.1215 -0.9208  0.2659
 3196TIP3    H231080   1.086   0.628   4.252 -0.1567  0.6076  0.4951
 3197TIP3   OH231081   6.712   1.596   3.849 -0.6421 -0.6784  0.5492
 3197TIP3    H131082   6.689   1.686   3.875  0.9546 -0.1754  0.3067
 3197TIP3    H231083   6.777   1.608   3.780  0.8701 -2.0246  1.6845
 3198TIP3   OH231084   4.103   1.957  13.698 -0.1455  0.1638 -0.7273
 3198TIP3    H131085   4.053   2.036  13.680 -0.1409  0.2516 -0.3644
 3198TIP3    H231086   4.190   1.975  13.663 -0.5681 -0.2989 -2.1043
 3199TIP3   OH231087   1.929   0.113   0.022  0.5277 -0.1358 -0.5540
 3199TIP3    H131088   1.892   0.199   0.042 -1.4101 -0.8909 -0.6272
 3199TIP3    H231089   1.924   0.065   0.104 -1.1094 -1.0507 -1.1252
 3200TIP3   OH231090   4.696   5.049  11.795  0.0106  0.2052  0.0421
 3200TIP3    H131091   4.653   5.133  11.781  1.0467  0.7031 -0.2702
 3200TIP3    H231092   4.757   5.065  11.867  1.3027  0.1638 -1.0041
 3201TIP3   OH231093   1.386   4.920  11.446 -0.8776 -0.5086  0.4536
 3201TIP3    H131094   1.479   4.905  11.432 -0.9769 -0.7076 -0.0261
 3201TIP3    H231095   1.343   4.850  11.396 -1.2790 -0.5322  0.8232
 3202TIP3   OH231096   0.823   2.210   4.814 -0.2946 -0.4605 -0.1673
 3202TIP3    H131097   0.750   2.150   4.828 -0.8000  0.5542  1.9301
 3202TIP3    H231098   0.885   2.190   4.884  0.0844  0.6330 -0.1670
 3203TIP3   OH231099   6.631   2.483   4.813  1.0850 -0.1412 -0.0174
 3203TIP3    H131100   6.705   2.474   4.874  2.2031 -1.2170 -1.4805
 3203TIP3    H231101   6.556   2.451   4.863  1.9379 -0.8676  0.8522
 3204TIP3   OH231102   5.653   6.118   3.900 -0.0459 -0.5638 -0.2556
 3204TIP3    H131103   5.627   6.203   3.935  0.2792  0.3042 -1.9984
 3204TIP3    H231104   5.725   6.089   3.956  0.3404  0.6764 -0.0910
 3205TIP3   OH231105   6.006   0.507   6.138 -0.2356  0.0298 -0.1777
 3205TIP3    H131106   6.024   0.467   6.052  0.6087 -0.6567  0.3000
 3205TIP3    H231107   5.926   0.464   6.168 -1.7894  1.7977 -1.5240
 3206TIP3   OH231108   2.980   0.732   4.685 -0.9724  0.7406 -0.3308
 3206TIP3    H131109   2.904   0.756   4.738 -1.7886 -2.5450  0.1951
 3206TIP3    H231110   3.040   0.691   4.747  0.7780  2.2328 -0.9559
 3207TIP3   OH231111   6.331   3.146   4.073  0.2480  0.2227 -0.2489
 3207TIP3    H131112   6.253   3.193   4.103 -0.5546  1.0381 -3.2687
 3207TIP3    H231113   6.396   3.215   4.058  1.1289 -0.3140  0.9357
 3208TIP3   OH231114   2.601   3.116   1.808  0.6015  1.1212 -0.0970
 3208TIP3    H131115   2.610   3.206   1.839  1.7673  0.5178  1.4091
 3208TIP3    H231116   2.558   3.070   1.880  1.0368  0.2179 -0.4013
 3209TIP3   OH231117   2.683   1.722   4.677 -0.3566  0.2080 -0.1793
 3209TIP3    H131118   2.736   1.670   4.738 -0.1473 -0.9278 -1.3005
 3209TIP3    H231119   2.672   1.665   4.601 -1.8464  1.0463 -0.6131
 3210TIP3   OH231120   0.029   3.165  15.590 -0.2891 -0.1574 -0.0230
 3210TIP3    H131121  -0.059   3.162  15.551 -0.7837 -1.1358  1.1268
 3210TIP3    H231122   0.073   3.087  15.555 -0.6340 -0.8747  1.0799
 3211TIP3   OH231123   2.569   4.806   0.336  0.2317 -0.0840 -0.2076
 3211TIP3    H131124   2.649   4.857   0.326 -0.8162  1.6604 -0.0470
 3211TIP3    H231125   2.550   4.810   0.429 -0.2155 -0.2415 -0.2913
 3212TIP3   OH231126   0.203   3.960  16.691  0.1045 -0.2186 -0.2046
 3212TIP3    H131127   0.229   3.868  16.688 -1.0023 -0.5261 -1.9797
 3212TIP3    H231128   0.283   4.009  16.674  0.7615 -0.8075  1.0410
 3213TIP3   OH231129   2.507   2.777   0.528  0.0902 -0.0837  0.3258
 3213TIP3    H131130   2.580   2.794   0.587  2.2908  0.1312 -2.2790
 3213TIP3    H231131   2.468   2.863   0.512  0.6022  0.1079  0.0981
 3214TIP3   OH231132   1.675   2.784  12.293  0.0831  0.2267 -0.2924
 3214TIP3    H131133   1.726   2.754  12.217  1.8433  0.4060  0.7455
 3214TIP3    H231134   1.697   2.722  12.362 -0.4301  0.8473  0.4359
 3215TIP3   OH231135   3.734   1.647  14.092  0.2366  0.4710 -0.2183
 3215TIP3    H131136   3.754   1.624  14.001  1.5374 -0.5260  0.2813
 3215TIP3    H231137   3.640   1.667  14.092  0.2439  0.6136 -1.7960
 3216TIP3   OH231138   5.733   0.247  16.275 -0.6545 -0.1763 -0.5154
 3216TIP3    H131139   5.686   0.214  16.199 -2.0493 -1.3519  0.7936
 3216TIP3    H231140   5.681   0.322  16.305 -0.4056 -0.0502 -0.3911
 3217TIP3   OH231141   6.714   5.369  11.018  0.2146  0.2294  0.5665
 3217TIP3    H131142   6.627   5.346  11.051 -0.1865 -0.1034 -0.6677
 3217TIP3    H231143   6.709   5.354  10.924  2.0068 -1.0245  0.6190
 3218TIP3   OH231144   6.676   1.183  15.932  0.1076 -0.3161  0.3664
 3218TIP3    H131145   6.589   1.222  15.923 -0.3978 -1.2099  1.2229
 3218TIP3    H231146   6.676   1.144  16.019  0.4915 -2.4376 -0.5206
 3219TIP3   OH231147   0.510   1.762  13.602  0.3953  0.2116 -0.0491
 3219TIP3    H131148   0.523   1.675  13.640  2.5613  0.6614  0.3547
 3219TIP3    H231149   0.582   1.814  13.637  0.0587  1.7606 -1.5593
 3220TIP3   OH231150   6.634   6.223   6.049  0.5130 -0.0768 -0.2814
 3220TIP3    H131151   6.539   6.226   6.037  0.5638 -1.2014 -1.1668
 3220TIP3    H231152   6.651   6.135   6.082  1.2828  0.0087 -0.4292
 3221TIP3   OH231153   5.194   3.463  16.003 -0.0827  0.0934  0.1058
 3221TIP3    H131154   5.153   3.484  15.918  1.8037  2.2135 -0.3449
 3221TIP3    H231155   5.230   3.375  15.990  0.7473  0.6270 -1.5727
 3222TIP3   OH231156   6.336   0.473   4.949 -0.4004 -0.8867  0.2218
 3222TIP3    H131157   6.381   0.403   4.996 -2.4145 -2.4127  0.0282
 3222TIP3    H231158   6.405   0.535   4.925  1.2260 -2.0102  1.7780
 3223TIP3   OH231159   1.149   0.728  15.202 -0.2175 -0.1572 -0.0161
 3223TIP3    H131160   1.244   0.720  15.198 -0.3565 -2.0802 -0.6088
 3223TIP3    H231161   1.133   0.820  15.222  1.7564  0.2119  0.0363
 3224TIP3   OH231162   0.273   4.584   0.569 -0.1084 -0.1405  0.0458
 3224TIP3    H131163   0.332   4.512   0.592 -0.5941 -0.4305  0.3888
 3224TIP3    H231164   0.258   4.573   0.475  0.1751 -0.2197  0.0085
 3225TIP3   OH231165   2.702   1.274  12.412  0.0052 -0.5548 -0.5300
 3225TIP3    H131166   2.753   1.236  12.484  1.1279 -0.3971 -1.2216
 3225TIP3    H231167   2.638   1.330  12.456  0.7396 -0.3711  0.3526
 3226TIP3   OH231168   4.300   1.935  13.355  0.1037  0.4435 -0.0644
 3226TIP3    H131169   4.286   2.015  13.405  1.2942  0.6510 -0.0168
 3226TIP3    H231170   4.236   1.873  13.389 -0.9933  1.4335 -0.2648
 3227TIP3   OH231171   2.776   5.453  11.316 -1.2929  0.4807 -0.3520
 3227TIP3    H131172   2.769   5.359  11.296 -2.9282  0.4718  0.0540
 3227TIP3    H231173   2.751   5.459  11.408  3.2643  0.8336  1.1154
 3228TIP3   OH231174   3.700   6.115   3.556  0.0036  0.3572  0.5653
 3228TIP3    H131175   3.605   6.119   3.559 -0.2254 -0.6324 -2.2251
 3228TIP3    H231176   3.721   6.023   3.569  0.5505  0.5269  0.8851
 3229TIP3   OH231177   3.859   2.765   3.696  0.5035  0.0342 -0.1175
 3229TIP3    H131178   3.902   2.720   3.770 -0.0324  0.1748  0.2861
 3229TIP3    H231179   3.931   2.805   3.647  0.7399  1.8142  1.5579
 3230TIP3   OH231180   4.566   5.807  13.640  0.8170 -0.3976 -0.0788
 3230TIP3    H131181   4.629   5.749  13.598  2.3268  0.7760  0.4779
 3230TIP3    H231182   4.484   5.792  13.593  1.5344 -1.8547 -0.9214
 3231TIP3   OH231183   6.287   6.405   6.223  0.1689  0.1832 -0.3392
 3231TIP3    H131184   6.283   6.479   6.283  0.3015  1.2211 -1.5744
 3231TIP3    H231185   6.315   6.332   6.278  0.5244  1.1414  0.8090
 3232TIP3   OH231186   0.935   2.706  12.007  0.1172 -0.6228 -0.0322
 3232TIP3    H131187   0.968   2.655  11.933 -1.0035 -0.5233 -0.6271
 3232TIP3    H231188   0.900   2.786  11.968  1.8802  0.6700  0.8914
 3233TIP3   OH231189   5.226   1.908  16.837  0.2806  0.0880 -0.3773
 3233TIP3    H131190   5.319   1.927  16.848  0.5719 -1.1104 -0.5948
 3233TIP3    H231191   5.214   1.821  16.875 -0.8866  0.4852  0.2082
 3234TIP3   OH231192   6.060   2.840   1.139  0.1495 -0.5597  0.3968
 3234TIP3    H131193   6.053   2.882   1.054 -1.4433  1.3837  1.3974
 3234TIP3    H231194   6.153   2.839   1.159  0.4665 -0.3205 -1.0099
 3235TIP3   OH231195   0.433   4.819  11.670  0.3805 -0.1164  0.2145
 3235TIP3    H131196   0.377   4.879  11.621  2.2336  0.8279 -0.8406
 3235TIP3    H231197   0.456   4.867  11.750  0.0233 -0.3463  0.4590
 3236TIP3   OH231198   6.627   6.414  15.576 -0.2425  0.2161 -0.1081
 3236TIP3    H131199   6.595   6.378  15.659 -0.7046  1.8636  0.4535
 3236TIP3    H231200   6.644   6.506  15.594  2.2633  0.0284 -1.1323
 3237TIP3   OH231201   5.638   5.048  10.777 -0.1251 -0.1014 -0.1500
 3237TIP3    H131202   5.550   5.078  10.801 -0.8129 -0.7814 -1.7306
 3237TIP3    H231203   5.651   4.969  10.830  0.4652  1.1776  1.7279
 3238TIP3   OH231204   4.011   6.463  17.421  0.2236  0.3978  0.2803
 3238TIP3    H131205   4.082   6.514  17.382  2.0901 -1.0472  1.5860
 3238TIP3    H231206   3.969   6.524  17.482 -1.3379  2.0122 -2.2583
 3239TIP3   OH231207   4.721   6.609   0.161  0.3874  0.2708 -0.0122
 3239TIP3    H131208   4.783   6.546   0.123  0.2781  1.4705 -2.3359
 3239TIP3    H231209   4.760   6.632   0.246  1.0764 -1.9025  0.3441
 3240TIP3   OH231210   1.972   0.486  14.777  0.6494 -0.1815  0.2075
 3240TIP3    H131211   2.001   0.407  14.823  0.9518 -0.1363  0.0946
 3240TIP3    H231212   2.044   0.548  14.788  1.3253 -0.6128 -1.4707
 3241TIP3   OH231213   0.211   4.212   0.381  0.0529  0.0790  0.1881
 3241TIP3    H131214   0.115   4.208   0.382 -0.0363  1.5576 -0.3536
 3241TIP3    H231215   0.231   4.294   0.336  1.5825 -0.0999  0.4994
 3242TIP3   OH231216   1.891   0.596   3.806 -0.3765 -0.0010 -0.1307
 3242TIP3    H131217   1.882   0.540   3.883  1.5079 -1.8418 -1.1239
 3242TIP3    H231218   1.851   0.545   3.735  0.6699  0.2289 -0.9148
 3243TIP3   OH231219   5.886   1.200   6.436 -0.5400 -0.2418  0.7837
 3243TIP3    H131220   5.902   1.109   6.413  0.8288  0.1140  0.2151
 3243TIP3    H231221   5.973   1.241   6.436 -1.2993  1.9506 -2.9034
 3244TIP3   OH231222   2.267   6.160   1.334  0.1832 -0.5867  0.3107
 3244TIP3    H131223   2.289   6.230   1.395  0.2043 -1.4745  1.3437
 3244TIP3    H231224   2.193   6.195   1.284 -0.7246 -0.3322  1.7621
 3245TIP3   OH231225   3.225   1.477   0.753 -0.0181  0.2614 -0.0279
 3245TIP3    H131226   3.298   1.513   0.804  0.1629 -0.2070  0.0580
 3245TIP3    H231227   3.147   1.520   0.788  0.2991  1.4883 -0.7755
 3246TIP3   OH231228   3.421   2.766  12.957 -0.0408  0.0093  0.3658
 3246TIP3    H131229   3.363   2.824  13.007  0.7674 -0.3766  1.8284
 3246TIP3    H231230   3.506   2.811  12.956  0.5082 -0.9586  1.2304
 3247TIP3   OH231231   1.807   4.395   3.155  0.7869  0.1705 -0.5667
 3247TIP3    H131232   1.886   4.449   3.155  1.1784 -0.3652  0.3489
 3247TIP3    H231233   1.825   4.327   3.221 -0.0153 -0.5784 -1.0950
 3248TIP3   OH231234   1.326   3.936  16.632  0.2300 -0.4617 -0.1498
 3248TIP3    H131235   1.381   3.951  16.555 -2.2363  0.9443 -1.7857
 3248TIP3    H231236   1.321   3.840  16.639  4.5419 -0.7692  1.5122
 3249TIP3   OH231237   2.010   2.232   1.269 -0.7659 -0.0658  0.0585
 3249TIP3    H131238   2.000   2.144   1.233  0.3240  0.1021 -0.7107
 3249TIP3    H231239   2.024   2.219   1.363  0.8776 -0.8482 -0.2509
 3250TIP3   OH231240   5.290   2.376   3.109 -0.0365 -0.1333  0.7554
 3250TIP3    H131241   5.264   2.460   3.071  2.0620  0.2132 -0.0728
 3250TIP3    H231242   5.316   2.323   3.034 -1.2863 -1.5255  1.2788
 3251TIP3   OH231243   0.120   2.981  16.890 -0.1989  0.0406  0.3692
 3251TIP3    H131244   0.048   2.948  16.943 -0.0129 -1.8002 -0.4666
 3251TIP3    H231245   0.196   2.930  16.918 -0.0532 -0.8360 -1.4839
 3252TIP3   OH231246   4.342   0.409  13.281 -0.0500 -0.1965 -0.7212
 3252TIP3    H131247   4.408   0.356  13.237 -0.0026 -0.1796 -0.6717
 3252TIP3    H231248   4.260   0.363  13.266 -0.6912  1.6649 -4.0068
 3253TIP3   OH231249   2.349   3.537  17.606 -0.3123  0.0026  0.0200
 3253TIP3    H131250   2.419   3.543  17.541 -0.3139  0.9678  0.0913
 3253TIP3    H231251   2.377   3.596  17.676  0.1947 -1.7675  1.3988
 3254TIP3   OH231252   4.472   4.933  15.983 -0.4648 -0.3259 -0.7140
 3254TIP3    H131253   4.521   4.992  16.040 -2.8809  0.2901  0.8849
 3254TIP3    H231254   4.461   4.982  15.901  0.1837  0.1736 -0.5079
 3255TIP3   OH231255   2.717   3.708  15.286 -0.0870 -0.6148 -0.3656
 3255TIP3    H131256   2.791   3.756  15.323  0.7034 -2.0774  0.0322
 3255TIP3    H231257   2.652   3.776  15.268  0.9675  0.5983  0.1674
 3256TIP3   OH231258   1.350   5.524  13.077 -0.8691 -0.5886 -0.2137
 3256TIP3    H131259   1.425   5.468  13.098 -0.5099  0.7302  2.3078
 3256TIP3    H231260   1.274   5.466  13.086 -0.3835 -1.1423  0.4217
 3257TIP3   OH231261   6.048   6.215  12.223 -0.1736  0.5710 -0.4523
 3257TIP3    H131262   6.037   6.306  12.195 -0.2896  0.4145 -0.9134
 3257TIP3    H231263   6.029   6.163  12.146  0.9936  0.1888 -0.5035
 3258TIP3   OH231264   0.364   6.479  16.279  0.4085 -0.2049  0.2632
 3258TIP3    H131265   0.459   6.468  16.283  0.6105  1.1774 -0.0247
 3258TIP3    H231266   0.346   6.493  16.186 -0.1916 -1.2698  0.2095
 3259TIP3   OH231267   3.175   5.156   0.337  0.0307 -0.1037 -0.3258
 3259TIP3    H131268   3.162   5.104   0.258 -0.5018  1.8215 -1.5512
 3259TIP3    H231269   3.167   5.247   0.309 -0.5212  0.6539  1.9922
 3260TIP3   OH231270   5.441   2.543  15.348 -0.0933  0.2524 -0.1096
 3260TIP3    H131271   5.358   2.590  15.354  0.4493  1.1557  0.5860
 3260TIP3    H231272   5.504   2.608  15.318  0.5146 -0.2309  0.0924
 3261TIP3   OH231273   0.570   6.505  11.729 -0.3408 -0.1910  0.0950
 3261TIP3    H131274   0.487   6.493  11.775 -0.9568  0.9253 -0.6744
 3261TIP3    H231275   0.635   6.464  11.785 -1.2136  0.1536  1.3888
 3262TIP3   OH231276   3.373   4.039  16.744 -0.0572 -0.0647  0.4933
 3262TIP3    H131277   3.353   4.108  16.681 -1.1584  0.6618  1.5818
 3262TIP3    H231278   3.372   3.958  16.693  2.5238  0.7603 -1.0828
 3263TIP3   OH231279   6.593   4.783  14.691  0.0630  0.0090  0.5683
 3263TIP3    H131280   6.591   4.825  14.777  0.3457 -0.2162  0.6849
 3263TIP3    H231281   6.534   4.708  14.700  0.3909 -0.2356  0.6810
 3264TIP3   OH231282   3.980   3.491   4.221  0.2101 -0.3082 -0.4828
 3264TIP3    H131283   3.948   3.428   4.285 -0.7900 -1.5709 -2.1543
 3264TIP3    H231284   4.061   3.452   4.188  1.3767  0.9086  0.7814
 3265TIP3   OH231285   1.219   1.326  15.908  0.0010 -0.7166 -0.0867
 3265TIP3    H131286   1.191   1.234  15.907  2.1577 -1.4320 -0.6366
 3265TIP3    H231287   1.158   1.371  15.850 -1.3793 -1.6827  0.5550
 3266TIP3   OH231288   5.394   6.291   3.419  0.1980 -0.4019  0.1138
 3266TIP3    H131289   5.348   6.313   3.338  2.1886  0.4454 -0.8541
 3266TIP3    H231290   5.350   6.212   3.451 -1.7140  0.2072 -0.8619
 3267TIP3   OH231291   5.315   0.809  13.352 -0.2547  0.1435  0.1966
 3267TIP3    H131292   5.261   0.880  13.386  1.8103  1.4040  1.0365
 3267TIP3    H231293   5.405   0.837  13.370  0.8435 -0.7381 -3.2086
 3268TIP3   OH231294   0.152   6.304  15.489  0.6839 -0.3165  0.4334
 3268TIP3    H131295   0.218   6.333  15.553  0.8773  0.4197 -0.0829
 3268TIP3    H231296   0.071   6.347  15.516  0.9495  0.6629 -0.2778
 3269TIP3   OH231297   5.436   5.585   5.077  0.0207  0.1486 -0.1508
 3269TIP3    H131298   5.400   5.525   5.011  1.5244 -0.7163 -0.2327
 3269TIP3    H231299   5.401   5.553   5.160  0.4543 -0.6091 -0.2440
 3270TIP3   OH231300   0.180   4.060   5.439  0.1995 -0.3736  0.0795
 3270TIP3    H131301   0.240   3.989   5.420 -0.1914 -0.9956  1.0809
 3270TIP3    H231302   0.229   4.119   5.497  0.8957  0.7648 -1.6101
 3271TIP3   OH231303   4.697   2.301  16.329 -0.5708 -0.1197 -0.5853
 3271TIP3    H131304   4.758   2.237  16.294 -0.9928 -0.5886 -0.4800
 3271TIP3    H231305   4.615   2.252  16.340 -1.3616  0.8114 -2.0033
 3272TIP3   OH231306   2.366   0.666  13.531 -0.2495 -0.1259 -0.1350
 3272TIP3    H131307   2.302   0.697  13.595  0.7156 -1.2276  1.4260
 3272TIP3    H231308   2.368   0.735  13.464 -1.7124  0.7862  0.7061
 3273TIP3   OH231309   1.322   2.525  17.448  0.0662  0.2528 -0.6146
 3273TIP3    H131310   1.247   2.468  17.431 -2.5291  3.4083 -0.6300
 3273TIP3    H231311   1.319   2.591  17.379  3.1246  0.3596 -0.7988
 3274TIP3   OH231312   1.869   5.294   5.290  0.2479  0.2874 -0.5248
 3274TIP3    H131313   1.895   5.312   5.200 -0.9397  3.0679 -0.4030
 3274TIP3    H231314   1.793   5.235   5.281 -0.2302  1.0061 -1.4032
 3275TIP3   OH231315   3.867   1.094  14.112 -0.1656  0.2567  0.2433
 3275TIP3    H131316   3.852   1.053  14.198  0.9746  0.6473  0.6430
 3275TIP3    H231317   3.794   1.155  14.103 -0.9854 -0.6739  0.3689
 3276TIP3   OH231318   0.183   6.360  12.532  0.3631  0.4425 -0.5288
 3276TIP3    H131319   0.264   6.409  12.525  1.0455 -0.8143 -1.8432
 3276TIP3    H231320   0.202   6.276  12.491 -0.5910 -1.1659  2.0632
 3277TIP3   OH231321   6.704   5.366   1.379 -0.2718 -0.1755 -0.2013
 3277TIP3    H131322   6.675   5.434   1.318 -3.2085 -0.0390  1.1639
 3277TIP3    H231323   6.780   5.403   1.422 -0.9484  1.6819 -0.5194
 3278TIP3   OH231324   2.011   2.532  13.533  0.2765 -0.4524  0.4177
 3278TIP3    H131325   1.990   2.625  13.522  1.2727 -0.4010 -1.5602
 3278TIP3    H231326   2.027   2.521  13.627 -1.0368  1.0909  0.8668
 3279TIP3   OH231327   5.198   3.814   1.692  0.1714  0.1310  0.8832
 3279TIP3    H131328   5.256   3.769   1.754  0.2261 -2.2159 -0.7745
 3279TIP3    H231329   5.163   3.888   1.742  2.2817 -0.0937  2.8560
 3280TIP3   OH231330   3.815   0.998  14.756 -0.5088  0.8811 -0.1438
 3280TIP3    H131331   3.859   1.080  14.776 -2.8084  2.0925  0.2721
 3280TIP3    H231332   3.865   0.961  14.684  0.1438  3.0484 -0.8829
 3281TIP3   OH231333   2.023   0.773  14.940 -0.5080 -0.7853  0.0922
 3281TIP3    H131334   2.081   0.767  14.865  0.2634  0.3789  0.5717
 3281TIP3    H231335   1.935   0.760  14.904 -0.2202  0.4237 -1.1284
 3282TIP3   OH231336   0.922   3.211   0.523 -0.6115 -0.2414 -0.3056
 3282TIP3    H131337   0.915   3.116   0.532  0.8982 -0.3901 -0.4302
 3282TIP3    H231338   0.908   3.228   0.430 -0.0267 -0.4518 -0.4388
 3283TIP3   OH231339   5.327   5.512  16.896 -0.9271 -0.1884 -0.0818
 3283TIP3    H131340   5.330   5.577  16.825  3.1622 -1.0382 -0.9393
 3283TIP3    H231341   5.418   5.504  16.925 -2.1110 -1.3324  4.0349
 3284TIP3   OH231342   5.795   3.500   5.414  0.2369  0.3625 -0.1039
 3284TIP3    H131343   5.806   3.593   5.391  0.5858  0.9045  1.9844
 3284TIP3    H231344   5.701   3.483   5.401  0.0560  1.1867  0.0446
 3285TIP3   OH231345   2.211   5.900  13.512 -0.0167 -0.2525  0.1942
 3285TIP3    H131346   2.232   5.957  13.439 -0.1503  1.7343  1.6276
 3285TIP3    H231347   2.116   5.908  13.523  0.1305  0.3389  1.2192
 3286TIP3   OH231348   0.618   2.387   0.709  0.1322 -0.6183 -0.1232
 3286TIP3    H131349   0.694   2.332   0.729  1.3482  0.9609 -0.2319
 3286TIP3    H231350   0.642   2.435   0.630 -0.8899  0.0716 -0.0390
 3287TIP3   OH231351   4.166   5.280   0.489  0.2446 -0.6754 -0.6558
 3287TIP3    H131352   4.219   5.297   0.412  0.5612 -1.7707 -0.6987
 3287TIP3    H231353   4.101   5.350   0.490  1.1378  0.1730 -1.0968
 3288TIP3   OH231354   1.275   0.114  13.779 -0.0872  0.1178  0.4076
 3288TIP3    H131355   1.261   0.020  13.794  0.5614 -0.1556 -0.5414
 3288TIP3    H231356   1.367   0.120  13.752  0.3619  1.2452  2.0486
 3289TIP3   OH231357   2.166   2.241  15.893  0.1565 -0.0658 -0.3086
 3289TIP3    H131358   2.237   2.279  15.842 -0.5884  1.0635 -0.5437
 3289TIP3    H231359   2.086   2.271  15.850 -0.4910 -1.9136 -0.4919
 3290TIP3   OH231360   4.745   3.147  12.261  0.7320  0.1866  0.2007
 3290TIP3    H131361   4.714   3.060  12.288 -0.3810  1.4097  3.2531
 3290TIP3    H231362   4.706   3.160  12.174 -0.5944 -1.6404  0.4630
 3291TIP3   OH231363   3.561   3.975   4.004 -0.0627  0.3087  0.5122
 3291TIP3    H131364   3.575   3.977   4.099  0.6717  2.7275  0.4013
 3291TIP3    H231365   3.634   4.025   3.968 -0.6187 -0.1315 -1.3161
 3292TIP3   OH231366   2.275   5.002  12.838 -0.6541  0.1924 -0.7128
 3292TIP3    H131367   2.180   5.016  12.838 -0.9140 -0.3240  3.3810
 3292TIP3    H231368   2.310   5.080  12.880  0.2925 -1.0743  0.9750
 3293TIP3   OH231369   5.865   2.049   4.666  0.0622 -0.9250  0.0497
 3293TIP3    H131370   5.799   2.008   4.610 -0.4355 -0.9047  0.6041
 3293TIP3    H231371   5.842   2.020   4.754  1.8750 -2.3787  0.0986
 3294TIP3   OH231372   6.083   0.678  12.402 -1.2759  0.3028 -0.2568
 3294TIP3    H131373   6.077   0.586  12.426 -0.2185  0.3155  0.0865
 3294TIP3    H231374   6.025   0.686  12.326 -1.7088 -0.5457 -0.0296
 3295TIP3   OH231375   4.733   6.047  17.173 -0.6274  0.3012 -0.6975
 3295TIP3    H131376   4.690   6.118  17.124  1.0095  1.6124 -0.3273
 3295TIP3    H231377   4.709   6.063  17.264 -2.2090 -1.0894 -0.8183
 3296TIP3   OH231378   2.038   0.252  11.085  0.3125  0.1682  0.3041
 3296TIP3    H131379   1.989   0.332  11.068 -1.2208 -0.7485  0.1979
 3296TIP3    H231380   2.090   0.239  11.006  0.1032  0.7316  0.0685
 3297TIP3   OH231381   4.914   4.970  15.887  0.2127  0.4110 -0.4464
 3297TIP3    H131382   4.876   4.986  15.800 -1.9012 -0.0453  0.3287
 3297TIP3    H231383   4.882   5.043  15.940  1.4585  0.6679 -0.0117
 3298TIP3   OH231384   0.768   3.507  16.595 -1.1154  0.7520  0.3989
 3298TIP3    H131385   0.779   3.461  16.512 -1.7290  3.2571 -1.2038
 3298TIP3    H231386   0.818   3.588  16.584 -0.7870  0.9265  2.7148
 3299TIP3   OH231387   0.024   4.864   0.215  0.1547 -0.1649 -0.0905
 3299TIP3    H131388   0.039   4.904   0.301  0.5919 -1.3438  0.3990
 3299TIP3    H231389  -0.056   4.813   0.225 -0.4334  0.5977 -0.7314
 3300TIP3   OH231390   5.118   2.573  14.608  0.5914 -0.0268 -0.2500
 3300TIP3    H131391   5.210   2.590  14.628  0.2659  0.8698  0.5414
 3300TIP3    H231392   5.088   2.654  14.565  0.0629 -0.1415 -0.1015
 3301TIP3   OH231393   4.149   2.442   1.162 -0.0443  0.1539 -0.2646
 3301TIP3    H131394   4.191   2.523   1.192 -0.4750  0.6699 -1.0035
 3301TIP3    H231395   4.061   2.446   1.198  0.8192 -1.4995  2.2795
 3302TIP3   OH231396   3.792   4.922  11.603 -0.2863 -0.1444  0.0127
 3302TIP3    H131397   3.703   4.958  11.602 -0.5429 -0.6310  1.4549
 3302TIP3    H231398   3.803   4.881  11.518 -1.4136  0.0275 -0.2326
 3303TIP3   OH231399   4.188   4.243   4.965  0.2399  0.1482 -0.1269
 3303TIP3    H131400   4.204   4.162   5.012  0.1291 -0.1514 -0.5999
 3303TIP3    H231401   4.110   4.280   5.007  1.4123  1.0229  1.4055
 3304TIP3   OH231402   3.614   1.018  16.400 -0.1557  0.0040 -0.5316
 3304TIP3    H131403   3.652   1.103  16.380 -1.6303  0.5709 -1.1067
 3304TIP3    H231404   3.601   0.977  16.314 -1.2466  0.0444 -0.4055
 3305TIP3   OH231405   0.387   1.547  13.715  0.1152  0.7696 -0.3929
 3305TIP3    H131406   0.376   1.525  13.623 -2.6449  0.0595  0.0114
 3305TIP3    H231407   0.463   1.496  13.743  0.0605 -0.2185 -1.9211
 3306TIP3   OH231408   6.522   5.256  11.861  0.0453  0.1101 -0.2779
 3306TIP3    H131409   6.590   5.201  11.822  1.4595  1.1464  0.6733
 3306TIP3    H231410   6.478   5.296  11.786  0.3164 -0.7251 -0.9061
 3307TIP3   OH231411   1.263   0.772  13.287 -0.1549  0.6629 -0.0035
 3307TIP3    H131412   1.252   0.758  13.193 -0.1212 -0.9690  0.2030
 3307TIP3    H231413   1.184   0.734  13.326  0.8978 -0.8617  0.7504
 3308TIP3   OH231414   0.314   2.227   2.204  0.1068  0.1273  0.0698
 3308TIP3    H131415   0.393   2.275   2.179  0.2911 -0.4576 -0.5160
 3308TIP3    H231416   0.343   2.136   2.213 -0.5000 -0.0944 -0.1570
 3309TIP3   OH231417   6.002   6.485   3.733  0.2011 -0.2434 -0.7612
 3309TIP3    H131418   6.088   6.451   3.707  0.9177  1.7654 -1.2561
 3309TIP3    H231419   5.987   6.558   3.673 -0.9528  0.6535  0.5775
 3310TIP3   OH231420   1.633   5.978  17.017 -0.0352  0.1888 -0.1891
 3310TIP3    H131421   1.687   5.954  17.092  0.2927  0.1656 -0.4318
 3310TIP3    H231422   1.615   6.071  17.029 -0.7575 -0.0169  0.4034
 3311TIP3   OH231423   2.173   0.796  16.128  0.3205 -0.3073  0.1496
 3311TIP3    H131424   2.254   0.748  16.114 -0.1706 -1.0897 -0.0415
 3311TIP3    H231425   2.119   0.777  16.052 -1.4205 -2.6804  1.8051
 3312TIP3   OH231426   4.594   1.366   5.670  0.3268 -0.7136  0.0012
 3312TIP3    H131427   4.518   1.410   5.708  2.1503  2.1687  0.5973
 3312TIP3    H231428   4.610   1.413   5.588  2.0216 -0.6043  0.3688
 3313TIP3   OH231429   3.013   4.466   5.754 -1.0288  0.0256 -0.3984
 3313TIP3    H131430   3.073   4.540   5.747 -0.5554 -0.3312 -0.1599
 3313TIP3    H231431   2.942   4.499   5.810  0.9035 -0.7549  2.7405
 3314TIP3   OH231432   2.649   6.614   4.731  0.7279  0.2309 -0.3231
 3314TIP3    H131433   2.614   6.539   4.780 -1.8748  0.2495 -1.9717
 3314TIP3    H231434   2.703   6.661   4.795 -0.5382 -1.0460  1.8139
 3315TIP3   OH231435   4.210   1.894  16.995 -0.1404  0.2067 -0.1874
 3315TIP3    H131436   4.287   1.846  16.965 -0.7801 -0.6435 -0.5076
 3315TIP3    H231437   4.195   1.960  16.928  0.5527  0.6555  0.0906
 3316TIP3   OH231438   4.578   5.318   4.694  0.0495  0.2462 -0.6599
 3316TIP3    H131439   4.535   5.389   4.741 -0.9032 -0.0604 -1.0519
 3316TIP3    H231440   4.534   5.315   4.609  0.5471 -0.3702 -0.9064
 3317TIP3   OH231441   0.870   5.833   2.771  0.1419 -1.1408 -0.0066
 3317TIP3    H131442   0.864   5.786   2.687 -0.6981  1.6783 -1.6865
 3317TIP3    H231443   0.790   5.809   2.818  0.4680 -2.5182 -0.1143
 3318TIP3   OH231444   1.969   4.354  13.986  0.2559 -0.1504 -0.2172
 3318TIP3    H131445   1.919   4.378  14.065  0.7618  0.6142 -0.1296
 3318TIP3    H231446   2.025   4.429  13.969  2.2680 -1.4494  0.3775
 3319TIP3   OH231447   4.797   1.360  14.727  0.6992 -0.3376 -0.1898
 3319TIP3    H131448   4.792   1.385  14.819  4.7231 -0.1468  0.1445
 3319TIP3    H231449   4.798   1.443  14.680 -1.7345 -0.4380 -0.5668
 3320TIP3   OH231450   5.984   3.868  17.288 -0.3223  0.1680 -0.0011
 3320TIP3    H131451   5.890   3.881  17.273 -0.1552  2.3011  0.4507
 3320TIP3    H231452   6.025   3.946  17.253  1.2743 -0.5816  0.1151
 3321TIP3   OH231453   0.225   4.551  16.467 -0.4831 -0.2904  0.4244
 3321TIP3    H131454   0.220   4.499  16.547  1.0650 -1.9901 -0.4964
 3321TIP3    H231455   0.272   4.495  16.405  0.7024  1.9680 -0.8622
 3322TIP3   OH231456   6.449   3.242  16.942 -0.3300 -0.3858 -0.4938
 3322TIP3    H131457   6.402   3.264  17.023  0.9126 -0.8886  0.3928
 3322TIP3    H231458   6.384   3.254  16.873 -0.9431  1.8922  0.3542
 3323TIP3   OH231459   2.079   4.614   3.956  0.2748  0.5935  0.1823
 3323TIP3    H131460   2.014   4.588   4.021  2.0533  2.8140  3.0651
 3323TIP3    H231461   2.144   4.544   3.957 -0.3979 -0.0557 -0.3158
 3324TIP3   OH231462   2.234   0.651   6.654  0.1597 -0.6152  0.4345
 3324TIP3    H131463   2.215   0.592   6.727  2.5626 -0.8281  0.9604
 3324TIP3    H231464   2.232   0.593   6.577  1.0858 -1.1235  0.7763
 3325TIP3   OH231465   6.390   5.246   4.305  0.3848  0.3150  0.2443
 3325TIP3    H131466   6.426   5.162   4.334 -2.1614 -0.2647  2.1807
 3325TIP3    H231467   6.306   5.224   4.266  0.6964  1.8108 -1.3939
 3326TIP3   OH231468   5.967   5.848   2.441 -0.3544 -0.3722  0.6845
 3326TIP3    H131469   5.930   5.828   2.355  0.7980 -0.7226  0.2478
 3326TIP3    H231470   6.029   5.777   2.459  1.0174  0.7838  0.8110
 3327TIP3   OH231471   0.688   5.388   0.748 -0.1338  0.7331 -0.2905
 3327TIP3    H131472   0.649   5.358   0.665 -0.0036  0.1105 -0.1337
 3327TIP3    H231473   0.617   5.379   0.812  0.1554 -0.0902 -0.0701
 3328TIP3   OH231474   4.082   1.293  14.594  0.5422 -0.4438  0.2641
 3328TIP3    H131475   4.128   1.377  14.602 -1.1584  0.9999 -3.0137
 3328TIP3    H231476   4.012   1.298  14.660  0.4606  0.7492  0.1200
 3329TIP3   OH231477   1.741   6.158  15.409 -0.3030 -0.0053 -0.0443
 3329TIP3    H131478   1.778   6.244  15.424 -0.1955  0.2293 -1.4516
 3329TIP3    H231479   1.660   6.175  15.361 -0.3419 -0.6643 -0.2264
 3330TIP3   OH231480   5.658   6.451  17.674 -0.3818 -0.7882  0.9133
 3330TIP3    H131481   5.729   6.515  17.676  0.5783 -1.7992  0.3432
 3330TIP3    H231482   5.684   6.388  17.606 -0.6657 -2.4914  2.3050
 3331TIP3   OH231483   1.110   2.976   2.940 -0.1718  1.0476  0.0936
 3331TIP3    H131484   1.187   3.002   2.990 -0.3429  1.1365  0.3108
 3331TIP3    H231485   1.145   2.931   2.863  0.1098  1.4777 -0.0311
 3332TIP3   OH231486   5.812   6.142  16.566 -0.3125  0.1328  0.2273
 3332TIP3    H131487   5.817   6.238  16.567 -1.9069  0.2806 -1.2650
 3332TIP3    H231488   5.718   6.123  16.568 -0.0615 -1.3586 -0.8841
 3333TIP3   OH231489   1.889   3.581   5.499  0.6408  0.3479 -0.4453
 3333TIP3    H131490   1.889   3.529   5.580  0.1957  0.5554 -0.3105
 3333TIP3    H231491   1.966   3.550   5.451  1.6184  1.0760  0.5976
 3334TIP3   OH231492   2.399   3.195   3.240  0.6259 -0.2930  0.2408
 3334TIP3    H131493   2.407   3.290   3.254 -0.0433  0.2311 -2.5018
 3334TIP3    H231494   2.451   3.177   3.162 -1.2395 -1.7644 -0.7309
 3335TIP3   OH231495   6.039   6.513   3.362 -0.0230 -0.1907  0.1787
 3335TIP3    H131496   6.084   6.429   3.366 -2.9028 -1.9794 -1.1981
 3335TIP3    H231497   6.059   6.546   3.274 -0.9640 -0.7800 -0.2744
 3336TIP3   OH231498   0.419   1.744  12.412 -0.3603  0.2853 -0.0432
 3336TIP3    H131499   0.341   1.790  12.381 -0.4232  0.4596  0.3636
 3336TIP3    H231500   0.417   1.756  12.507  0.5263  0.8704 -0.0912
 3337TIP3   OH231501   0.546   3.731  15.124 -0.1785  0.5700 -0.3845
 3337TIP3    H131502   0.631   3.710  15.086  0.6403 -1.3676  2.2134
 3337TIP3    H231503   0.550   3.825  15.141  1.5243  0.4752 -0.1469
 3338TIP3   OH231504   2.028   2.689   3.790 -1.0375  0.4652 -0.3079
 3338TIP3    H131505   2.063   2.644   3.713  0.2789  0.6115  0.1766
 3338TIP3    H231506   2.048   2.781   3.775 -1.7445  0.6324 -0.2721
 3339TIP3   OH231507   5.910   4.532  11.400 -0.4829  0.3902  0.7355
 3339TIP3    H131508   5.897   4.509  11.308 -1.9409 -0.8341  1.2042
 3339TIP3    H231509   5.834   4.587  11.421 -1.0701 -0.7493  1.6379
 3340TIP3   OH231510   0.422   1.997  16.213 -0.0431  0.5516  0.2780
 3340TIP3    H131511   0.346   2.035  16.258 -1.1323 -0.5006 -0.6064
 3340TIP3    H231512   0.450   2.065  16.153 -0.3840  0.8994  0.5036
 3341TIP3   OH231513   0.033   0.303   3.550  0.0048 -0.0833  0.1051
 3341TIP3    H131514   0.110   0.312   3.494  1.6121 -1.6307  1.9020
 3341TIP3    H231515  -0.022   0.240   3.504  0.7366 -0.4381 -0.3111
 3342TIP3   OH231516   6.247   5.392  17.111  0.3472  0.1987  0.1458
 3342TIP3    H131517   6.299   5.321  17.149  1.1663  1.1095  0.7440
 3342TIP3    H231518   6.270   5.390  17.018  2.2459  1.2098  0.5500
 3343TIP3   OH231519   4.241   2.237   4.542 -0.3898 -0.6719 -0.3133
 3343TIP3    H131520   4.239   2.293   4.465  1.4992 -0.6566 -0.4142
 3343TIP3    H231521   4.164   2.261   4.593 -0.0063  1.5224 -0.6921
 3344TIP3   OH231522   5.212   4.940  15.176 -0.4525 -0.4520 -0.9454
 3344TIP3    H131523   5.167   4.958  15.259 -0.8471  1.2189 -1.4872
 3344TIP3    H231524   5.150   4.886  15.127 -1.4818  1.0078 -1.2947
 3345TIP3   OH231525   3.993   6.191   3.879 -0.0196 -0.2621  0.4031
 3345TIP3    H131526   3.909   6.200   3.924  0.9019 -0.2988  2.2251
 3345TIP3    H231527   4.049   6.258   3.919  1.1262 -0.9384 -0.0053
 3346TIP3   OH231528   3.579   6.177  14.677 -0.3066 -0.0969  0.0790
 3346TIP3    H131529   3.595   6.224  14.759 -0.1211 -1.5767  0.9306
 3346TIP3    H231530   3.504   6.222  14.638 -0.2484  0.7899  0.9433
 3347TIP3   OH231531   6.668   0.640  14.722 -0.0380 -0.6970 -0.3171
 3347TIP3    H131532   6.636   0.672  14.638 -0.1090 -1.0758 -0.4374
 3347TIP3    H231533   6.742   0.697  14.743 -0.4824 -0.1209 -0.2721
 3348TIP3   OH231534   6.211   5.999  15.279 -0.7138  0.3993 -0.1975
 3348TIP3    H131535   6.274   5.956  15.220 -0.1460 -0.0567  0.7124
 3348TIP3    H231536   6.261   6.071  15.317 -0.8628  0.2686  0.2416
 3349TIP3   OH231537   2.531   0.634   3.434  0.1896 -0.3024 -0.5491
 3349TIP3    H131538   2.440   0.655   3.456  0.4610  0.3785 -0.0482
 3349TIP3    H231539   2.558   0.573   3.502  0.7012  1.0004  0.4667
 3350TIP3   OH231540   6.476   0.558  14.274  0.0275  0.3615  0.0361
 3350TIP3    H131541   6.540   0.491  14.249 -1.4328 -0.7432 -0.9202
 3350TIP3    H231542   6.395   0.510  14.287 -0.8122  1.8298  0.4196
 3351TIP3   OH231543   4.573   3.671   0.618  0.3054  1.0391  0.4281
 3351TIP3    H131544   4.508   3.714   0.674  0.8536  1.7051  0.5710
 3351TIP3    H231545   4.652   3.724   0.629  0.5776  0.8467 -0.5450
 3352TIP3   OH231546   4.565   5.809  17.137  0.1370  0.5334  0.4912
 3352TIP3    H131547   4.471   5.823  17.145 -0.1619 -0.5481 -0.7683
 3352TIP3    H231548   4.604   5.895  17.153 -0.9282  0.6864  2.6452
 3353TIP3   OH231549   2.363   1.431   4.599 -0.2092  0.0331  0.4695
 3353TIP3    H131550   2.452   1.449   4.568 -0.4586  0.3047 -0.1059
 3353TIP3    H231551   2.306   1.461   4.527 -0.6731 -2.7132 -0.4506
 3354TIP3   OH231552   4.418   4.221  16.126  0.5278  0.1962  0.7162
 3354TIP3    H131553   4.412   4.291  16.191 -0.4252  1.8355 -1.0285
 3354TIP3    H231554   4.510   4.197  16.123  0.8668  1.3801  1.3622
 3355TIP3   OH231555   0.697   6.066  14.834  0.0404 -0.9873  0.3252
 3355TIP3    H131556   0.706   6.027  14.747  0.5466  1.2223 -0.6754
 3355TIP3    H231557   0.711   5.993  14.895 -0.8414 -2.6882 -1.4095
 3356TIP3   OH231558   0.361   2.497   5.414  0.9824  0.3712 -0.5107
 3356TIP3    H131559   0.374   2.590   5.434 -0.4445  0.4592  0.1319
 3356TIP3    H231560   0.450   2.460   5.411  1.4899  1.2952  1.4904
 3357TIP3   OH231561   6.636   4.731   5.487 -0.3381 -0.0684 -0.3330
 3357TIP3    H131562   6.580   4.688   5.552  0.0098 -0.8174 -0.5136
 3357TIP3    H231563   6.670   4.809   5.532 -2.4307  1.0567 -0.6026
 3358TIP3   OH231564   2.076   0.534   0.500 -0.5070 -0.2506  0.6980
 3358TIP3    H131565   2.105   0.577   0.580 -0.0981 -1.1435  1.0352
 3358TIP3    H231566   2.021   0.462   0.530  0.5455 -1.2778  0.2404
 3359TIP3   OH231567   6.098   3.834   2.949 -0.1293 -0.0098 -0.2833
 3359TIP3    H131568   6.004   3.839   2.964 -0.2984 -2.3592 -0.1645
 3359TIP3    H231569   6.115   3.897   2.879 -1.9109 -0.0627 -0.8108
 3360TIP3   OH231570   1.108   0.315  13.824 -0.1832  0.4947  0.0452
 3360TIP3    H131571   1.179   0.348  13.880 -0.1397  2.4223 -1.0581
 3360TIP3    H231572   1.140   0.230  13.793  0.6070  0.2493  1.4112
 3361TIP3   OH231573   3.938   5.565   1.026  0.0063  0.1006 -0.6446
 3361TIP3    H131574   3.852   5.577   1.066 -0.3564  1.0852 -1.6807
 3361TIP3    H231575   3.964   5.476   1.052 -0.8628  0.1678  0.5145
 3362TIP3   OH231576   3.517   1.049   5.908 -0.1360 -0.2094  0.3567
 3362TIP3    H131577   3.600   1.096   5.908  1.3498 -2.6378 -0.6319
 3362TIP3    H231578   3.511   1.011   5.996 -0.0369 -0.2700  0.3377
 3363TIP3   OH231579   1.242   0.944   2.667 -0.3340 -0.7987  0.5123
 3363TIP3    H131580   1.210   0.863   2.626  0.4241 -0.8895  0.0800
 3363TIP3    H231581   1.308   0.977   2.606 -0.1206 -0.2383  1.0383
 3364TIP3   OH231582   4.339   0.681  11.217  0.6766  0.0078  0.0684
 3364TIP3    H131583   4.339   0.595  11.259  0.4533 -0.1337 -0.2168
 3364TIP3    H231584   4.265   0.678  11.157  0.4532  0.5247  0.3105
 3365TIP3   OH231585   5.224   0.975  14.278  0.3815 -0.6651  0.7268
 3365TIP3    H131586   5.199   1.066  14.296  0.5222 -0.4149 -0.3127
 3365TIP3    H231587   5.220   0.967  14.183 -1.3624 -2.2462  0.8721
 3366TIP3   OH231588   4.479   3.698  13.722  0.0712  0.5574 -0.0816
 3366TIP3    H131589   4.404   3.639  13.730 -0.2342  1.0911  1.0450
 3366TIP3    H231590   4.510   3.684  13.632 -0.1338 -1.1426  0.0833
 3367TIP3   OH231591   0.355   2.709   0.389  0.2090  0.2238 -0.0221
 3367TIP3    H131592   0.353   2.650   0.313 -0.8275  1.2589 -0.8398
 3367TIP3    H231593   0.270   2.695   0.432  0.5735  0.0348  0.6490
 3368TIP3   OH231594   5.554   0.957   1.699 -0.3982  0.1724  0.2368
 3368TIP3    H131595   5.510   0.982   1.618 -0.9631  0.3602  0.5883
 3368TIP3    H231596   5.640   0.926   1.672 -0.4763  0.5020 -0.4060
 3369TIP3   OH231597   1.962   5.184  17.432  0.1217 -0.7286  0.5436
 3369TIP3    H131598   1.903   5.178  17.507 -0.7451 -0.1291 -0.0706
 3369TIP3    H231599   1.982   5.277  17.425  0.4298 -0.8183  0.2017
 3370TIP3   OH231600   0.499   4.813   4.556  0.1453 -0.3072 -0.1090
 3370TIP3    H131601   0.585   4.837   4.521  1.0944 -1.6339  1.1855
 3370TIP3    H231602   0.438   4.833   4.485  1.4678  0.9463 -0.9566
 3371TIP3   OH231603   2.381   2.230  14.725  0.0230  0.8649 -0.1264
 3371TIP3    H131604   2.430   2.176  14.788  0.8201  0.4355 -1.0793
 3371TIP3    H231605   2.290   2.226  14.755  0.6392  2.3227  2.1391
 3372TIP3   OH231606   0.979   2.450  12.314  0.0362  0.1768 -0.1054
 3372TIP3    H131607   1.050   2.414  12.261 -1.7749  0.2120 -2.7468
 3372TIP3    H231608   0.915   2.379  12.321 -0.9594  1.0210 -0.3104
 3373TIP3   OH231609   1.394   2.637  12.916 -0.4239 -0.3509 -0.0360
 3373TIP3    H131610   1.478   2.677  12.893 -1.0792 -0.1551 -2.2778
 3373TIP3    H231611   1.366   2.684  12.994  1.4348 -0.2924  0.6514
 3374TIP3   OH231612   1.046   1.189  12.587  0.2736  0.1073  0.5352
 3374TIP3    H131613   1.022   1.208  12.496  1.0670  0.8305  0.4552
 3374TIP3    H231614   0.963   1.187  12.634 -0.0416  1.3854  0.0749
 3375TIP3   OH231615   6.120   5.755  15.717 -1.0353 -0.1204 -0.5296
 3375TIP3    H131616   6.119   5.761  15.622  0.2182 -0.3157 -0.5787
 3375TIP3    H231617   6.050   5.694  15.739 -1.6633  0.3136 -1.2881
 3376TIP3   OH231618   2.624   6.642   5.215 -0.0540 -0.0098 -0.2366
 3376TIP3    H131619   2.715   6.616   5.202  0.6527  1.9011  0.6069
 3376TIP3    H231620   2.573   6.575   5.169  1.7624 -1.1089 -0.7283
 3377TIP3   OH231621   6.637   2.930  13.799  0.6544  0.0172 -0.4227
 3377TIP3    H131622   6.651   3.022  13.821  1.2392  0.2017 -1.4580
 3377TIP3    H231623   6.559   2.904  13.849  2.8821 -0.1829  3.2850
 3378TIP3   OH231624   1.357   3.232   2.901 -0.3010  0.0560 -0.2478
 3378TIP3    H131625   1.435   3.281   2.873  1.6013 -2.4250  0.3818
 3378TIP3    H231626   1.324   3.192   2.821  0.6493 -0.9601 -0.1520
 3379TIP3   OH231627   5.704   5.940   2.901 -0.6360 -0.2606  0.2230
 3379TIP3    H131628   5.700   5.976   2.813 -0.8823 -2.4459 -0.7265
 3379TIP3    H231629   5.655   5.858   2.896  0.1855 -0.9282  2.1329
 3380TIP3   OH231630   1.210   3.979  13.616 -0.9567 -0.3135 -0.2076
 3380TIP3    H131631   1.181   3.887  13.613 -1.5362 -0.1219 -0.5860
 3380TIP3    H231632   1.166   4.020  13.542 -0.7541  0.2912  0.0066
 3381TIP3   OH231633   1.139   5.880   4.191  0.1772 -0.0009  0.0536
 3381TIP3    H131634   1.216   5.860   4.244 -0.9634  0.1076  1.8496
 3381TIP3    H231635   1.170   5.945   4.128  1.9902 -1.3848 -0.5815
 3382TIP3   OH231636   3.056   4.597  15.696  0.3018 -0.4379  0.3822
 3382TIP3    H131637   3.024   4.687  15.703  0.6613 -0.3554  1.0954
 3382TIP3    H231638   3.032   4.557  15.779  2.3542 -0.2554  1.1264
 3383TIP3   OH231639   0.801   6.670   1.754 -0.3383  0.2524 -0.0398
 3383TIP3    H131640   0.784   6.620   1.674  2.8728 -0.9001 -0.1730
 3383TIP3    H231641   0.891   6.701   1.743 -1.3865  4.2785  1.0566
 3384TIP3   OH231642   2.267   2.043   3.034 -0.1040  0.0637 -0.0144
 3384TIP3    H131643   2.278   1.949   3.018  1.0041  0.2889 -0.6904
 3384TIP3    H231644   2.351   2.071   3.071 -0.6224  0.6909  0.7144
 3385TIP3   OH231645   4.265   3.061  11.399 -0.1690 -0.3798 -0.1415
 3385TIP3    H131646   4.193   3.037  11.458 -0.6650  1.3602  0.0351
 3385TIP3    H231647   4.250   3.154  11.381  0.8641 -0.5007 -1.7840
 3386TIP3   OH231648   2.724   6.524   0.213  0.0313  0.1924 -0.1063
 3386TIP3    H131649   2.781   6.596   0.182  1.4276  0.2118  2.2817
 3386TIP3    H231650   2.692   6.554   0.298 -0.7824 -1.2994  0.1328
 3387TIP3   OH231651   6.316   6.513   0.850  0.0029 -0.2735 -0.2036
 3387TIP3    H131652   6.359   6.598   0.836  2.5938 -1.6002 -1.0270
 3387TIP3    H231653   6.384   6.458   0.888 -1.4764 -2.1161 -0.0830
 3388TIP3   OH231654   1.713   4.202  16.174 -0.1404  0.0285 -0.0542
 3388TIP3    H131655   1.748   4.113  16.184 -1.5307 -0.5364 -0.0537
 3388TIP3    H231656   1.641   4.207  16.236  0.5001  1.4969  0.6185
 3389TIP3   OH231657   0.144   0.106  11.015  0.1801  0.2197 -0.0580
 3389TIP3    H131658   0.094   0.036  11.057 -0.1673  0.7427  0.4092
 3389TIP3    H231659   0.084   0.180  11.011  0.8767  0.8229  0.4015
 3390TIP3   OH231660   4.186   5.195   2.139  0.5233  0.3284 -0.2727
 3390TIP3    H131661   4.269   5.198   2.186  0.6984 -1.9981 -0.2994
 3390TIP3    H231662   4.134   5.130   2.186 -0.7734  0.7567 -1.0526
 3391TIP3   OH231663   2.659   1.072   6.022  0.2714 -0.3233  0.3424
 3391TIP3    H131664   2.656   1.024   5.939 -1.4962 -0.5153  0.4769
 3391TIP3    H231665   2.741   1.043   6.063  0.1495 -1.8355 -0.3989
 3392TIP3   OH231666   3.783   6.726   2.391  0.0247  0.2030 -1.1395
 3392TIP3    H131667   3.863   6.779   2.387  2.6144 -3.0661  1.5624
 3392TIP3    H231668   3.750   6.739   2.479 -0.8382 -0.6128 -1.3288
 3393TIP3   OH231669   5.330   4.607  16.207 -0.2485 -0.0778  0.3542
 3393TIP3    H131670   5.270   4.551  16.254 -0.2285  1.1060  1.8681
 3393TIP3    H231671   5.368   4.664  16.274  1.7498 -0.0539 -0.7043
 3394TIP3   OH231672   1.406   3.623   2.577 -0.0243 -0.1689  0.0484
 3394TIP3    H131673   1.427   3.658   2.664  0.1808 -0.5932  0.1716
 3394TIP3    H231674   1.341   3.684   2.542  0.1566  0.2061  0.3538
 3395TIP3   OH231675   3.591   1.687   1.818 -0.2479  0.1074  0.4622
 3395TIP3    H131676   3.603   1.645   1.903 -1.0294  1.7466  1.4082
 3395TIP3    H231677   3.534   1.761   1.835  0.1208  0.8654 -1.3839
 3396TIP3   OH231678   1.247   5.160  14.494 -0.3022  0.5663  0.0247
 3396TIP3    H131679   1.224   5.211  14.417  1.5922  1.5751  0.0566
 3396TIP3    H231680   1.289   5.224  14.553 -0.3352 -0.4852  1.2343
 3397TIP3   OH231681   0.371   2.210   1.306  0.6059  0.3570 -0.8152
 3397TIP3    H131682   0.344   2.128   1.348  0.2532  0.4887 -0.7834
 3397TIP3    H231683   0.291   2.243   1.264  0.4183  1.3613  0.2816
 3398TIP3   OH231684   0.916   2.029   1.061 -0.8331  0.6764 -0.0718
 3398TIP3    H131685   1.006   2.053   1.041 -1.4595  3.1336 -0.3145
 3398TIP3    H231686   0.910   2.034   1.156 -0.4459 -0.7115  0.0473
 3399TIP3   OH231687   6.245   5.266   6.167 -0.2307 -0.3878  0.1933
 3399TIP3    H131688   6.228   5.234   6.255 -0.5608  0.1436  0.3306
 3399TIP3    H231689   6.181   5.336   6.155  1.5856  1.4338  0.5856
 3400TIP3   OH231690   6.207   3.279  12.254  0.5980  0.7749 -0.7150
 3400TIP3    H131691   6.295   3.270  12.292 -0.0386 -0.4036  0.5846
 3400TIP3    H231692   6.148   3.265  12.328 -0.7006  1.0022 -1.6775
 3401TIP3   OH231693   5.547   2.177   1.888  0.2356 -0.1503  0.5012
 3401TIP3    H131694   5.616   2.128   1.843 -1.8122 -1.4128 -1.4920
 3401TIP3    H231695   5.525   2.123   1.964 -1.1515 -1.8116 -1.0016
 3402TIP3   OH231696   3.283   6.425  17.528  0.3975 -0.2821 -0.3212
 3402TIP3    H131697   3.333   6.464  17.457  0.2603  0.2489 -0.1258
 3402TIP3    H231698   3.250   6.499  17.579 -1.1389 -0.5872 -0.8101
 3403TIP3   OH231699   6.542   6.564   1.675 -0.0024 -0.1324  0.2323
 3403TIP3    H131700   6.619   6.601   1.633  2.0608 -0.8733  3.1083
 3403TIP3    H231701   6.558   6.574   1.768 -2.0871 -2.8761  1.0043
 3404TIP3   OH231702   2.024   2.565  16.772 -0.4284 -0.0079  0.1531
 3404TIP3    H131703   2.109   2.532  16.744 -0.0737  0.7949  0.2545
 3404TIP3    H231704   1.963   2.539  16.703  0.1283  0.5063 -0.5360
 3405TIP3   OH231705   1.185   3.164   3.995  0.3613 -0.3943  0.2433
 3405TIP3    H131706   1.159   3.165   4.087 -3.4965 -1.8161 -0.6601
 3405TIP3    H231707   1.186   3.257   3.969 -2.5354 -0.1243  0.8326
 3406TIP3   OH231708   1.056   5.214  16.499  0.3908  0.8536 -0.2899
 3406TIP3    H131709   1.054   5.310  16.492  0.5649  0.7620 -2.2717
 3406TIP3    H231710   0.965   5.188  16.487  0.3289  0.7649  0.3493
 3407TIP3   OH231711   3.797   1.375  15.688  0.4873  0.2742  0.0209
 3407TIP3    H131712   3.738   1.431  15.738  0.3518  0.5109 -0.3965
 3407TIP3    H231713   3.840   1.320  15.754  1.0807  1.2893  0.4955
 3408TIP3   OH231714   2.262   6.113  12.319 -0.0652  0.5494 -0.7928
 3408TIP3    H131715   2.238   6.021  12.330 -0.7902  0.7394 -0.7384
 3408TIP3    H231716   2.186   6.152  12.276  0.2796  1.1011 -0.9012
 3409TIP3   OH231717   0.112   5.466   3.592 -0.1241  0.3303  0.7151
 3409TIP3    H131718   0.149   5.400   3.534 -2.0032  0.1221 -0.3294
 3409TIP3    H231719   0.188   5.512   3.628  1.1282 -0.1436 -1.2090
 3410TIP3   OH231720   4.275   6.093   0.974  0.5697 -0.4144  0.3803
 3410TIP3    H131721   4.346   6.105   0.910  1.2865  0.1362  1.2423
 3410TIP3    H231722   4.214   6.033   0.932  2.0162 -1.6581 -0.0265
 3411TIP3   OH231723   3.906   1.287  14.821  0.0057 -0.1800  0.6503
 3411TIP3    H131724   3.824   1.323  14.854  0.1591  1.2492 -0.4013
 3411TIP3    H231725   3.968   1.298  14.894 -0.6377 -1.0190  1.3512
 3412TIP3   OH231726   4.843   2.769  15.956  0.3429  0.7783 -0.3070
 3412TIP3    H131727   4.938   2.763  15.946  0.4477 -2.0478  1.2389
 3412TIP3    H231728   4.830   2.812  16.040  0.4209 -1.1328  0.7444
 3413TIP3   OH231729   0.470   1.476  12.655 -0.3547 -0.5432  0.5797
 3413TIP3    H131730   0.490   1.567  12.674  0.8740 -0.9197  1.2519
 3413TIP3    H231731   0.521   1.457  12.576  0.1877 -0.8971  1.0032
 3414TIP3   OH231732   2.993   4.652  15.107  0.3153  0.3809  0.2155
 3414TIP3    H131733   3.002   4.747  15.095 -0.3426  0.4492  0.2435
 3414TIP3    H231734   2.987   4.617  15.018  0.9634  0.3172  0.1900
 3415TIP3   OH231735   4.003   4.451  12.840 -0.1311  0.1718  0.2975
 3415TIP3    H131736   4.042   4.406  12.765 -0.7315  1.2257 -0.6880
 3415TIP3    H231737   3.914   4.417  12.845 -0.1168  0.1610  0.4738
 3416TIP3   OH231738   0.485   2.888   5.891  0.5826  0.0191 -0.0503
 3416TIP3    H131739   0.431   2.967   5.899 -0.7072 -0.8866  0.5990
 3416TIP3    H231740   0.473   2.859   5.801 -1.9126 -1.4137  0.6523
 3417TIP3   OH231741   6.061   1.906   0.026  0.5493  0.0137 -0.7040
 3417TIP3    H131742   6.078   1.924  -0.066  1.8470 -1.9484 -0.9251
 3417TIP3    H231743   5.966   1.914   0.035  0.4990  1.2569 -1.9364
 3418TIP3   OH231744   4.615   6.145  11.956 -0.2411 -0.4786  0.4845
 3418TIP3    H131745   4.701   6.123  11.991  0.2357 -0.4820 -0.6367
 3418TIP3    H231746   4.573   6.060  11.939  0.1071 -0.5064 -0.2941
 3419TIP3   OH231747   3.880   0.054  17.382  0.0996  0.3419 -0.4062
 3419TIP3    H131748   3.798   0.013  17.354 -0.2914  1.4667 -0.9760
 3419TIP3    H231749   3.931   0.064  17.302 -0.2291  1.8412 -0.4697
 3420TIP3   OH231750   2.156   4.263   1.297  0.1363 -0.4915 -0.5358
 3420TIP3    H131751   2.085   4.204   1.273  0.1958 -1.4797  1.5363
 3420TIP3    H231752   2.234   4.209   1.294  0.2926 -0.3581  0.6396
 3421TIP3   OH231753   5.161   5.720  12.243  0.1904  0.4871  0.6004
 3421TIP3    H131754   5.135   5.766  12.163  0.2699  0.3313  0.4833
 3421TIP3    H231755   5.153   5.628  12.221  2.6211  0.3518 -0.0923
 3422TIP3   OH231756   0.187   1.568  15.668 -0.0735  0.2684 -0.3481
 3422TIP3    H131757   0.246   1.563  15.743  0.3512  0.5597 -0.6567
 3422TIP3    H231758   0.232   1.519  15.599 -0.0790  0.6819 -0.6514
 3423TIP3   OH231759   0.656   1.084   3.674  0.2909  0.0683 -0.5101
 3423TIP3    H131760   0.717   1.064   3.745 -1.3687  1.8340  1.5624
 3423TIP3    H231761   0.634   0.999   3.636 -0.3253 -1.2284  2.4883
 3424TIP3   OH231762   1.923   3.972  15.529 -0.5652 -0.5661 -0.4531
 3424TIP3    H131763   1.942   4.039  15.594 -0.2259 -0.3056 -0.8139
 3424TIP3    H231764   1.847   3.924  15.564 -1.5288  0.7166 -0.7158
 3425TIP3   OH231765   4.629   0.354  12.230  0.1013 -0.5912 -0.5001
 3425TIP3    H131766   4.645   0.292  12.300  0.8524  0.4554  0.2806
 3425TIP3    H231767   4.573   0.421  12.269  1.7411  0.7911 -0.4301
 3426TIP3   OH231768   3.664   4.454  13.466  0.0506 -0.1565 -0.3058
 3426TIP3    H131769   3.585   4.480  13.419  0.3897  1.3950 -0.0663
 3426TIP3    H231770   3.722   4.530  13.459  0.0844  0.2327  2.6767
 3427TIP3   OH231771   3.965   6.613  12.044  0.0292  0.1544  0.0592
 3427TIP3    H131772   4.007   6.664  12.114 -0.2738 -2.5606  2.4192
 3427TIP3    H231773   4.031   6.608  11.975  1.0167  1.5526  0.8581
 3428TIP3   OH231774   4.887   3.596  13.859 -0.3330 -0.5382  0.2541
 3428TIP3    H131775   4.872   3.669  13.918 -1.2177 -0.1083 -0.4927
 3428TIP3    H231776   4.815   3.535  13.876  0.9560 -1.7610  1.6171
 3429TIP3   OH231777   5.596   4.403   3.042  0.5463  0.3014  0.0379
 3429TIP3    H131778   5.675   4.375   3.088 -1.1465 -2.7628  1.4074
 3429TIP3    H231779   5.591   4.345   2.966 -0.7526 -0.1236  0.4156
 3430TIP3   OH231780   1.103   2.777   0.542  0.1258  0.5143  0.2073
 3430TIP3    H131781   1.179   2.718   0.543  0.9605  1.5662  0.5559
 3430TIP3    H231782   1.097   2.807   0.452  1.4092  1.9988  0.5685
 3431TIP3   OH231783   4.136   5.401   0.159  0.0966  0.0683  0.3015
 3431TIP3    H131784   4.084   5.394   0.078  1.6184  2.6729 -1.0124
 3431TIP3    H231785   4.162   5.310   0.178 -1.9691 -0.8602 -0.9550
 3432TIP3   OH231786   3.868   3.003  16.612  0.1763 -0.3321 -0.5706
 3432TIP3    H131787   3.779   2.977  16.633  0.7189 -1.7625  0.0437
 3432TIP3    H231788   3.923   2.956  16.674  1.4216 -0.0379 -1.4009
 3433TIP3   OH231789   5.517   6.058  11.716  0.0847 -0.3929 -0.4831
 3433TIP3    H131790   5.441   6.002  11.733 -1.0035  1.2406  0.2569
 3433TIP3    H231791   5.579   6.035  11.784 -0.9492  0.3110  0.7359
 3434TIP3   OH231792   5.210   4.856   1.786  0.4835 -0.0854  0.3210
 3434TIP3    H131793   5.192   4.768   1.817 -0.8607  0.4439  1.1544
 3434TIP3    H231794   5.123   4.895   1.772  0.9941  0.1212 -3.0908
 3435TIP3   OH231795   5.132   0.006  15.248  0.2955 -0.4547 -0.1867
 3435TIP3    H131796   5.081  -0.027  15.175 -0.1704  0.1954 -0.1689
 3435TIP3    H231797   5.171   0.087  15.216 -0.8373  0.4509  0.6111
 3436TIP3   OH231798   1.713   5.498  11.601 -0.3991 -0.8257  0.0558
 3436TIP3    H131799   1.798   5.455  11.606  0.6932  1.3433  2.0706
 3436TIP3    H231800   1.669   5.472  11.683 -0.3829  0.5426  0.5118
 3437TIP3   OH231801   2.338   1.537   4.019 -0.1434 -0.2702 -0.1815
 3437TIP3    H131802   2.268   1.504   4.076  1.1254  0.4320  1.9109
 3437TIP3    H231803   2.374   1.612   4.067  0.5269  0.8347 -2.3130
 3438TIP3   OH231804   4.841   4.043  12.770  0.1077  0.2129  0.2402
 3438TIP3    H131805   4.750   4.036  12.800  0.4088  0.6016  1.2944
 3438TIP3    H231806   4.834   4.072  12.679 -0.8299 -0.1938  0.1714
 3439TIP3   OH231807   3.828   2.050  14.956  0.1725 -0.0290  0.6319
 3439TIP3    H131808   3.845   2.114  14.888 -0.1740  0.3852  0.9294
 3439TIP3    H231809   3.902   1.989  14.952  0.3325  0.1982  0.1315
 3440TIP3   OH231810   0.857   6.571  15.719 -0.3338  0.7932  0.5960
 3440TIP3    H131811   0.900   6.503  15.771  0.2283  1.7000  1.3485
 3440TIP3    H231812   0.800   6.618  15.781  0.2283  1.7883  0.3904
 3441TIP3   OH231813   5.184   6.567   3.222 -0.6375 -0.0145  0.2148
 3441TIP3    H131814   5.236   6.489   3.200 -1.2680 -0.7040  1.0802
 3441TIP3    H231815   5.210   6.632   3.157 -0.2950 -1.0306 -0.7027
 3442TIP3   OH231816   1.273   1.744  17.646  0.4028 -0.5726 -0.1897
 3442TIP3    H131817   1.328   1.770  17.720  0.0638 -1.9398  0.5890
 3442TIP3    H231818   1.257   1.825  17.597 -0.6646  0.6953  2.0947
 3443TIP3   OH231819   5.325   6.387  16.109 -0.2773 -0.9178  0.0411
 3443TIP3    H131820   5.420   6.396  16.105 -0.4209  0.4948 -0.7764
 3443TIP3    H231821   5.310   6.317  16.173  1.3214 -1.7824 -0.4833
 3444TIP3   OH231822   2.690   1.586   1.559  0.6964 -0.0160 -0.3246
 3444TIP3    H131823   2.645   1.526   1.501  0.9989  0.0142 -0.5946
 3444TIP3    H231824   2.783   1.572   1.541  0.7600  0.9393 -0.8154
 3445TIP3   OH231825   5.221   3.203   1.768  0.3299  0.0228  0.4848
 3445TIP3    H131826   5.204   3.287   1.724  0.7390  0.4026  1.0252
 3445TIP3    H231827   5.147   3.147   1.743 -0.6104  0.9421  1.0951
 3446TIP3   OH231828   5.267   4.629   4.743  0.0978  0.5198  0.1244
 3446TIP3    H131829   5.198   4.568   4.715  0.6475 -0.6711  1.2457
 3446TIP3    H231830   5.299   4.668   4.662 -0.8107 -0.1094 -0.5597
 3447TIP3   OH231831   5.763   6.089  15.401 -0.0078  0.0397  0.0336
 3447TIP3    H131832   5.806   6.152  15.459  0.5732 -0.2895 -0.0299
 3447TIP3    H231833   5.747   6.013  15.457 -2.0805  0.7505  0.5256
 3448TIP3   OH231834   3.513   0.635  15.469  0.1059  0.0237  0.2050
 3448TIP3    H131835   3.487   0.567  15.531 -1.6277  0.3088 -0.1525
 3448TIP3    H231836   3.507   0.592  15.383  0.1700  0.2834  0.0703
 3449TIP3   OH231837   2.041   1.730   1.957 -0.1818  0.3619 -0.1135
 3449TIP3    H131838   1.946   1.724   1.969 -0.3032  0.3083 -1.0304
 3449TIP3    H231839   2.066   1.645   1.922  0.1848  0.4448 -0.0608
 3450TIP3   OH231840   6.610   6.091  17.173  0.0916  0.3032 -0.1267
 3450TIP3    H131841   6.552   6.164  17.151  0.5609  1.1475  1.2813
 3450TIP3    H231842   6.573   6.016  17.128 -0.9311  1.2345 -0.8781
 3451TIP3   OH231843   5.500   4.679   1.978 -0.1613  0.6236 -0.5118
 3451TIP3    H131844   5.440   4.752   1.995  0.2524  1.3413 -1.9459
 3451TIP3    H231845   5.575   4.720   1.935  0.6261 -0.4996 -0.2563
 3452TIP3   OH231846   0.351   1.148  13.292 -0.8819 -0.2674  0.3761
 3452TIP3    H131847   0.324   1.124  13.380  0.4801 -1.5665  0.4812
 3452TIP3    H231848   0.434   1.102  13.279 -1.8341 -1.4832 -2.1757
 3453TIP3   OH231849   1.855   4.466  15.185 -0.1391 -0.0338 -0.2104
 3453TIP3    H131850   1.892   4.551  15.160  0.5052 -0.4961 -0.8877
 3453TIP3    H231851   1.896   4.404  15.124 -0.4763 -0.8487  0.3820
 3454TIP3   OH231852   5.601   1.288   0.864  0.1293 -0.4446  0.6114
 3454TIP3    H131853   5.611   1.211   0.808 -1.2562  0.7297 -1.4031
 3454TIP3    H231854   5.669   1.279   0.930  1.0659 -2.5571 -0.5410
 3455TIP3   OH231855   5.293   4.004  12.159 -0.6068 -0.1114  0.1133
 3455TIP3    H131856   5.257   4.085  12.121 -1.8624 -0.0468  1.3429
 3455TIP3    H231857   5.387   4.021  12.168 -1.0031  1.7316  1.4625
 3456TIP3   OH231858   3.118   0.960  16.403  0.1958  0.1482 -0.2817
 3456TIP3    H131859   3.186   0.893  16.409 -0.9228 -1.1290 -1.1975
 3456TIP3    H231860   3.134   1.017  16.478  0.3789 -1.9108  1.3503
 3457TIP3   OH231861   0.431   3.059   6.403 -0.4066  0.1016  0.3058
 3457TIP3    H131862   0.497   3.051   6.472 -0.0841 -1.4083 -0.1315
 3457TIP3    H231863   0.411   2.968   6.379 -1.4066  0.5754 -0.7420
 3458TIP3   OH231864   5.030   0.107   3.982 -0.9700  0.4709 -0.0717
 3458TIP3    H131865   5.011   0.061   4.064  2.2146  0.3327  0.7160
 3458TIP3    H231866   5.058   0.194   4.010  0.0378  0.4630 -1.0094
 3459TIP3   OH231867   1.081   0.945   3.471  0.0273 -0.1726  0.3165
 3459TIP3    H131868   1.143   0.949   3.398  0.5738 -1.1657  0.7104
 3459TIP3    H231869   1.036   0.862   3.459 -0.0043 -0.2589  1.0159
 3460TIP3   OH231870   0.155   4.716  13.013  0.3420 -0.0969  0.2848
 3460TIP3    H131871   0.183   4.775  12.943  0.2288 -0.5804 -0.1714
 3460TIP3    H231872   0.212   4.738  13.087  0.1582  0.7300  0.1902
 3461TIP3   OH231873   3.296   0.301  17.136  0.3829  0.1824 -0.1873
 3461TIP3    H131874   3.231   0.370  17.122 -0.6548 -0.6485  0.3776
 3461TIP3    H231875   3.334   0.287  17.049 -1.1037 -0.1921 -0.8071
 3462TIP3   OH231876   2.502   3.160   2.762  0.0375  0.5126 -0.4732
 3462TIP3    H131877   2.580   3.159   2.707  0.7814 -1.0196  0.5402
 3462TIP3    H231878   2.535   3.183   2.849 -0.7113  0.2607 -0.1162
 3463TIP3   OH231879   6.640   2.839   4.438 -0.3148  0.0342  0.3321
 3463TIP3    H131880   6.626   2.755   4.395 -0.5268  0.1827  0.1013
 3463TIP3    H231881   6.723   2.830   4.485 -1.1932 -0.8920  1.7693
 3464TIP3   OH231882   1.859   3.338  16.001  0.9051  0.2548 -0.2295
 3464TIP3    H131883   1.949   3.306  16.007  1.0561  0.2194 -2.0820
 3464TIP3    H231884   1.819   3.284  15.932 -0.0863  1.2530 -0.4627
 3465TIP3   OH231885   2.976   6.096  13.486 -0.0466  0.2631 -0.0556
 3465TIP3    H131886   2.991   6.055  13.572 -1.1156 -1.2054 -0.5330
 3465TIP3    H231887   2.885   6.124  13.488  0.3668  1.6632 -0.1541
 3466TIP3   OH231888   1.573   2.123  17.649 -0.0820 -0.0479  0.3021
 3466TIP3    H131889   1.608   2.174  17.722 -0.9233  2.5491 -0.9910
 3466TIP3    H231890   1.483   2.103  17.674  0.1571 -0.6881  0.6811
 3467TIP3   OH231891   4.826   5.840  16.752  0.2803 -0.5506  0.0957
 3467TIP3    H131892   4.743   5.841  16.705 -0.8805 -0.1796  2.0386
 3467TIP3    H231893   4.892   5.826  16.684 -1.5201 -3.7670 -1.2368
 3468TIP3   OH231894   4.009   5.619  14.556  0.1175 -0.1242  0.5322
 3468TIP3    H131895   3.967   5.619  14.642 -0.2493  0.9925  0.3779
 3468TIP3    H231896   3.996   5.709  14.524  0.2856 -0.5128 -0.6653
 3469TIP3   OH231897   0.222   3.877   3.010 -0.2715  0.0471 -0.1518
 3469TIP3    H131898   0.299   3.866   3.066 -0.2681  1.6421  0.2074
 3469TIP3    H231899   0.179   3.792   3.012  0.7121 -0.4535  0.8204
 3470TIP3   OH231900   4.201   3.409  14.431  0.0420  0.1874 -0.4594
 3470TIP3    H131901   4.287   3.449  14.420 -0.4393  1.3574 -0.1049
 3470TIP3    H231902   4.184   3.365  14.348  0.8504  0.1856 -0.6318
 3471TIP3   OH231903   3.509   6.210   0.814  0.5412  0.3121  0.9265
 3471TIP3    H131904   3.455   6.236   0.739 -0.2823  0.4255  1.5492
 3471TIP3    H231905   3.599   6.215   0.781  0.1272 -1.6041 -0.6835
 3472TIP3   OH231906   4.427   4.945   2.829  0.1991 -0.4461 -1.0635
 3472TIP3    H131907   4.491   4.954   2.900 -1.3899 -1.3749  0.5631
 3472TIP3    H231908   4.470   4.985   2.753  1.8253  0.9167  0.4809
 3473TIP3   OH231909   1.202   4.383   4.021 -0.5147  0.2928  0.1268
 3473TIP3    H131910   1.227   4.349   4.107  0.2017  0.9597  0.1874
 3473TIP3    H231911   1.111   4.354   4.010 -0.6237  0.2209  1.1109
 3474TIP3   OH231912   6.498   1.973  16.626 -0.3818 -0.4693 -0.1164
 3474TIP3    H131913   6.456   2.054  16.596 -0.3981 -0.7255 -0.8064
 3474TIP3    H231914   6.444   1.943  16.698 -0.0000  0.4854  0.5934
 3475TIP3   OH231915   1.695   4.080  13.333  0.0666  0.0102  0.4059
 3475TIP3    H131916   1.740   4.000  13.361  1.6948  1.1018  1.0783
 3475TIP3    H231917   1.724   4.093  13.242 -0.5395 -0.3741  0.1510
 3476TIP3   OH231918   1.803   5.529   0.501  0.8867  0.1776 -0.0270
 3476TIP3    H131919   1.766   5.604   0.547  0.5251  0.0293 -0.0699
 3476TIP3    H231920   1.870   5.494   0.561 -2.7465 -2.9396  2.7447
 3477TIP3   OH231921   1.573   5.470   2.339 -0.0459  0.1750  0.2137
 3477TIP3    H131922   1.574   5.532   2.266  1.8996  1.1009  0.9566
 3477TIP3    H231923   1.480   5.448   2.350 -0.7330  2.3653 -0.5734
 3478TIP3   OH231924   1.960   6.564  11.450  0.2545  0.0080  0.4920
 3478TIP3    H131925   2.002   6.644  11.479  0.8071 -0.2087  0.2956
 3478TIP3    H231926   2.003   6.494  11.499 -1.9140  0.0022  2.5698
 3479TIP3   OH231927   5.513   4.473  13.948  0.1330 -0.3011  0.1618
 3479TIP3    H131928   5.561   4.390  13.951 -1.2923 -1.2032 -0.6856
 3479TIP3    H231929   5.499   4.496  14.040  0.7235 -0.8939  0.4031
 3480TIP3   OH231930   0.323   0.831   2.459  0.5586  0.3376 -0.4270
 3480TIP3    H131931   0.375   0.894   2.509 -0.7738  1.2681 -0.1693
 3480TIP3    H231932   0.331   0.861   2.369  0.2854  0.6112 -0.3602
 3481TIP3   OH231933   3.281   3.779   4.311 -0.5517 -0.1473  0.2984
 3481TIP3    H131934   3.206   3.724   4.333 -0.0959 -1.0408 -0.3052
 3481TIP3    H231935   3.356   3.719   4.309  0.2630  0.7942  1.2773
 3482TIP3   OH231936   1.467   3.664  10.722 -0.4880  0.9215 -0.6652
 3482TIP3    H131937   1.455   3.593  10.785  0.0446  0.0548 -1.5195
 3482TIP3    H231938   1.379   3.678  10.686 -1.1216  2.4499  1.2822
 3483TIP3   OH231939   4.398   2.873   1.966 -0.4049 -0.0641  0.1100
 3483TIP3    H131940   4.357   2.940   1.911  0.3122  0.0734 -0.2660
 3483TIP3    H231941   4.339   2.797   1.959 -0.9145  0.3334  0.0729
 3484TIP3   OH231942   3.362   0.974  12.848 -0.2149  0.4665  0.1045
 3484TIP3    H131943   3.292   0.909  12.846  0.2309 -0.0016 -1.7032
 3484TIP3    H231944   3.382   0.985  12.941  0.2174 -2.5504  0.4637
 3485TIP3   OH231945   2.534   2.206   1.433  0.0743 -0.4088  0.3645
 3485TIP3    H131946   2.541   2.295   1.399  2.6300 -0.8987 -0.6206
 3485TIP3    H231947   2.440   2.187   1.433 -0.3274  0.9527 -2.9871
 3486TIP3   OH231948   0.847   4.207  12.998 -0.1329 -0.0852 -0.3646
 3486TIP3    H131949   0.847   4.260  12.918 -1.3250  0.1854 -0.1969
 3486TIP3    H231950   0.764   4.227  13.041  0.8237  0.3633  1.3696
 3487TIP3   OH231951   5.831   2.441   0.051 -0.2709 -0.5717  0.2316
 3487TIP3    H131952   5.894   2.394   0.106 -1.8823 -1.9103  1.0289
 3487TIP3    H231953   5.777   2.372   0.013 -1.2883  0.5358 -0.3720
 3488TIP3   OH231954   2.636   5.754  12.922 -0.2927 -0.7769  0.0547
 3488TIP3    H131955   2.578   5.758  12.847  1.1749 -0.2764 -1.1125
 3488TIP3    H231956   2.678   5.840  12.925  1.9491 -1.7825 -0.4967
 3489TIP3   OH231957   1.536   6.129   2.031  0.1309  0.5863 -0.1136
 3489TIP3    H131958   1.536   6.034   2.044 -0.5207  0.4497 -1.0389
 3489TIP3    H231959   1.549   6.141   1.937 -0.0341  1.4089 -0.0445
 3490TIP3   OH231960   3.462   6.723   5.443  0.3448 -0.4505 -0.2189
 3490TIP3    H131961   3.469   6.803   5.496 -0.3540 -2.1339  2.6041
 3490TIP3    H231962   3.392   6.672   5.484  2.0007 -3.3520 -0.6896
 3491TIP3   OH231963   5.130   0.907   3.180  0.1176  0.3347 -0.1269
 3491TIP3    H131964   5.166   0.860   3.105 -2.0110  0.2876 -1.1816
 3491TIP3    H231965   5.042   0.871   3.192  0.2006  0.7108  2.0901
 3492TIP3   OH231966   1.045   6.410  12.755  0.1399 -0.3448  0.2950
 3492TIP3    H131967   1.026   6.317  12.766 -0.6040 -0.0121  2.1960
 3492TIP3    H231968   1.038   6.447  12.843 -1.6929  1.9009 -0.6725
 3493TIP3   OH231969   5.752   4.021   2.746 -0.4612  0.3977 -0.2689
 3493TIP3    H131970   5.774   3.988   2.832 -0.0188 -2.8050 -1.4828
 3493TIP3    H231971   5.821   3.987   2.689 -1.2898  1.5626 -2.0547
 3494TIP3   OH231972   0.092   4.624   0.090  0.2550  0.0320  0.2304
 3494TIP3    H131973   0.113   4.658   0.003 -0.3890 -0.4422 -0.1237
 3494TIP3    H231974   0.063   4.701   0.139 -1.2493  0.0190 -0.5815
 3495TIP3   OH231975   0.433   5.617   3.937 -0.1250 -0.1059 -0.1986
 3495TIP3    H131976   0.387   5.691   3.978  1.3020  1.6278 -1.5463
 3495TIP3    H231977   0.504   5.597   3.998 -0.2653 -0.0756 -0.0241
 3496TIP3   OH231978   1.821   0.884  10.741 -0.0696 -0.0905  0.7098
 3496TIP3    H131979   1.728   0.881  10.719  0.2146 -0.8549 -0.4847
 3496TIP3    H231980   1.828   0.836  10.823 -0.7944  0.4446  1.0941
 3497TIP3   OH231981   4.790   5.848   4.557 -0.3822  0.0567  0.3359
 3497TIP3    H131982   4.812   5.941   4.563  1.6663 -0.2705 -1.1823
 3497TIP3    H231983   4.866   5.804   4.594 -0.5376 -1.0613 -0.6511
 3498TIP3   OH231984   2.155   0.929   1.204  0.5973 -0.2101 -0.1656
 3498TIP3    H131985   2.200   1.012   1.193  0.5344 -0.3039 -1.1873
 3498TIP3    H231986   2.215   0.876   1.257  1.5538 -0.2191 -1.2205
 3499TIP3   OH231987   5.862   4.880   6.205 -0.0209  0.0515  0.6593
 3499TIP3    H131988   5.909   4.958   6.236 -1.0324  0.8945  0.1461
 3499TIP3    H231989   5.928   4.828   6.160  0.0970  2.1014 -1.7087
 3500TIP3   OH231990   5.717   2.529  12.730  0.4130 -0.4192 -0.1760
 3500TIP3    H131991   5.800   2.575  12.739 -0.5309  1.0445  2.0900
 3500TIP3    H231992   5.731   2.443  12.769  0.5905  0.2370  1.2369
 3501TIP3   OH231993   3.851   3.173   6.152 -0.4635 -0.0460  0.4394
 3501TIP3    H131994   3.882   3.216   6.232  1.0839  2.4508 -1.3787
 3501TIP3    H231995   3.761   3.204   6.142 -0.0145  1.2542  0.2082
 3502TIP3   OH231996   4.949   2.443  12.756  0.5654  0.0748  0.2605
 3502TIP3    H131997   5.022   2.462  12.815  1.0231 -1.4185  0.2266
 3502TIP3    H231998   4.985   2.379  12.694 -0.3413  0.4757 -0.7144
 3503TIP3   OH231999   1.248   5.458   1.998  0.1993  0.0895 -0.6271
 3503TIP3    H132000   1.252   5.408   1.916  1.4847 -3.7253  1.5224
 3503TIP3    H232001   1.176   5.418   2.047 -0.3094  2.0577  0.3296
 3504TIP3   OH232002   6.560   0.409  17.679  0.3777 -0.5238  0.2394
 3504TIP3    H132003   6.478   0.361  17.666  0.9394 -1.0986 -1.3136
 3504TIP3    H232004   6.541   0.498  17.650  0.5619 -0.8960 -1.0703
 3505TIP3   OH232005   4.383   4.632   5.110 -0.4714  0.0487 -0.5053
 3505TIP3    H132006   4.295   4.607   5.081 -1.9335  4.2152 -0.3885
 3505TIP3    H232007   4.370   4.665   5.199  0.2583  4.0955 -1.6622
 3506TIP3   OH232008   3.431   6.645  11.625 -0.2031 -1.0558 -0.2814
 3506TIP3    H132009   3.417   6.739  11.625 -0.6599 -1.1118  0.7177
 3506TIP3    H232010   3.382   6.613  11.549  1.9079 -0.2523 -2.0743
 3507TIP3   OH232011   5.023   4.012  11.317  0.1822  0.1753 -0.3362
 3507TIP3    H132012   5.029   4.096  11.362  0.0701  0.8738 -1.5715
 3507TIP3    H232013   4.995   3.951  11.384  0.4746  1.0778  0.6402
 3508TIP3   OH232014   3.682   0.691   4.642  0.0055  0.1554 -1.0018
 3508TIP3    H132015   3.679   0.600   4.671  3.2998  0.2800  0.1298
 3508TIP3    H232016   3.765   0.699   4.595 -0.6594  2.3794 -1.9669
 3509TIP3   OH232017   0.493   5.921  12.163  0.4815 -0.8442 -0.2494
 3509TIP3    H132018   0.564   5.927  12.098 -0.3431 -2.6108 -1.4063
 3509TIP3    H232019   0.502   5.833  12.200 -0.9773 -1.0518 -0.3131
 3510TIP3   OH232020   0.531   4.626   4.217  0.1209  0.7095  0.7105
 3510TIP3    H132021   0.464   4.557   4.223 -0.3598  1.0770 -0.2504
 3510TIP3    H232022   0.614   4.578   4.213 -0.2773  0.0850 -1.2599
 3511TIP3   OH232023   1.349   3.911   3.359 -0.6792  0.2263  0.2740
 3511TIP3    H132024   1.264   3.868   3.346 -0.7801  0.6667 -0.5861
 3511TIP3    H232025   1.403   3.878   3.287 -0.4888  0.8605  0.1238
 3512TIP3   OH232026   2.273   1.783   0.167  0.5723 -0.2236 -0.6882
 3512TIP3    H132027   2.178   1.798   0.171  0.4885 -0.6612 -1.0091
 3512TIP3    H232028   2.292   1.730   0.244  0.4524 -0.6820 -0.9723
 3513TIP3   OH232029   1.369   0.788  12.337  0.4285 -0.0100 -0.0687
 3513TIP3    H132030   1.416   0.805  12.255 -1.7302  0.7955 -1.2601
 3513TIP3    H232031   1.370   0.872  12.383  0.7337 -0.1739  0.2232
 3514TIP3   OH232032   0.340   4.474   6.937  0.1493  0.1100  0.1329
 3514TIP3    H132033   0.429   4.473   6.973  0.5072 -0.7785 -0.7423
 3514TIP3    H232034   0.349   4.518   6.853 -1.0643  4.2575  1.8945
 3515TIP3   OH232035   0.650   2.085   0.975  0.0861  0.2416 -0.1181
 3515TIP3    H132036   0.623   2.001   1.011 -0.8151  0.6866  0.2665
 3515TIP3    H232037   0.746   2.085   0.983  0.1605 -1.0813 -0.8947
 3516TIP3   OH232038   5.588   4.935  12.548 -0.0259 -0.3200  0.1411
 3516TIP3    H132039   5.494   4.921  12.565  0.2492 -1.3373  0.8963
 3516TIP3    H232040   5.604   4.891  12.465 -0.5158  1.1831 -0.8022
 3517TIP3   OH232041   2.721   4.376   3.282 -0.0747 -0.3122 -0.2356
 3517TIP3    H132042   2.756   4.359   3.369  0.2382  2.1149  0.1805
 3517TIP3    H232043   2.635   4.336   3.282  0.4531 -1.4839  0.7081
 3518TIP3   OH232044   5.442   0.978  15.728  0.0713  0.0361 -0.5622
 3518TIP3    H132045   5.442   0.995  15.823  1.3783 -2.4542 -0.0397
 3518TIP3    H232046   5.513   1.033  15.694  1.5873 -1.2126  0.4317
 3519TIP3   OH232047   0.431   6.668  12.127 -0.4004 -0.2694 -0.0850
 3519TIP3    H132048   0.522   6.677  12.155 -0.2379  0.7852 -0.9052
 3519TIP3    H232049   0.426   6.718  12.046 -2.2741  1.7085  1.1496
 3520TIP3   OH232050   4.576   1.579   6.591  0.1386  0.0173 -0.2703
 3520TIP3    H132051   4.668   1.605   6.585  0.1172  0.0335 -0.5726
 3520TIP3    H232052   4.569   1.503   6.533  0.1847 -0.6153  0.5484
 3521TIP3   OH232053   6.583   2.481   0.996  0.1862 -0.6144 -0.4041
 3521TIP3    H132054   6.677   2.475   0.980  0.1829 -0.6656 -0.4074
 3521TIP3    H232055   6.544   2.471   0.909  0.2010  0.1349 -0.5000
 3522TIP3   OH232056   2.395   2.603   4.508  0.4066  0.1020  0.4683
 3522TIP3    H132057   2.431   2.683   4.468  0.5991  0.4875  1.3805
 3522TIP3    H232058   2.422   2.533   4.449  0.6710  0.6514 -0.0848
 3523TIP3   OH232059   6.523   4.532  16.213  0.3084  0.5716  0.1031
 3523TIP3    H132060   6.578   4.492  16.281  1.4699 -0.3216 -1.3028
 3523TIP3    H232061   6.582   4.590  16.165 -0.3443  0.7234 -0.5343
 3524TIP3   OH232062   6.001   6.315  16.417  0.1015  0.1009  0.1551
 3524TIP3    H132063   6.042   6.232  16.389 -1.0926 -0.1205 -1.0249
 3524TIP3    H232064   5.912   6.310  16.384 -0.4607  1.2130  1.4247
 3525TIP3   OH232065   5.498   2.442  17.338  0.4731 -0.1571 -0.2241
 3525TIP3    H132066   5.457   2.435  17.252  1.5381 -0.3744 -0.7206
 3525TIP3    H232067   5.524   2.534  17.344  0.8433 -0.2569 -0.3328
 3526TIP3   OH232068   4.879   3.349  11.462  0.0836 -0.6264 -0.1943
 3526TIP3    H132069   4.844   3.438  11.464  1.6537  0.0725 -1.5521
 3526TIP3    H232070   4.875   3.324  11.370 -0.1779 -1.9196  0.1510
 3527TIP3   OH232071   0.197   1.743   5.863  0.2195  0.4785  0.3514
 3527TIP3    H132072   0.281   1.784   5.888  1.0527  0.9377 -2.8407
 3527TIP3    H232073   0.144   1.815   5.831 -0.6393 -0.1211  0.3996
 3528TIP3   OH232074   3.592   5.706  11.815 -0.2351  0.1596  0.0169
 3528TIP3    H132075   3.642   5.625  11.815  0.0352  0.3145 -0.6333
 3528TIP3    H232076   3.596   5.736  11.724 -2.7472 -0.5922 -0.4301
 3529TIP3   OH232077   0.420   1.594   5.690  0.4526  0.2145  0.6451
 3529TIP3    H132078   0.439   1.686   5.705  0.4523 -0.0330  2.3126
 3529TIP3    H232079   0.441   1.580   5.598  2.2486  1.4482  0.8096
 3530TIP3   OH232080   5.947   4.050  13.321 -0.1590 -0.5085  0.0296
 3530TIP3    H132081   6.008   3.980  13.296  0.2327 -0.7747  1.5960
 3530TIP3    H232082   6.001   4.129  13.323 -0.4395 -0.2752 -1.0151
 3531TIP3   OH232083   3.549   2.437   6.896  1.0038  0.2643 -0.1888
 3531TIP3    H132084   3.617   2.482   6.846  1.7796 -1.0850 -0.3920
 3531TIP3    H232085   3.507   2.379   6.832 -0.5460  1.2716 -0.1324
 3532TIP3   OH232086   2.026   0.656   0.778 -0.6353  0.3043  0.0296
 3532TIP3    H132087   2.039   0.664   0.872  0.0582 -0.0217 -0.0302
 3532TIP3    H232088   2.015   0.562   0.763  3.5713 -0.2669 -0.6851
 3533TIP3   OH232089   0.828   3.766  16.675  0.2102  0.1126 -0.3645
 3533TIP3    H132090   0.803   3.742  16.764  0.7977  0.8978  0.0296
 3533TIP3    H232091   0.902   3.827  16.687  1.3812 -1.0447 -1.4220
 3534TIP3   OH232092   0.855   4.441   0.175 -0.2090 -0.1428 -0.0408
 3534TIP3    H132093   0.847   4.419   0.083  1.4375 -1.7466  0.1509
 3534TIP3    H232094   0.805   4.373   0.221 -0.1539  0.0424  0.3028
 3535TIP3   OH232095   3.856   5.526   2.755 -0.3347  0.7042  0.2533
 3535TIP3    H132096   3.897   5.521   2.842  0.2945  1.0561 -0.0116
 3535TIP3    H232097   3.913   5.473   2.699 -0.8479  0.3169  0.0921
 3536TIP3   OH232098   2.103   5.262  14.119  0.3746  0.6735 -0.1094
 3536TIP3    H132099   2.043   5.335  14.103  1.0471  1.5387  1.0757
 3536TIP3    H232100   2.127   5.271  14.211  1.8110 -0.0358 -0.3820
 3537TIP3   OH232101   0.821   0.796  11.178 -0.0902 -0.3411  0.3722
 3537TIP3    H132102   0.729   0.769  11.175  0.0911 -0.8770 -1.0490
 3537TIP3    H232103   0.870   0.714  11.186  0.3534 -0.2620 -1.2980
 3538TIP3   OH232104   4.111   3.347  16.110  0.2316 -0.0438 -0.4551
 3538TIP3    H132105   4.155   3.288  16.171  1.2314  0.4971 -0.6404
 3538TIP3    H232106   4.025   3.307  16.096  0.3876 -0.7341  0.4711
 3539TIP3   OH232107   2.528   5.104  17.657 -0.3822 -0.2439 -0.4198
 3539TIP3    H132108   2.496   5.084  17.569 -0.7229  1.2753 -0.6638
 3539TIP3    H232109   2.590   5.033  17.677 -0.3909 -0.6719 -1.8226
 3540TIP3   OH232110   0.356   1.850  11.174 -0.0998  0.0194 -0.6154
 3540TIP3    H132111   0.432   1.801  11.205  0.4827  1.2499 -0.0416
 3540TIP3    H232112   0.332   1.809  11.091  1.0607 -0.5048 -0.7009
 3541TIP3   OH232113   4.833   0.609   2.075 -0.3642 -0.3503  0.2570
 3541TIP3    H132114   4.902   0.631   2.012 -2.3492 -0.6266 -2.1832
 3541TIP3    H232115   4.753   0.602   2.022 -1.7315 -3.2552  2.4180
 3542TIP3   OH232116   4.042   4.417  13.751 -0.0191 -0.1264  0.1472
 3542TIP3    H132117   4.048   4.511  13.740  0.4340  0.0766  1.8288
 3542TIP3    H232118   3.950   4.401  13.776 -0.5957 -0.3926 -1.9153
 3543TIP3   OH232119   2.755   1.116  14.242  0.1346  0.2405 -0.0373
 3543TIP3    H132120   2.753   1.034  14.193 -2.3027  0.0638  0.2331
 3543TIP3    H232121   2.677   1.112  14.298 -0.3696  2.9794 -0.4157
 3544TIP3   OH232122   4.936   5.740  17.319  0.8919  0.1490  0.2898
 3544TIP3    H132123   4.854   5.721  17.274  0.7252 -1.5319  1.2478
 3544TIP3    H232124   4.922   5.709  17.409  2.1141  1.0757  0.8271
 3545TIP3   OH232125   3.139   6.350  15.980 -0.4959 -0.0345 -0.0301
 3545TIP3    H132126   3.203   6.297  16.027  0.2259  2.2481  1.7688
 3545TIP3    H232127   3.091   6.397  16.049 -1.2267  1.4900 -1.4835
 3546TIP3   OH232128   3.626   1.723  11.882 -0.4390  0.2287  0.4619
 3546TIP3    H132129   3.649   1.803  11.929  2.2617  0.8134 -1.6273
 3546TIP3    H232130   3.546   1.746  11.835 -0.9462  0.9092  1.5979
 3547TIP3   OH232131   3.273   0.142   3.854 -0.1541 -0.0957 -0.3975
 3547TIP3    H132132   3.285   0.232   3.884  0.9160 -0.1252 -0.6891
 3547TIP3    H232133   3.190   0.114   3.892  0.0091  0.6686  0.5479
 3548TIP3   OH232134   2.736   3.535   1.761  0.5078 -0.1167 -0.4125
 3548TIP3    H132135   2.800   3.528   1.832  2.4761  2.4185 -1.7702
 3548TIP3    H232136   2.767   3.609   1.708 -1.0873 -1.5894 -3.6727
 3549TIP3   OH232137   0.664   3.897  16.310 -0.1252 -0.4116 -0.5343
 3549TIP3    H132138   0.623   3.883  16.395  1.3821 -0.8225  0.1647
 3549TIP3    H232139   0.609   3.849  16.249 -2.0754  1.1086 -0.0646
 3550TIP3   OH232140   2.190   0.012   0.223  0.9652 -0.2233  0.2809
 3550TIP3    H132141   2.112  -0.020   0.177  1.9533 -2.5678  0.1232
 3550TIP3    H232142   2.155   0.058   0.300 -0.5870 -2.3131  0.9207
 3551TIP3   OH232143   2.301   0.478  15.306  0.1457  0.1175 -0.3549
 3551TIP3    H132144   2.382   0.512  15.269  1.0029  1.1096  2.2353
 3551TIP3    H232145   2.256   0.555  15.340  0.0596 -0.8172  1.7788
 3552TIP3   OH232146   0.836   4.589   5.812  0.2849  0.2548 -0.4605
 3552TIP3    H132147   0.777   4.664   5.807  0.4982  0.5741  1.2047
 3552TIP3    H232148   0.920   4.626   5.840  1.0597 -0.3160 -1.9166
 3553TIP3   OH232149   5.079   6.245   6.087  0.0236  0.0434  0.0470
 3553TIP3    H132150   5.145   6.195   6.040  0.0062 -1.4425  1.5293
 3553TIP3    H232151   5.122   6.272   6.168 -0.9300 -0.2494  0.6635
 3554TIP3   OH232152   4.976   4.600   3.813 -0.1361  0.0814  0.2595
 3554TIP3    H132153   5.032   4.599   3.736 -1.8627  1.0102 -1.0805
 3554TIP3    H232154   4.888   4.585   3.779 -0.7214 -1.7256  2.3289
 3555TIP3   OH232155   2.588   5.923   0.942  0.3937  0.6044 -0.7019
 3555TIP3    H132156   2.509   5.872   0.924  0.4438  0.1116  0.3761
 3555TIP3    H232157   2.571   5.964   1.027  1.3404  0.3956 -0.4019
 3556TIP3   OH232158   0.944   4.261   0.722 -0.0733  1.3712 -0.1130
 3556TIP3    H132159   1.009   4.332   0.730 -0.9180  2.2733 -1.0169
 3556TIP3    H232160   0.888   4.288   0.650 -1.3330  0.5005  0.5083
 3557TIP3   OH232161   0.873   6.539  16.676 -0.0807  0.0273 -0.1907
 3557TIP3    H132162   0.792   6.497  16.702  1.0021 -1.4514  0.9332
 3557TIP3    H232163   0.927   6.468  16.641 -0.1772  1.3708 -3.4506
 3558TIP3   OH232164   6.059   1.231  17.299  0.3316  0.4327 -0.2474
 3558TIP3    H132165   6.147   1.195  17.290 -0.4280 -1.3038 -1.2208
 3558TIP3    H232166   6.012   1.166  17.352 -1.3670 -0.7291 -2.9184
 3559TIP3   OH232167   5.841   3.810   1.610 -0.3647 -0.5275 -0.2290
 3559TIP3    H132168   5.789   3.730   1.618  0.2787 -0.9151  0.2130
 3559TIP3    H232169   5.872   3.827   1.698  0.9309 -0.7772 -0.6114
 3560TIP3   OH232170   1.164   4.839   4.853  0.2658 -0.1401  0.0707
 3560TIP3    H132171   1.069   4.851   4.861  0.4855  1.4704  0.7089
 3560TIP3    H232172   1.183   4.858   4.761 -0.2879 -2.9802 -0.7406
 3561TIP3   OH232173   6.306   4.922  15.160 -0.4179 -0.0245  0.2283
 3561TIP3    H132174   6.269   4.941  15.074  1.4814  0.3422 -0.5617
 3561TIP3    H232175   6.288   5.000  15.212  0.3269  0.6929 -0.5435
 3562TIP3   OH232176   4.666   0.486   4.688  1.1829 -0.5358 -0.1421
 3562TIP3    H132177   4.746   0.505   4.639  1.4518 -2.1133 -0.3737
 3562TIP3    H232178   4.611   0.438   4.626  0.4994 -0.4104  0.3518
 3563TIP3   OH232179   1.914   2.978   0.991 -0.2211  0.2815 -0.0680
 3563TIP3    H132180   1.869   2.999   0.910 -2.2221 -1.1453  0.6042
 3563TIP3    H232181   1.915   2.882   0.995  2.2214  0.2380  0.3724
 3564TIP3   OH232182   3.122   0.530  16.320  0.3866  0.2535 -0.9859
 3564TIP3    H132183   3.208   0.561  16.349  0.7587 -2.5208  1.2175
 3564TIP3    H232184   3.140   0.452  16.268 -0.7889 -1.3143  0.8374
 3565TIP3   OH232185   5.181   4.236   5.766  0.5892  0.7229  0.3227
 3565TIP3    H132186   5.139   4.269   5.686 -2.0714 -2.3103  0.2551
 3565TIP3    H232187   5.274   4.241   5.748  0.0934  0.0521 -3.1120
 3566TIP3   OH232188   4.934   0.859  12.546  0.2512  0.0131 -0.1256
 3566TIP3    H132189   4.871   0.861  12.475 -1.8954  1.0413  1.6740
 3566TIP3    H232190   4.944   0.951  12.572  2.3805 -0.1315 -0.1826
 3567TIP3   OH232191   4.160   0.269  13.110 -0.2448  0.1558 -0.0962
 3567TIP3    H132192   4.130   0.210  13.041  1.1964  0.9825 -1.4965
 3567TIP3    H232193   4.203   0.340  13.063  1.4280  0.3881  1.6949
 3568TIP3   OH232194   5.162   3.645  14.622  0.6316 -0.2216  0.3089
 3568TIP3    H132195   5.212   3.702  14.563 -0.6075  2.2168  1.4596
 3568TIP3    H232196   5.083   3.623  14.573  0.1879  0.7543  0.5618
 3569TIP3   OH232197   5.587   0.401  13.262 -0.2453  0.3924 -0.0211
 3569TIP3    H132198   5.552   0.363  13.181 -0.6470 -0.3366  0.4897
 3569TIP3    H232199   5.641   0.332  13.300 -1.1823  0.2288  1.0426
 3570TIP3   OH232200   0.679   2.117  13.322  0.4450 -0.3502  0.7312
 3570TIP3    H132201   0.597   2.116  13.370  0.0857  0.5115  0.1625
 3570TIP3    H232202   0.707   2.025  13.318 -1.0803 -0.8121 -0.0755
 3571TIP3   OH232203   4.245   5.675  14.298 -0.0005 -0.5235 -0.1922
 3571TIP3    H132204   4.180   5.711  14.237 -0.3380 -1.0783 -0.1617
 3571TIP3    H232205   4.262   5.587  14.267  0.6821 -0.4150 -0.1456
 3572TIP3   OH232206   2.612   6.129  17.605  0.2248  0.1135  0.0649
 3572TIP3    H132207   2.647   6.141  17.517  1.6503  0.2065  0.6191
 3572TIP3    H232208   2.618   6.216  17.644 -0.1696  0.0198  0.3344
 3573TIP3   OH232209   6.621   5.453  14.399  0.4832 -0.8068  0.0130
 3573TIP3    H132210   6.678   5.396  14.346  1.3480  0.4386 -0.4321
 3573TIP3    H232211   6.655   5.541  14.385 -1.3753 -0.0505  0.0048
 3574TIP3   OH232212   2.674   1.784   5.310  0.2468 -0.1750  0.0513
 3574TIP3    H132213   2.634   1.827   5.235 -0.5547 -0.2324  0.4409
 3574TIP3    H232214   2.605   1.728   5.346  0.4857  0.1598  1.0657
 3575TIP3   OH232215   3.899   6.263  11.540 -0.5535  0.6364  0.3287
 3575TIP3    H132216   3.824   6.226  11.586  0.3355 -0.1979  1.1656
 3575TIP3    H232217   3.888   6.233  11.450 -2.0101  1.8040  0.0788
 3576TIP3   OH232218   5.497   0.485  12.041  0.1907 -0.1513 -0.3524
 3576TIP3    H132219   5.419   0.435  12.065 -0.0312  0.1122 -0.5151
 3576TIP3    H232220   5.554   0.421  11.998 -0.4617 -0.0857 -1.3553
 3577TIP3   OH232221   1.289   2.944  11.951 -0.1458  0.1444  0.0925
 3577TIP3    H132222   1.230   2.975  12.020  0.5846  1.2942  0.2308
 3577TIP3    H232223   1.305   3.021  11.897  0.4074 -0.4075 -0.5553
 3578TIP3   OH232224   3.060   4.779  13.084  0.3140 -0.0371  0.1295
 3578TIP3    H132225   3.064   4.874  13.073  0.5159  0.2673  2.2425
 3578TIP3    H232226   3.125   4.761  13.153  0.7684 -1.8022 -0.7033
 3579TIP3   OH232227   5.714   6.120   3.102  0.2434  0.0358 -0.1078
 3579TIP3    H132228   5.685   6.077   3.182  0.9654 -1.1912 -0.4821
 3579TIP3    H232229   5.721   6.049   3.038 -1.1198  1.0980 -1.5078
 3580TIP3   OH232230   0.914   0.599  11.793  0.6782  0.0520 -0.3618
 3580TIP3    H132231   0.831   0.554  11.779 -0.6570  1.9349  0.9204
 3580TIP3    H232232   0.955   0.603  11.707 -0.8490 -0.4085 -1.1376
 3581TIP3   OH232233   1.386   4.089   0.643  0.0458  0.1312  0.3893
 3581TIP3    H132234   1.303   4.107   0.598  0.1569 -0.4831 -0.0809
 3581TIP3    H232235   1.452   4.094   0.574  0.1245 -1.6472  0.2783
 3582TIP3   OH232236   2.437   0.061  13.677 -0.8090  0.4758  0.3881
 3582TIP3    H132237   2.375   0.116  13.629 -0.0129  0.8711 -0.2153
 3582TIP3    H232238   2.408  -0.029  13.659 -1.2611  0.6573  0.1983
 3583TIP3   OH232239   4.151   5.552   0.687  0.0178  0.6740 -0.7950
 3583TIP3    H132240   4.202   5.538   0.766 -1.3183 -0.5885 -0.1007
 3583TIP3    H232241   4.176   5.479   0.629 -1.7872 -0.6875  0.0283
 3584TIP3   OH232242   2.848   2.715  16.612  0.1304  0.7796  0.0717
 3584TIP3    H132243   2.866   2.792  16.665 -0.8108  0.6111  0.6632
 3584TIP3    H232244   2.754   2.718  16.596  0.2449  0.2866 -0.7410
 3585TIP3   OH232245   5.966   2.423   3.933  0.1620  0.3858  0.2012
 3585TIP3    H132246   6.049   2.384   3.908 -0.3538  0.3344 -1.5427
 3585TIP3    H232247   5.914   2.350   3.965  0.5631  0.3141  0.6952
 3586TIP3   OH232248   2.533   3.612   6.709 -0.3181 -0.1887  0.8033
 3586TIP3    H132249   2.558   3.699   6.677 -0.7724 -0.9752 -1.9093
 3586TIP3    H232250   2.475   3.629   6.783  0.2636  1.7687  0.8628
 3587TIP3   OH232251   1.263   4.514   4.791 -0.1820 -0.6240  0.3033
 3587TIP3    H132252   1.288   4.589   4.845  1.0464 -2.0131  1.8132
 3587TIP3    H232253   1.173   4.495   4.817 -0.1406 -0.2948  0.6998
 3588TIP3   OH232254   2.935   5.942   0.375  0.0805  0.2907 -0.6546
 3588TIP3    H132255   3.007   5.979   0.325  2.4777 -2.2362  0.6760
 3588TIP3    H232256   2.888   5.887   0.311  1.5543 -0.8730 -0.7981
 3589TIP3   OH232257   1.682   1.155   1.220  0.3105  0.2396 -0.6563
 3589TIP3    H132258   1.710   1.191   1.304 -2.6886 -1.2881  1.1401
 3589TIP3    H232259   1.596   1.194   1.204 -0.6783 -2.0036 -1.2598
 3590TIP3   OH232260   6.031   1.436  12.968 -0.1203 -0.1254 -0.0917
 3590TIP3    H132261   6.086   1.378  12.914  0.6541 -0.2513  0.7920
 3590TIP3    H232262   6.092   1.503  13.000 -1.0455  1.3200 -1.2526
 3591TIP3   OH232263   0.621   3.961   2.209  0.9429  0.1746 -0.1569
 3591TIP3    H132264   0.555   3.958   2.139  0.1001 -0.4590  0.6370
 3591TIP3    H232265   0.575   4.001   2.283  0.5744 -2.6009  1.2413
 3592TIP3   OH232266   0.777   0.097   1.417  0.2908 -0.0398 -1.2603
 3592TIP3    H132267   0.737   0.012   1.433  1.1689  0.0995  2.5603
 3592TIP3    H232268   0.868   0.078   1.398  0.3991  0.0125 -0.8041
 3593TIP3   OH232269   2.285   0.879  16.858  0.6783  0.2749  0.3601
 3593TIP3    H132270   2.262   0.789  16.882  0.7346  0.2778  0.4261
 3593TIP3    H232271   2.226   0.900  16.785  0.3432  0.3468  0.6466
 3594TIP3   OH232272   1.362   6.197  10.357  0.0235 -0.2719  0.5301
 3594TIP3    H132273   1.358   6.292  10.353 -0.2243 -0.2663  0.8811
 3594TIP3    H232274   1.443   6.178  10.406 -0.4608 -0.2167  1.3749
 3595TIP3   OH232275   5.664   4.731  15.757 -0.5966 -0.4325  0.1868
 3595TIP3    H132276   5.695   4.657  15.704 -2.8211 -1.4877  0.2405
 3595TIP3    H232277   5.707   4.807  15.719  1.3652 -1.6446 -0.2153
 3596TIP3   OH232278   1.609   3.463  13.736 -0.4562 -0.5233  0.1444
 3596TIP3    H132279   1.539   3.499  13.683 -0.1712 -1.0444 -0.6010
 3596TIP3    H232280   1.613   3.371  13.711  1.3312 -0.2377 -0.7846
 3597TIP3   OH232281   4.486   4.627  15.343 -0.3344  0.4611  0.1380
 3597TIP3    H132282   4.470   4.655  15.252  0.2871  0.9222  0.1583
 3597TIP3    H232283   4.405   4.648  15.389 -1.1862 -1.0729 -0.5878
 3598TIP3   OH232284   4.955   5.395  15.776 -0.0294 -0.1896 -0.0080
 3598TIP3    H132285   4.934   5.455  15.704 -0.9065 -1.2181 -0.6436
 3598TIP3    H232286   4.915   5.434  15.853 -0.6245  0.0285 -0.4227
 3599TIP3   OH232287   3.042   5.465   3.882  0.2898  0.0949  0.0002
 3599TIP3    H132288   3.094   5.387   3.863  0.9741  0.7127 -0.7177
 3599TIP3    H232289   3.037   5.468   3.978  2.2168  0.4133  0.1379
 3600TIP3   OH232290   2.682   3.163   2.508 -0.0606 -0.4144  0.7010
 3600TIP3    H132291   2.716   3.249   2.485 -0.3512 -0.6261 -0.5976
 3600TIP3    H232292   2.615   3.145   2.442  1.6517 -2.6493 -0.5701
 3601TIP3   OH232293   0.796   2.147   3.230 -0.4813  0.7918  0.0424
 3601TIP3    H132294   0.882   2.175   3.259 -0.0563 -0.1753 -0.2462
 3601TIP3    H232295   0.809   2.057   3.199 -1.9489 -0.1641  1.9210
 3602TIP3   OH232296   1.813   4.261   6.840 -0.3481  0.3226 -0.5551
 3602TIP3    H132297   1.755   4.329   6.805 -1.7808  0.2284  1.4510
 3602TIP3    H232298   1.788   4.181   6.795 -2.6151  0.0678  0.9881
 3603TIP3   OH232299   2.520   3.697   3.947 -0.2223 -0.1121 -0.0233
 3603TIP3    H132300   2.604   3.651   3.948 -0.4288 -0.5236 -1.1426
 3603TIP3    H232301   2.542   3.787   3.974  0.5020 -0.3216  0.1100
 3604TIP3   OH232302   0.883   4.718   1.216  0.3367 -0.4360  0.9129
 3604TIP3    H132303   0.803   4.718   1.269  0.9756 -0.6799  1.9109
 3604TIP3    H232304   0.853   4.699   1.128 -0.9087  1.2121  0.9292
 3605TIP3   OH232305   5.538   1.888  16.068  0.1780 -0.0409  0.5174
 3605TIP3    H132306   5.520   1.818  16.005 -2.3069  0.2494  0.8308
 3605TIP3    H232307   5.553   1.842  16.151 -0.3892 -0.2731  0.4977
 3606TIP3   OH232308   5.578   4.443   0.801 -0.1738  0.3360 -1.0808
 3606TIP3    H132309   5.569   4.354   0.837 -1.3731  0.8245 -0.1299
 3606TIP3    H232310   5.670   4.448   0.775  0.2638 -0.7191  0.1319
 3607TIP3   OH232311   4.410   2.119  16.074  0.5984 -0.9687 -0.3977
 3607TIP3    H132312   4.420   2.174  16.151  0.2556 -0.1865 -0.8927
 3607TIP3    H232313   4.466   2.043  16.090 -0.7099 -1.6207  1.3231
 3608TIP3   OH232314   5.759   4.622  12.413  0.1084 -0.3029 -0.0614
 3608TIP3    H132315   5.749   4.629  12.508  2.0214  1.7981  0.0417
 3608TIP3    H232316   5.681   4.664  12.378 -0.2092 -0.3539  0.5605
 3609TIP3   OH232317   4.460   0.814   1.142  0.3586  0.4422 -0.1197
 3609TIP3    H132318   4.539   0.799   1.089  0.2764  0.4693 -0.2511
 3609TIP3    H232319   4.455   0.909   1.151  1.7317  0.3802  2.0071
 3610TIP3   OH232320   6.492   3.198  12.983 -0.4757  0.4425 -0.2209
 3610TIP3    H132321   6.587   3.205  12.987 -0.1475 -1.4936 -2.2589
 3610TIP3    H232322   6.471   3.117  13.030 -0.9639  0.2323 -0.7815
 3611TIP3   OH232323   0.646   2.761  17.217 -0.2235  0.2609 -0.0358
 3611TIP3    H132324   0.659   2.755  17.312 -0.7470  1.3572  0.1067
 3611TIP3    H232325   0.730   2.732  17.180 -0.6333 -2.0524  0.6930
 3612TIP3   OH232326   0.970   4.304  14.586 -0.4547  0.4836 -0.2894
 3612TIP3    H132327   1.034   4.369  14.616 -0.5549  0.4343  0.0386
 3612TIP3    H232328   0.893   4.356  14.562 -0.1206  0.5856 -1.1585
 3613TIP3   OH232329   2.750   0.880  16.098  0.3366 -0.0465 -0.5368
 3613TIP3    H132330   2.837   0.917  16.089 -0.3638  1.2991 -2.3040
 3613TIP3    H232331   2.764   0.785  16.098  1.8250  0.1539 -0.1162
 3614TIP3   OH232332   6.254   2.836   1.385 -0.2345 -0.0291 -0.6209
 3614TIP3    H132333   6.310   2.760   1.368  1.0005  0.9741 -1.1552
 3614TIP3    H232334   6.193   2.805   1.453  2.1361 -0.6496  1.3811
 3615TIP3   OH232335   1.142   0.435  11.687  0.0622  0.3223  0.2260
 3615TIP3    H132336   1.158   0.510  11.629  1.0828 -0.5657 -0.6789
 3615TIP3    H232337   1.097   0.371  11.632 -0.6771  0.2002  0.9566
 3616TIP3   OH232338   5.052   6.703   2.895 -0.2358 -0.3388 -0.0885
 3616TIP3    H132339   5.106   6.711   2.817 -1.3777 -3.3742 -1.3493
 3616TIP3    H232340   4.962   6.718   2.864 -0.4819  2.3106  1.5111
 3617TIP3   OH232341   3.125   4.126  11.637  0.0906  0.0343 -0.5300
 3617TIP3    H132342   3.120   4.215  11.603  0.4271 -0.2079 -1.2323
 3617TIP3    H232343   3.064   4.076  11.582  0.8980 -0.4309 -1.0271
 3618TIP3   OH232344   6.468   1.260   3.113 -0.1692 -0.1161  0.3626
 3618TIP3    H132345   6.420   1.324   3.166 -2.2875  0.8434 -2.4019
 3618TIP3    H232346   6.401   1.200   3.081  0.4816  0.6311 -2.8284
 3619TIP3   OH232347   0.795   0.293   4.271  0.2105  0.3896 -0.5660
 3619TIP3    H132348   0.791   0.216   4.328 -0.3466  1.7165  1.2847
 3619TIP3    H232349   0.886   0.296   4.242  0.3902 -0.6204 -0.1529
 3620TIP3   OH232350   5.432   4.998  13.781 -0.4950 -0.3369 -0.3543
 3620TIP3    H132351   5.484   5.076  13.763 -2.4286  0.8082 -1.3217
 3620TIP3    H232352   5.459   4.935  13.714 -0.2940  0.2102 -0.7941
 3621TIP3   OH232353   0.906   4.075   0.382 -0.8052 -0.3833 -0.5724
 3621TIP3    H132354   0.829   4.044   0.334 -1.1864  0.2803 -0.4014
 3621TIP3    H232355   0.881   4.162   0.414 -0.6522 -0.8871  1.0036
 3622TIP3   OH232356   5.707   1.252  15.145  0.0372  0.0605  0.0563
 3622TIP3    H132357   5.706   1.223  15.236 -0.9946 -0.9493 -0.2598
 3622TIP3    H232358   5.797   1.282  15.131 -0.2278  1.9068  1.8901
 3623TIP3   OH232359   5.741   0.018  12.774  0.1434 -0.0733 -0.2440
 3623TIP3    H132360   5.767   0.021  12.681  0.8141  0.2041 -0.0589
 3623TIP3    H232361   5.675  -0.050  12.778  2.3610 -2.3892 -0.4099
 3624TIP3   OH232362   4.184   5.910   1.934 -0.1384 -0.3840  0.1511
 3624TIP3    H132363   4.206   5.817   1.935  0.6930 -0.2104  2.0967
 3624TIP3    H232364   4.162   5.928   1.843 -0.2417 -2.4573 -0.2814
 3625TIP3   OH232365   0.080   3.708  11.291 -0.0753 -0.3643  0.2993
 3625TIP3    H132366   0.090   3.803  11.298 -0.6652 -0.3480  1.0529
 3625TIP3    H232367   0.098   3.689  11.199  0.4951  0.4182  0.2310
 3626TIP3   OH232368   2.323   3.153  14.638 -0.3866  0.7227  0.0443
 3626TIP3    H132369   2.233   3.169  14.608 -0.6176 -1.2177 -0.4831
 3626TIP3    H232370   2.341   3.062  14.611  1.3999  0.7534  0.9794
 3627TIP3   OH232371   1.968   4.098  11.141  1.0311  0.3996 -0.0197
 3627TIP3    H132372   2.055   4.118  11.107  0.8446 -0.6560 -1.2145
 3627TIP3    H232373   1.984   4.047  11.220  1.5386 -0.6892 -0.7957
 3628TIP3   OH232374   3.231   1.351   5.847  0.3976 -0.0464 -0.3322
 3628TIP3    H132375   3.321   1.350   5.879 -0.3710  0.7687  2.0723
 3628TIP3    H232376   3.217   1.264   5.809  1.7801 -0.6645  0.5188
 3629TIP3   OH232377   3.589   5.049  14.394  0.1211  0.1723  0.5086
 3629TIP3    H132378   3.566   5.130  14.349 -0.7235 -0.4988 -0.3224
 3629TIP3    H232379   3.510   4.995  14.389  0.0921 -0.0555  2.5721
 3630TIP3   OH232380   0.622   3.342  12.847 -0.1799 -0.1178  0.1812
 3630TIP3    H132381   0.657   3.376  12.765 -1.2340 -0.3137 -0.3601
 3630TIP3    H232382   0.660   3.399  12.914 -1.5266  1.8698 -0.6642
 3631TIP3   OH232383   1.801   6.089  12.071  0.4634  0.2092 -0.6115
 3631TIP3    H132384   1.815   6.155  12.004 -0.3798  0.1186 -0.8902
 3631TIP3    H232385   1.728   6.123  12.123  2.3813  1.2969  1.5804
 3632TIP3   OH232386   5.227   3.494  16.592 -0.0551  0.6238 -0.2619
 3632TIP3    H132387   5.137   3.512  16.565 -0.4497 -0.8284 -0.0014
 3632TIP3    H232388   5.222   3.483  16.687  0.1235 -0.8299 -0.3923
 3633TIP3   OH232389   2.781   6.684   1.111  0.7103 -0.2833  0.1885
 3633TIP3    H132390   2.864   6.708   1.071  0.8099 -0.4671  0.2834
 3633TIP3    H232391   2.800   6.678   1.205  0.9730 -1.9040  0.0556
 3634TIP3   OH232392   4.653   6.686   5.840 -0.1493 -0.0095  0.4626
 3634TIP3    H132393   4.599   6.712   5.915  0.8484 -0.5563  1.3903
 3634TIP3    H232394   4.653   6.590   5.843  0.1590 -0.0282 -0.0627
 3635TIP3   OH232395   6.075   1.487   1.036  0.5028 -0.3696  0.0846
 3635TIP3    H132396   6.142   1.458   0.974  1.2028 -1.4643  1.2917
 3635TIP3    H232397   6.045   1.406   1.077 -0.2152  0.2923  0.8921
 3636TIP3   OH232398   3.064   0.684   1.982  0.5812  0.2400  0.0418
 3636TIP3    H132399   3.139   0.651   1.932  0.3432 -0.1904 -0.0386
 3636TIP3    H232400   3.007   0.608   1.991  1.1773 -0.0466  2.0379
 3637TIP3   OH232401   1.804   5.049  17.252  0.4347  0.7038  0.2499
 3637TIP3    H132402   1.867   5.104  17.300  0.1184 -0.1572  1.7252
 3637TIP3    H232403   1.738   5.026  17.318 -0.9587  0.8402 -1.0301
 3638TIP3   OH232404   1.640   0.238  15.835 -0.1566 -0.5524  0.1506
 3638TIP3    H132405   1.579   0.309  15.816 -2.1985 -1.9486  1.1372
 3638TIP3    H232406   1.705   0.278  15.893 -0.8639  0.6851  0.1257
 3639TIP3   OH232407   1.712   5.835  15.000 -0.3756 -0.2690 -0.0915
 3639TIP3    H132408   1.721   5.853  15.093 -1.9800  0.6681 -0.0895
 3639TIP3    H232409   1.750   5.912  14.957  0.7586 -0.8917 -0.2429
 3640TIP3   OH232410   6.402   4.925   3.937  0.3684  0.6378  0.4539
 3640TIP3    H132411   6.340   4.972   3.993 -0.2316 -0.5126  0.7892
 3640TIP3    H232412   6.441   4.860   3.995  1.2908  0.8066  0.0320
 3641TIP3   OH232413   6.075   3.163  12.054 -0.2750  0.0821  0.1616
 3641TIP3    H132414   6.135   3.131  11.987  0.2236  1.2625  0.0167
 3641TIP3    H232415   6.130   3.217  12.111 -1.2073  1.2357 -0.0063
 3642TIP3   OH232416   1.157   0.973  15.388 -0.2787 -0.1061  0.2395
 3642TIP3    H132417   1.133   0.913  15.459 -1.4684  1.0583  0.8659
 3642TIP3    H232418   1.188   1.052  15.432 -2.7260  1.3328 -0.4235
 3643TIP3   OH232419   6.443   4.277  13.589 -0.7272  0.1796 -0.0573
 3643TIP3    H132420   6.451   4.353  13.532  1.6042  1.3757  1.7241
 3643TIP3    H232421   6.452   4.202  13.530  0.8355  1.3604 -1.4113
 3644TIP3   OH232422   2.175   3.397   2.390 -0.0256  0.0712  0.1902
 3644TIP3    H132423   2.102   3.366   2.444  0.6848  0.4372  1.3855
 3644TIP3    H232424   2.199   3.481   2.428  1.1871 -0.1570 -0.0394
 3645TIP3   OH232425   3.040   4.259   5.559  0.8630 -0.2445  0.5798
 3645TIP3    H132426   2.960   4.222   5.521  1.3203  0.9815 -1.7180
 3645TIP3    H232427   3.009   4.330   5.616  0.2795 -0.2244  0.2423
 3646TIP3   OH232428   1.403   1.421   3.179  0.0080  0.3996  0.1053
 3646TIP3    H132429   1.328   1.362   3.165  1.5758 -1.9564  0.9519
 3646TIP3    H232430   1.390   1.456   3.267 -0.0933 -0.0214  0.2591
 3647TIP3   OH232431   4.843   5.563   5.571 -0.6643 -0.6297  0.2803
 3647TIP3    H132432   4.897   5.639   5.548  1.3714 -2.5682 -1.9956
 3647TIP3    H232433   4.786   5.594   5.641  1.6228  2.3324  1.0445
 3648TIP3   OH232434   6.515   0.580   1.237  0.3007 -0.0852  0.2449
 3648TIP3    H132435   6.598   0.579   1.285  1.8299  0.0313 -2.2512
 3648TIP3    H232436   6.499   0.488   1.215  1.4108  0.1900 -1.8734
 3649TIP3   OH232437   5.695   4.568  16.061 -0.4798  0.0900  0.0491
 3649TIP3    H132438   5.646   4.636  16.015 -1.6515  0.0756  1.2122
 3649TIP3    H232439   5.787   4.590  16.046 -0.8218  2.1401  0.6520
 3650TIP3   OH232440   6.192   3.358   4.177  0.6410 -0.4646 -0.6046
 3650TIP3    H132441   6.119   3.339   4.235  0.2682  1.1983 -0.4673
 3650TIP3    H232442   6.270   3.336   4.228  0.2610 -1.2287 -0.3537
 3651TIP3   OH232443   0.071   4.064  16.963 -0.2428 -0.9768  0.0351
 3651TIP3    H132444   0.139   4.090  16.900 -1.5186  0.5650 -0.7754
 3651TIP3    H232445   0.022   3.995  16.918 -1.9490  0.9897 -1.3033
 3652TIP3   OH232446   5.083   1.557  17.291  0.4250 -0.2006  0.5431
 3652TIP3    H132447   4.992   1.584  17.285 -0.2304 -2.4732 -0.8720
 3652TIP3    H232448   5.133   1.637  17.276 -1.3625  0.5078 -2.2896
 3653TIP3   OH232449   6.344   1.954  12.054 -0.0467  0.3019  0.6896
 3653TIP3    H132450   6.285   1.951  12.129  1.3032 -1.1298  1.7659
 3653TIP3    H232451   6.304   1.897  11.988 -0.8449  0.9538  0.5933
 3654TIP3   OH232452   0.630   0.343  16.250 -0.5469  0.1292  0.2430
 3654TIP3    H132453   0.720   0.351  16.282 -0.5037 -0.6039  0.3355
 3654TIP3    H232454   0.580   0.316  16.327 -0.8469  0.5382  0.1937
 3655TIP3   OH232455   1.654   2.869  14.752 -0.3441  0.2440 -0.2202
 3655TIP3    H132456   1.639   2.809  14.679 -0.4068 -2.1541  1.6247
 3655TIP3    H232457   1.569   2.911  14.767 -0.5652  0.0580 -0.9356
 3656TIP3   OH232458   4.086   2.214  14.382  0.0061 -0.2589 -0.1733
 3656TIP3    H132459   4.004   2.255  14.355 -0.4762  0.4121  2.0266
 3656TIP3    H232460   4.154   2.266  14.339 -0.7056  0.3099 -0.6343
 3657TIP3   OH232461   2.004   2.114   5.818  0.0441 -0.3732  0.3794
 3657TIP3    H132462   2.075   2.054   5.797  0.9957  1.4313 -2.1561
 3657TIP3    H232463   2.046   2.186   5.864  0.1211  1.0460 -1.7496
 3658TIP3   OH232464   2.871   2.229   4.040  0.0481  0.0203 -0.4713
 3658TIP3    H132465   2.834   2.168   4.103 -0.8145  0.6333 -0.3618
 3658TIP3    H232466   2.913   2.296   4.093 -0.5079  0.4317 -0.5396
 3659TIP3   OH232467   1.683   1.575   1.519 -0.2930  0.4862 -0.7331
 3659TIP3    H132468   1.662   1.572   1.426  1.6291  0.9591 -1.2162
 3659TIP3    H232469   1.727   1.660   1.531  1.7068 -0.5967  0.0707
 3660TIP3   OH232470   2.482   0.293  14.661  0.4494 -0.8247  0.2107
 3660TIP3    H132471   2.510   0.373  14.704 -3.5828  0.6446  0.4515
 3660TIP3    H232472   2.488   0.313  14.567  1.3673 -1.0504  0.2050
 3661TIP3   OH232473   4.853   2.854  14.801  0.6423 -0.1206 -0.1918
 3661TIP3    H132474   4.919   2.916  14.834 -0.9113 -0.5479  4.5484
 3661TIP3    H232475   4.771   2.903  14.803 -0.1514 -1.4193  0.7096
 3662TIP3   OH232476   1.807   2.574  14.194 -0.4193 -0.0108 -0.5082
 3662TIP3    H132477   1.862   2.645  14.226 -1.5167  0.4018  0.5368
 3662TIP3    H232478   1.722   2.615  14.178 -0.8450 -0.9235 -0.6491
 3663TIP3   OH232479   1.093   1.993  10.712  0.4522 -0.0631 -0.0441
 3663TIP3    H132480   1.159   1.924  10.714  0.9356  0.4101  0.8633
 3663TIP3    H232481   1.020   1.954  10.664  0.2949 -1.5881  1.3365
 3664TIP3   OH232482   6.378   2.544  16.484  0.1673 -0.4885  0.5871
 3664TIP3    H132483   6.340   2.492  16.555 -0.7718  0.6017  0.9142
 3664TIP3    H232484   6.379   2.484  16.409 -4.8934  0.0522 -0.2746
 3665TIP3   OH232485   5.822   5.609   2.867  0.0395  0.4349  0.0604
 3665TIP3    H132486   5.916   5.592   2.873  0.6948  3.6696  0.4183
 3665TIP3    H232487   5.799   5.651   2.949 -1.7339 -0.1197 -0.1019
 3666TIP3   OH232488   5.539   2.138  15.397 -0.1002 -0.2515  0.0153
 3666TIP3    H132489   5.608   2.203  15.415 -0.4719  0.0655  0.3117
 3666TIP3    H232490   5.508   2.161  15.309  0.8072 -0.9787 -0.5084
 3667TIP3   OH232491   5.617   0.587   1.868 -0.0101 -0.3536 -0.1214
 3667TIP3    H132492   5.574   0.602   1.952  0.6809 -0.4731  0.2577
 3667TIP3    H232493   5.644   0.495   1.871 -0.0263 -0.3700 -0.4897
 3668TIP3   OH232494   1.627   3.375   4.497 -0.3897  0.5177 -0.0634
 3668TIP3    H132495   1.589   3.448   4.545 -1.7979  0.4600 -1.0401
 3668TIP3    H232496   1.663   3.415   4.418 -1.8650  0.1034 -0.9867
 3669TIP3   OH232497   6.074   0.085  12.609  0.4192  0.0378 -0.2106
 3669TIP3    H132498   6.147   0.105  12.668  0.4591 -0.2111 -0.1749
 3669TIP3    H232499   6.116   0.059  12.527  0.3688  0.0307 -0.2342
 3670TIP3   OH232500   3.431   1.203   4.479  0.2627  0.3434  0.0107
 3670TIP3    H132501   3.454   1.120   4.436  0.0547 -0.0605  0.6697
 3670TIP3    H232502   3.511   1.233   4.520  0.0730 -0.1035  0.7150
 3671TIP3   OH232503   2.747   3.352  17.583  0.1186 -0.2950  0.5607
 3671TIP3    H132504   2.753   3.292  17.508  0.9139  0.1345  0.2660
 3671TIP3    H232505   2.675   3.411  17.561  0.3218 -0.1984  0.1574
 3672TIP3   OH232506   5.589   5.705   2.765 -0.0234  0.4284  0.2005
 3672TIP3    H132507   5.525   5.651   2.719 -1.7905 -0.9398  3.8509
 3672TIP3    H232508   5.662   5.645   2.783  0.1499  0.6228  0.1478
 3673TIP3   OH232509   0.022   2.424  14.066 -0.5951  0.1934  0.1231
 3673TIP3    H132510   0.087   2.354  14.058 -0.5860  0.3944 -1.8979
 3673TIP3    H232511   0.042   2.465  14.151 -0.2857 -1.8971  1.1150
 3674TIP3   OH232512   3.547   6.031  16.039 -0.0554 -0.3009  0.1971
 3674TIP3    H132513   3.601   6.094  16.088  1.0821 -2.1082  1.4244
 3674TIP3    H232514   3.560   6.054  15.947  0.6389  0.9884  0.5923
 3675TIP3   OH232515   6.347   0.414   6.196 -0.4571 -0.6868  0.2998
 3675TIP3    H132516   6.347   0.404   6.101 -3.5947 -0.5132  0.1508
 3675TIP3    H232517   6.331   0.326   6.230 -1.8625 -0.3852  0.4772
 3676TIP3   OH232518   6.065   3.752  10.901  0.3202 -0.0526 -0.3715
 3676TIP3    H132519   6.144   3.740  10.954  0.0696 -0.1654 -0.0216
 3676TIP3    H232520   6.041   3.844  10.914  0.7414  0.1536 -0.9725
 3677TIP3   OH232521   0.869   4.382  16.877 -0.1778 -0.4182  0.3547
 3677TIP3    H132522   0.780   4.377  16.844 -0.5943 -1.7781  1.5791
 3677TIP3    H232523   0.879   4.473  16.906 -0.4433  0.2820 -1.6119
 3678TIP3   OH232524   4.907   0.881   2.588 -0.4517 -0.2114 -0.1234
 3678TIP3    H132525   4.998   0.893   2.616 -0.0003  2.1263 -2.2037
 3678TIP3    H232526   4.914   0.844   2.500 -1.3991  1.4937 -0.9676
 3679TIP3   OH232527   4.336   6.134   4.359  0.2409  0.7373 -1.1664
 3679TIP3    H132528   4.411   6.190   4.380  0.7390 -0.2586 -0.1732
 3679TIP3    H232529   4.350   6.107   4.268  1.9988 -0.7532 -0.5120
 3680TIP3   OH232530   0.254   6.635   1.291  0.1539 -0.2516 -0.0973
 3680TIP3    H132531   0.239   6.709   1.349  0.8103 -0.4941  0.3940
 3680TIP3    H232532   0.190   6.569   1.320  0.0802 -0.1533 -0.0361
 3681TIP3   OH232533   1.677   6.204   0.124  0.0383  0.7149 -0.2467
 3681TIP3    H132534   1.739   6.238   0.060  1.5015  0.7061  1.1135
 3681TIP3    H232535   1.686   6.108   0.117  0.0974  0.7114 -0.1241
 3682TIP3   OH232536   1.480   2.587  16.366  0.2382  0.0132  0.4570
 3682TIP3    H132537   1.405   2.543  16.407  0.3170  1.5135  2.4041
 3682TIP3    H232538   1.450   2.608  16.278 -0.7134 -1.5907  0.3532
 3683TIP3   OH232539   6.623   2.672   5.407  0.1412  0.4879 -0.0065
 3683TIP3    H132540   6.686   2.656   5.337 -0.1280 -0.8062  0.0286
 3683TIP3    H232541   6.571   2.747   5.377 -0.0882 -0.1624 -1.2783
 3684TIP3   OH232542   2.469   6.076   6.261 -0.2130 -0.0331 -0.1701
 3684TIP3    H132543   2.441   6.167   6.259 -0.9359 -0.1885  1.3990
 3684TIP3    H232544   2.563   6.079   6.241 -0.2466  1.0377 -0.1987
 3685TIP3   OH232545   2.464   2.931   2.244 -0.3842 -0.5403 -0.0624
 3685TIP3    H132546   2.448   2.889   2.329  0.6690  0.0569  0.4489
 3685TIP3    H232547   2.454   3.025   2.262 -1.4245 -0.4674 -0.9046
 3686TIP3   OH232548   6.202   6.442  13.581  0.0361 -0.0291 -0.1348
 3686TIP3    H132549   6.245   6.357  13.581  0.8307  0.3496  0.7819
 3686TIP3    H232550   6.273   6.505  13.564 -0.3003  0.5405  0.5336
 3687TIP3   OH232551   6.070   0.439   1.494 -0.0486 -0.3101  0.5010
 3687TIP3    H132552   6.101   0.478   1.412  0.5511  0.1373  0.9333
 3687TIP3    H232553   5.977   0.461   1.498 -0.0929 -0.3683 -0.0750
 3688TIP3   OH232554   4.009   4.493  14.181  0.1229  0.1308  0.3138
 3688TIP3    H132555   4.095   4.476  14.143 -0.4282  0.0739 -0.9755
 3688TIP3    H232556   3.992   4.419  14.239 -0.5693 -1.8292 -2.2085
 3689TIP3   OH232557   5.319   5.907   6.259  0.0358  0.1751 -0.0133
 3689TIP3    H132558   5.322   5.994   6.220  0.1079  1.6403  2.9391
 3689TIP3    H232559   5.227   5.881   6.253  0.1239  0.1285 -1.4664
 3690TIP3   OH232560   1.806   1.198   3.443 -0.4823 -0.2325 -0.3540
 3690TIP3    H132561   1.784   1.279   3.396 -1.6186 -1.0639 -1.3366
 3690TIP3    H232562   1.856   1.227   3.519 -1.0861  1.4218 -0.5404
 3691TIP3   OH232563   0.010   5.990   1.578 -0.5546 -0.1868 -0.2299
 3691TIP3    H132564   0.106   5.997   1.582 -0.5761  0.2569 -0.4703
 3691TIP3    H232565  -0.011   5.917   1.637 -0.2789  1.3353  1.8671
 3692TIP3   OH232566   1.627   1.756   5.861  0.7321  0.0762  0.1503
 3692TIP3    H132567   1.718   1.732   5.843  0.8750  1.0928 -0.5838
 3692TIP3    H232568   1.617   1.743   5.955  1.3673 -0.8982  0.0983
 3693TIP3   OH232569   5.754   4.299   4.520  0.4548 -0.0558 -0.2711
 3693TIP3    H132570   5.749   4.393   4.502  0.5536 -0.0648 -0.3429
 3693TIP3    H232571   5.677   4.281   4.575 -0.3160 -0.1902 -1.3662
 3694TIP3   OH232572   6.578   3.364   2.945  0.0179 -0.3222 -0.4077
 3694TIP3    H132573   6.593   3.454   2.918  1.0348  0.1358  1.4652
 3694TIP3    H232574   6.484   3.359   2.963  0.2619  1.0165  1.4784
 3695TIP3   OH232575   2.800   4.021  13.435  0.2157 -0.8915 -0.1333
 3695TIP3    H132576   2.806   3.941  13.383 -0.5760  0.1659 -1.9657
 3695TIP3    H232577   2.889   4.054  13.439  0.0231  0.2227 -2.9526
 3696TIP3   OH232578   1.292   0.779   5.740  0.7313  0.1986  0.1931
 3696TIP3    H132579   1.282   0.860   5.790 -0.4337 -0.1051  0.4763
 3696TIP3    H232580   1.231   0.718   5.781  1.3509 -0.7249 -0.2332
 3697TIP3   OH232581   6.234   2.732  13.753  0.3550  0.3997 -0.2201
 3697TIP3    H132582   6.243   2.749  13.847  1.9164 -0.2817 -0.2137
 3697TIP3    H232583   6.297   2.662  13.735  1.3287  1.6594 -2.0617
 3698TIP3   OH232584   3.740   4.444   2.529  0.9721 -0.0095  0.6461
 3698TIP3    H132585   3.832   4.429   2.551  0.8764 -0.4626  0.7410
 3698TIP3    H232586   3.697   4.458   2.614  1.1707  1.5079  0.5330
 3699TIP3   OH232587   2.946   0.313   4.664 -0.1539  0.1149 -0.1793
 3699TIP3    H132588   3.025   0.367   4.652 -1.6472  2.3254 -0.7160
 3699TIP3    H232589   2.930   0.316   4.758  0.0160  0.2732 -0.1530
 3700TIP3   OH232590   3.150   3.739   5.587  0.4569 -0.0477  0.6269
 3700TIP3    H132591   3.072   3.790   5.564  1.7323  1.9291  0.3931
 3700TIP3    H232592   3.195   3.726   5.504  0.9806 -0.0783  0.9104
 3701TIP3   OH232593   0.355   0.031   5.546 -0.3226  0.2563  0.0584
 3701TIP3    H132594   0.329   0.084   5.622 -0.7303  0.6125 -0.3274
 3701TIP3    H232595   0.425   0.081   5.504  1.7620 -1.1258  1.6183
 3702TIP3   OH232596   5.387   6.639  17.616 -0.2989  0.0003 -0.5292
 3702TIP3    H132597   5.419   6.557  17.654 -0.6600  0.2879  0.4300
 3702TIP3    H232598   5.422   6.639  17.527  1.1577 -0.3882 -0.0005
 3703TIP3   OH232599   6.645   0.432   0.371 -0.2899 -0.3961  0.1931
 3703TIP3    H132600   6.550   0.430   0.357 -0.2914  0.8924 -0.1345
 3703TIP3    H232601   6.680   0.379   0.299 -0.7093  0.2529 -0.5162
 3704TIP3   OH232602   2.345   2.614   1.833  0.0652 -0.0308 -0.0413
 3704TIP3    H132603   2.431   2.610   1.790 -0.8060  0.2842 -1.9118
 3704TIP3    H232604   2.323   2.522   1.851  1.5862 -0.0218  2.2291
 3705TIP3   OH232605   1.675   2.818   1.894  0.0968 -0.4827 -0.3399
 3705TIP3    H132606   1.612   2.842   1.826  0.6287 -1.6297 -1.2883
 3705TIP3    H232607   1.633   2.842   1.976 -1.3359 -0.6792 -0.9859
 3706TIP3   OH232608   6.648   5.854  17.402  0.1584 -0.1187 -0.0499
 3706TIP3    H132609   6.736   5.889  17.384  0.0660  0.6212  0.8774
 3706TIP3    H232610   6.594   5.888  17.331  0.1294  1.4585  0.6713
 3707TIP3   OH232611   6.020   4.293  13.215 -0.2303  0.0064  0.1596
 3707TIP3    H132612   5.973   4.373  13.189 -1.4546 -0.4663  0.8355
 3707TIP3    H232613   6.024   4.241  13.136 -0.7475  0.1185  0.0511
 3708TIP3   OH232614   3.731   2.453   3.017 -0.1487  0.0904 -0.2526
 3708TIP3    H132615   3.665   2.483   3.079 -0.8619  0.6330 -1.2547
 3708TIP3    H232616   3.732   2.520   2.948  0.5871 -0.5232 -0.8587
 3709TIP3   OH232617   1.895   4.389  14.611  0.2463 -0.3665  0.9092
 3709TIP3    H132618   1.844   4.445  14.553  1.1325 -0.8187 -0.3452
 3709TIP3    H232619   1.923   4.447  14.682  0.9030  0.7242 -0.2082
 3710TIP3   OH232620   3.682   6.142  11.753 -0.0706 -0.1598  0.7121
 3710TIP3    H132621   3.644   6.230  11.756  0.0031 -0.0932 -0.0676
 3710TIP3    H232622   3.662   6.104  11.838 -1.5001  0.0330  0.4865
 3711TIP3   OH232623   6.327   5.399   4.754  0.3942  0.5882 -0.1126
 3711TIP3    H132624   6.304   5.456   4.680  0.4500 -1.4476 -1.7957
 3711TIP3    H232625   6.399   5.346   4.721  0.2459 -0.5543  1.3177
 3712TIP3   OH232626   2.049   2.278   0.348  0.3087  0.5212  0.0671
 3712TIP3    H132627   2.131   2.228   0.350 -0.4030 -0.6606  0.4936
 3712TIP3    H232628   2.069   2.360   0.394  0.9623 -0.2117  1.1004
 3713TIP3   OH232629   2.843   5.281   1.608  0.0792 -0.5227 -0.0243
 3713TIP3    H132630   2.915   5.334   1.574  0.1669 -0.6021  0.0372
 3713TIP3    H232631   2.776   5.286   1.540  0.2253 -0.6226 -0.1753
 3714TIP3   OH232632   4.349   5.561  16.228 -0.4807 -0.3485 -0.0822
 3714TIP3    H132633   4.347   5.471  16.196 -1.1192 -0.3632 -0.0179
 3714TIP3    H232634   4.353   5.615  16.149  0.6533 -0.4404 -0.1037
 3715TIP3   OH232635   3.847   4.649   0.431  0.3250  0.8172 -1.0503
 3715TIP3    H132636   3.862   4.683   0.519  1.1901 -1.2245 -0.3404
 3715TIP3    H232637   3.882   4.560   0.434 -1.6521 -0.1103 -2.8148
 3716TIP3   OH232638   1.167   2.848   3.550 -0.3307  0.0292 -0.2620
 3716TIP3    H132639   1.134   2.904   3.480  1.9859  0.2994 -1.2387
 3716TIP3    H232640   1.144   2.893   3.630 -1.7867  0.4412 -0.8792
 3717TIP3   OH232641   3.828   4.650   5.192  0.6195  0.4742  0.1528
 3717TIP3    H132642   3.759   4.704   5.232 -0.1264 -0.2872 -0.0765
 3717TIP3    H232643   3.909   4.689   5.222  0.0963  1.6623  0.0855
 3718TIP3   OH232644   6.201   2.142   0.285 -1.1268  0.2804 -0.3970
 3718TIP3    H132645   6.198   2.169   0.376 -1.2653 -1.1002  0.0315
 3718TIP3    H232646   6.293   2.154   0.259 -0.6854 -0.9889  0.4799
 3719TIP3   OH232647   1.599   0.293  14.932 -0.3838 -0.5649  0.2015
 3719TIP3    H132648   1.583   0.370  14.878  0.6334  0.7314  1.6793
 3719TIP3    H232649   1.676   0.315  14.985  0.1876 -2.7416  0.4123
 3720TIP3   OH232650   4.377   5.015  13.627 -0.5011  0.2360  0.0290
 3720TIP3    H132651   4.408   5.097  13.587  0.0886 -0.5933 -1.2774
 3720TIP3    H232652   4.457   4.964  13.640 -0.4089  0.9979  3.7508
 3721TIP3   OH232653   5.344   4.534  13.687  0.8029 -0.0598 -0.0398
 3721TIP3    H132654   5.389   4.497  13.611 -0.6031 -2.5021  0.1827
 3721TIP3    H232655   5.405   4.520  13.759  0.7370 -1.0711 -0.1553
 3722TIP3   OH232656   4.094   0.790  12.211 -0.3890 -0.1062  0.5098
 3722TIP3    H132657   4.101   0.695  12.221  2.3551 -0.0881 -0.2759
 3722TIP3    H232658   4.001   0.809  12.224 -0.7478 -2.6585  2.4565
 3723TIP3   OH232659   3.907   5.823   0.544 -0.3735 -0.0057 -0.2578
 3723TIP3    H132660   3.948   5.862   0.467 -0.2927 -1.6528 -1.0962
 3723TIP3    H232661   3.966   5.844   0.616  0.2787  0.3549 -0.8841
 3724TIP3   OH232662   5.000   4.987   1.432  0.2330  0.4893  0.4475
 3724TIP3    H132663   5.008   5.005   1.338 -1.1935  1.2265  0.4477
 3724TIP3    H232664   5.022   4.894   1.440  4.3930  1.2238 -0.0103
 3725TIP3   OH232665   2.272   5.641  13.469 -0.0364  0.9011 -0.6203
 3725TIP3    H132666   2.253   5.732  13.490 -1.0168  0.7403 -0.7324
 3725TIP3    H232667   2.367   5.635  13.470  0.1612  2.4718 -2.9419
 3726TIP3   OH232668   3.014   2.239  12.924 -0.0531 -0.0514 -0.7208
 3726TIP3    H132669   3.039   2.329  12.947 -0.2915 -0.1440 -0.0835
 3726TIP3    H232670   2.965   2.208  13.000 -1.7755 -0.0147 -1.7667
 3727TIP3   OH232671   2.256   5.616   3.747  0.2840 -0.1984 -0.4140
 3727TIP3    H132672   2.174   5.587   3.706 -0.1407  1.7381 -1.0109
 3727TIP3    H232673   2.325   5.579   3.691 -0.2486  0.3569 -1.4644
 3728TIP3   OH232674   6.027   6.097  11.348  0.3528  0.0795 -0.0922
 3728TIP3    H132675   5.981   6.169  11.306 -2.7979 -1.7098  0.0143
 3728TIP3    H232676   6.017   6.023  11.289  2.3640 -0.6726  0.4096
 3729TIP3   OH232677   5.637   1.531  13.798 -0.5964 -0.1298  0.0042
 3729TIP3    H132678   5.638   1.486  13.714  0.5734  0.9288 -0.5770
 3729TIP3    H232679   5.716   1.502  13.842  1.2183  2.6140 -1.1422
 3730TIP3   OH232680   0.639   1.998   6.298  0.1914 -0.2927 -1.0116
 3730TIP3    H132681   0.691   2.003   6.378  0.0777 -1.0242 -0.8805
 3730TIP3    H232682   0.577   2.070   6.305  1.4876  0.8974 -1.3988
 3731TIP3   OH232683   2.608   4.458   4.680  0.3436 -0.1431 -1.0371
 3731TIP3    H132684   2.537   4.511   4.643 -0.2693 -0.1072  0.1389
 3731TIP3    H232685   2.574   4.368   4.677 -0.4289  0.0196  0.8789
 3732TIP3   OH232686   3.160   2.117   0.908 -0.2886 -0.0850  0.0084
 3732TIP3    H132687   3.232   2.168   0.871  0.7689 -0.6070  1.2480
 3732TIP3    H232688   3.081   2.165   0.883  0.4897  0.6538 -1.1637
 3733TIP3   OH232689   4.124   3.963  15.865 -0.5213 -0.3584  0.2944
 3733TIP3    H132690   4.205   4.012  15.878 -1.2193  0.6889  0.7827
 3733TIP3    H232691   4.055   4.029  15.869 -1.4387 -1.3039  0.3794
 3734TIP3   OH232692   2.454   2.146  12.037  0.5493 -0.0019  0.2946
 3734TIP3    H132693   2.377   2.171  11.986  0.2612  0.2414  0.8397
 3734TIP3    H232694   2.491   2.229  12.067 -0.1580 -0.1798  1.7415
 3735TIP3   OH232695   4.088   5.964   5.415  0.2997 -0.4015 -0.3066
 3735TIP3    H132696   4.113   5.872   5.419  1.9520  0.0169 -0.3793
 3735TIP3    H232697   4.065   5.980   5.324 -2.9648 -1.4166  0.2034
 3736TIP3   OH232698   3.318   4.935   1.684  0.0620  0.3156  0.0908
 3736TIP3    H132699   3.353   4.966   1.767  1.9043  0.3157 -0.6545
 3736TIP3    H232700   3.238   4.987   1.671 -0.8748 -0.4497  2.3420
 3737TIP3   OH232701   3.790   5.237   0.916 -0.3060 -0.0843 -0.1244
 3737TIP3    H132702   3.779   5.326   0.883 -0.6533 -0.0736  0.0167
 3737TIP3    H232703   3.726   5.185   0.866 -0.5844 -0.1293  0.2723
 3738TIP3   OH232704   6.318   1.340  17.467  0.2414 -0.0866  0.6193
 3738TIP3    H132705   6.328   1.304  17.555  0.0694 -0.5278  0.4612
 3738TIP3    H232706   6.350   1.271  17.409  1.4592  0.6335  0.3785
 3739TIP3   OH232707   3.177   5.135   1.794  0.2827 -0.7852 -0.5758
 3739TIP3    H132708   3.143   5.219   1.763  2.9776  0.3999 -0.5466
 3739TIP3    H232709   3.217   5.155   1.878 -0.4554 -2.4842  0.2245
 3740TIP3   OH232710   3.335   1.821   2.074  0.4409  0.2782  0.3306
 3740TIP3    H132711   3.324   1.813   1.979 -0.4235  2.4645  0.1966
 3740TIP3    H232712   3.425   1.852   2.085  0.7966 -0.7102  0.2980
 3741TIP3   OH232713   5.880   5.450   1.996 -0.2132 -0.2206  0.0357
 3741TIP3    H132714   5.827   5.506   2.052 -2.8956  0.2419 -2.6916
 3741TIP3    H232715   5.911   5.508   1.927 -3.0183 -1.8025 -2.8483
 3742TIP3   OH232716   1.671   4.201  14.253  0.7715 -0.1223 -0.1486
 3742TIP3    H132717   1.586   4.158  14.239  0.2658  1.1194 -1.2139
 3742TIP3    H232718   1.735   4.131  14.248 -0.0977 -0.9045 -0.7187
 3743TIP3   OH232719   3.093   1.897  12.253  0.3321 -0.0037 -0.0116
 3743TIP3    H132720   3.115   1.953  12.327  1.9187 -2.0874  1.2229
 3743TIP3    H232721   3.027   1.837  12.287  1.0655 -0.9687 -0.2419
 3744TIP3   OH232722   0.772   4.536   0.753 -0.9306  0.0750 -0.1014
 3744TIP3    H132723   0.797   4.530   0.661 -2.2389  0.9371 -0.5364
 3744TIP3    H232724   0.730   4.452   0.772  0.3157 -0.5326  0.0354
 3745TIP3   OH232725   1.468   4.600   0.662  0.2675 -0.1965 -0.3240
 3745TIP3    H132726   1.516   4.661   0.718 -1.2198  0.1430  0.6314
 3745TIP3    H232727   1.471   4.517   0.709  0.4113 -0.3112 -0.5370
 3746TIP3   OH232728   5.227   1.171  15.275 -0.8660  0.4092 -0.7274
 3746TIP3    H132729   5.193   1.255  15.304  0.1891  0.4181  0.5753
 3746TIP3    H232730   5.230   1.117  15.354  0.6789 -0.0770 -1.0735
 3747TIP3   OH232731   0.828   6.673   5.515  0.1359 -0.0395 -0.6899
 3747TIP3    H132732   0.881   6.751   5.534 -0.2850  0.1705 -0.3355
 3747TIP3    H232733   0.824   6.626   5.599 -2.3185  1.2399  0.0115
 3748TIP3   OH232734   4.758   1.674   4.615  0.1775  0.1927  0.2588
 3748TIP3    H132735   4.778   1.640   4.703 -0.5853 -0.6382  0.1348
 3748TIP3    H232736   4.673   1.717   4.625 -0.8881 -1.6194 -0.4440
 3749TIP3   OH232737   4.752   0.234  13.057 -0.2627 -0.0656  0.0520
 3749TIP3    H132738   4.794   0.230  13.143  0.3442  0.3730 -0.2260
 3749TIP3    H232739   4.795   0.165  13.006 -1.0127 -0.7104  0.2615
 3750TIP3   OH232740   6.033   3.588   3.637 -0.0458  0.0023  0.6955
 3750TIP3    H132741   6.007   3.501   3.667  0.3008 -0.5851 -0.6394
 3750TIP3    H232742   6.127   3.582   3.624 -0.0037  0.6088  0.6959
 3751TIP3   OH232743   1.618   5.024  15.739 -0.1294 -0.0767 -0.3851
 3751TIP3    H132744   1.631   4.939  15.698  0.2940 -0.1543 -0.0989
 3751TIP3    H232745   1.563   5.006  15.815 -0.2639 -0.0535 -0.4767
 3752TIP3   OH232746   1.068   2.574  14.967  0.0476  0.2982 -0.3197
 3752TIP3    H132747   1.046   2.482  14.984 -1.0673  0.6638  0.3670
 3752TIP3    H232748   0.984   2.620  14.977  0.5970  1.3904 -0.6490
 3753TIP3   OH232749   4.250   5.895   2.277 -0.0686 -0.0430 -0.0360
 3753TIP3    H132750   4.299   5.934   2.349  0.7313 -2.8342  1.0319
 3753TIP3    H232751   4.159   5.920   2.294  0.3333  0.8883  0.8423
 3754TIP3   OH232752   3.812   2.599   2.811 -0.1558  0.3283  0.1586
 3754TIP3    H132753   3.890   2.614   2.758 -0.8071  2.5713 -0.2455
 3754TIP3    H232754   3.792   2.684   2.851 -3.0425  0.1626 -0.6851
 3755TIP3   OH232755   5.099   2.672  17.289  0.3020  0.3014  0.2698
 3755TIP3    H132756   5.143   2.737  17.344 -0.8385  1.8687 -0.5871
 3755TIP3    H232757   5.006   2.694  17.297  0.0020 -0.4083 -1.0866
 3756TIP3   OH232758   1.244   4.672  17.033 -0.2213 -0.4662  1.0631
 3756TIP3    H132759   1.221   4.659  17.125 -1.7307 -1.9899  0.5196
 3756TIP3    H232760   1.216   4.592  16.989 -1.1557  0.9016 -1.0153
 3757TIP3   OH232761   2.773   2.547  12.251 -0.1217  0.4488  0.1214
 3757TIP3    H132762   2.762   2.639  12.275  0.2185  0.2281  1.1934
 3757TIP3    H232763   2.829   2.549  12.174  1.1912  1.0883  1.0617
 3758TIP3   OH232764   5.539   0.852  17.213 -0.6040  0.3898 -0.1670
 3758TIP3    H132765   5.545   0.946  17.197  0.4490  0.4467  0.4629
 3758TIP3    H232766   5.446   0.832  17.205 -0.9527  1.6411  0.5545
 3759TIP3   OH232767   0.021   3.080   0.848  0.3527 -0.1709 -0.4239
 3759TIP3    H132768   0.034   3.033   0.930  1.2218  0.8264  0.0328
 3759TIP3    H232769   0.028   3.012   0.780 -0.7052 -1.0588  0.3146
 3760TIP3   OH232770   2.662   5.024  14.372  0.4923  0.5718  0.2034
 3760TIP3    H132771   2.660   5.097  14.433  0.6750  0.3920  0.4263
 3760TIP3    H232772   2.573   4.988  14.374  0.2225  1.1833 -0.3932
 3761TIP3   OH232773   4.177   6.285  15.231  0.1569  0.2792 -0.1119
 3761TIP3    H132774   4.182   6.330  15.315  1.1466  0.9765 -0.5259
 3761TIP3    H232775   4.132   6.202  15.251 -0.3977  0.8064  0.9291
 3762TIP3   OH232776   4.801   2.931  16.189 -0.5313 -0.0592 -0.7748
 3762TIP3    H132777   4.758   2.851  16.220  0.7312 -0.0709  1.1577
 3762TIP3    H232778   4.752   3.002  16.230  1.7559 -0.0996  2.4466
 3763TIP3   OH232779   3.710   3.309  14.572 -0.4877 -0.0714  0.5482
 3763TIP3    H132780   3.633   3.255  14.558 -1.8949  1.6674  1.1655
 3763TIP3    H232781   3.700   3.343  14.661 -0.0111  1.7006 -0.0310
 3764TIP3   OH232782   5.469   5.307   0.753 -0.1701  0.3832  0.4435
 3764TIP3    H132783   5.507   5.369   0.815  0.1777  0.2694  0.3514
 3764TIP3    H232784   5.529   5.309   0.678  0.3548 -0.7285  0.8103
 3765TIP3   OH232785   5.220   4.275  12.061  0.1623 -0.0760 -0.4011
 3765TIP3    H132786   5.165   4.257  12.137  0.9030 -1.1706 -0.1068
 3765TIP3    H232787   5.212   4.370  12.048  1.8778  0.5951  2.5414
 3766TIP3   OH232788   1.015   4.500   4.911  0.6587 -0.2073  0.0992
 3766TIP3    H132789   0.937   4.544   4.877  1.2557 -0.3045 -1.5088
 3766TIP3    H232790   1.032   4.541   4.995 -0.8320  0.1552  0.2427
 3767TIP3   OH232791   5.659   0.083  11.576 -0.6374  0.5139 -0.4063
 3767TIP3    H132792   5.566   0.107  11.571 -0.9908 -1.0452 -2.7929
 3767TIP3    H232793   5.701   0.136  11.509  0.0064  0.4205 -0.0805
 3768TIP3   OH232794   4.360   3.125   2.785 -0.1097  0.0950  0.1964
 3768TIP3    H132795   4.437   3.070   2.773 -0.1301 -0.2433  1.4310
 3768TIP3    H232796   4.286   3.069   2.762 -0.0834 -0.1734  0.7403
 3769TIP3   OH232797   2.821   1.914   0.844 -0.2226 -0.5397  0.7806
 3769TIP3    H132798   2.860   1.894   0.929  0.7027  2.1112  1.0779
 3769TIP3    H232799   2.873   1.865   0.781 -1.1686 -2.8674  1.6911
 3770TIP3   OH232800   0.017   6.588   3.298  0.1228 -0.2806 -0.0915
 3770TIP3    H132801  -0.064   6.569   3.345  1.0072 -1.8568  0.8645
 3770TIP3    H232802   0.005   6.549   3.211  0.1619 -1.2930  0.3421
 3771TIP3   OH232803   1.000   4.569   0.479 -0.4769 -0.1861 -0.0036
 3771TIP3    H132804   0.920   4.523   0.454 -0.1275 -0.8578  0.1052
 3771TIP3    H232805   1.024   4.533   0.564  0.1068 -0.2050 -0.1696
 3772TIP3   OH232806   5.638   4.851  14.814 -0.0456 -0.3831  0.3002
 3772TIP3    H132807   5.662   4.763  14.845 -0.3872  0.2218  2.4018
 3772TIP3    H232808   5.653   4.908  14.889 -3.1655  0.8297  0.1348
 3773TIP3   OH232809   5.469   1.512   4.078 -0.0274  0.3634  0.0226
 3773TIP3    H132810   5.439   1.452   4.146 -0.1446 -0.7235 -0.9611
 3773TIP3    H232811   5.544   1.468   4.038  0.0119  0.9605 -0.5819
 3774TIP3   OH232812   0.242   3.383   2.231 -0.3257 -0.2080 -0.4280
 3774TIP3    H132813   0.168   3.395   2.172  0.4223 -0.5576 -1.4771
 3774TIP3    H232814   0.207   3.334   2.305 -1.1899 -0.1544 -0.7961
 3775TIP3   OH232815   2.259   2.873  17.112 -0.4046 -0.5956  0.5636
 3775TIP3    H132816   2.166   2.857  17.124 -1.0412  1.2478 -1.2547
 3775TIP3    H232817   2.274   2.960  17.149 -0.2348  0.6096 -2.0674
 3776TIP3   OH232818   1.846   0.937  12.343 -0.0843 -0.0498 -0.0505
 3776TIP3    H132819   1.796   0.949  12.424  0.3702 -0.3494  0.2828
 3776TIP3    H232820   1.886   0.850  12.352  1.6445  0.7310  0.3427
 3777TIP3   OH232821   3.332   1.316  11.414 -0.0409  0.2184  0.2830
 3777TIP3    H132822   3.394   1.378  11.377 -0.3675  0.8932  0.8361
 3777TIP3    H232823   3.286   1.280  11.338 -0.0107  0.8301 -0.0366
 3778TIP3   OH232824   1.149   0.677  16.227 -0.2868  0.3985 -0.0180
 3778TIP3    H132825   1.225   0.728  16.198 -0.2918  1.8593  2.3296
 3778TIP3    H232826   1.090   0.741  16.267 -1.2528 -1.1641  1.1722
 3779TIP3   OH232827   3.904   5.248   3.170 -0.0564 -0.0231  0.1344
 3779TIP3    H132828   3.939   5.278   3.086  0.8509 -0.3526  0.3908
 3779TIP3    H232829   3.978   5.254   3.231 -0.4451 -0.7264  0.6875
 3780TIP3   OH232830   2.216   6.335   1.723 -0.0241 -0.3515 -1.1096
 3780TIP3    H132831   2.244   6.357   1.812 -1.7298  1.2948 -0.9208
 3780TIP3    H232832   2.193   6.242   1.727 -0.5721 -0.1710  0.3225
 3781TIP3   OH232833   3.163   5.534  13.416 -0.2957  0.2445  0.1591
 3781TIP3    H132834   3.221   5.464  13.387  0.2168  1.0562 -0.8231
 3781TIP3    H232835   3.075   5.503  13.393  0.0937  1.0446 -2.8636
 3782TIP3   OH232836   4.445   5.956   3.866 -0.2645 -0.6303  0.4300
 3782TIP3    H132837   4.438   6.014   3.791  0.3312 -1.3767 -0.2350
 3782TIP3    H232838   4.364   5.968   3.915 -1.4493 -1.3953 -1.2735
 3783TIP3   OH232839   1.464   4.048   3.915  0.5145 -0.1978  0.2101
 3783TIP3    H132840   1.554   4.014   3.915  0.5821 -0.0137  0.5683
 3783TIP3    H232841   1.426   4.013   3.834  0.3823 -1.6620  0.8847
 3784TIP3   OH232842   4.828   0.019  11.569 -0.0688  0.0773  0.6389
 3784TIP3    H132843   4.838   0.091  11.506 -0.5260 -1.0090 -0.7271
 3784TIP3    H232844   4.779   0.058  11.642  0.8355  1.4794  0.5380
 3785TIP3   OH232845   0.885   1.401   0.624 -0.4861  0.2317  0.1160
 3785TIP3    H132846   0.868   1.494   0.640 -1.2715  0.0967  0.1384
 3785TIP3    H232847   0.816   1.356   0.673 -0.3406 -0.3451 -0.2045
 3786TIP3   OH232848   0.130   1.284  17.613  0.2322 -0.0927  0.1362
 3786TIP3    H132849   0.174   1.365  17.591  0.9551  0.0302  1.9024
 3786TIP3    H232850   0.052   1.311  17.662 -0.2601 -0.4215 -0.4507
 3787TIP3   OH232851   0.946   3.105  11.626 -0.0030  0.1754  0.0335
 3787TIP3    H132852   0.997   3.173  11.671 -0.5094  1.3574 -1.1408
 3787TIP3    H232853   1.010   3.036  11.608  0.8480  0.9653 -0.0496
 3788TIP3   OH232854   1.855   4.121   5.241  0.4006  0.4029 -0.1711
 3788TIP3    H132855   1.893   4.048   5.192 -0.2232 -0.0807  0.0472
 3788TIP3    H232856   1.883   4.199   5.193 -0.2188 -0.0523 -1.3302
 3789TIP3   OH232857   1.681   4.013   6.079 -0.0687 -0.8897  0.1111
 3789TIP3    H132858   1.672   4.014   6.174 -1.5176 -1.4238  0.0064
 3789TIP3    H232859   1.612   4.072   6.048 -1.0389 -2.3929 -0.6762
 3790TIP3   OH232860   5.165   0.772   0.888 -0.3797 -0.1767 -0.5323
 3790TIP3    H132861   5.162   0.858   0.846  0.0245 -0.2045 -0.6234
 3790TIP3    H232862   5.134   0.788   0.978  0.2730  0.1766 -0.3654
 3791TIP3   OH232863   3.818   0.465  16.608 -0.2393 -0.3857 -0.3594
 3791TIP3    H132864   3.739   0.450  16.660 -0.3402 -0.7112 -0.6062
 3791TIP3    H232865   3.828   0.386  16.556 -0.7381  0.3623 -1.6296
 3792TIP3   OH232866   5.527   4.582   1.319 -0.1393  0.6284  0.3876
 3792TIP3    H132867   5.484   4.543   1.243 -0.3700  3.4722 -1.0530
 3792TIP3    H232868   5.455   4.611   1.375 -0.0312  1.2147  0.2290
 3793TIP3   OH232869   2.609   1.019  16.912 -0.0690 -0.1791 -0.4745
 3793TIP3    H132870   2.647   0.939  16.951 -1.0921 -0.6077 -0.3243
 3793TIP3    H232871   2.540   0.986  16.854 -1.3613  0.6346  0.5535
 3794TIP3   OH232872   1.352   1.210   3.896 -0.0533  0.0383 -0.2237
 3794TIP3    H132873   1.373   1.158   3.974 -0.2585 -2.0887 -1.5075
 3794TIP3    H232874   1.427   1.198   3.839 -1.3804 -1.3548 -1.7584
 3795TIP3   OH232875   2.579   2.399  12.752  0.4982 -0.1966 -0.5490
 3795TIP3    H132876   2.553   2.310  12.774 -1.3758  1.0656  3.2790
 3795TIP3    H232877   2.673   2.401  12.768  0.3127 -1.1766  0.8714
 3796TIP3   OH232878   1.645   1.296  13.833 -0.1056 -0.4346  0.7348
 3796TIP3    H132879   1.655   1.234  13.904 -0.8818 -0.7452  0.5889
 3796TIP3    H232880   1.721   1.353  13.839  0.0221 -0.6879  1.5805
 3797TIP3   OH232881   0.495   6.125   6.321 -0.2453  0.0911  0.4624
 3797TIP3    H132882   0.566   6.061   6.325  0.2606  0.6004 -0.1372
 3797TIP3    H232883   0.474   6.144   6.412 -0.4581 -0.9802  0.6488
 3798TIP3   OH232884   4.896   4.902  16.347 -1.0530 -0.2187 -0.1475
 3798TIP3    H132885   4.891   4.992  16.315 -0.5878  0.3067  1.2065
 3798TIP3    H232886   4.916   4.850  16.269 -0.7368  0.9106 -0.8435
 3799TIP3   OH232887   3.457   2.581   2.926 -0.3905 -0.6814 -0.4172
 3799TIP3    H132888   3.410   2.659   2.897  1.0431 -0.5326 -2.5660
 3799TIP3    H232889   3.500   2.608   3.008 -1.1487  0.2667 -0.3149
 3800TIP3   OH232890   4.518   4.710   5.846  0.5157 -0.6036  0.0244
 3800TIP3    H132891   4.584   4.678   5.907  0.2557  0.0963  0.7046
 3800TIP3    H232892   4.452   4.640   5.842  0.2993 -0.4702  0.9351
 3801TIP3   OH232893   3.993   3.121  17.273 -0.2501 -0.0158 -0.0872
 3801TIP3    H132894   3.937   3.196  17.293 -0.4566  0.2465 -1.5717
 3801TIP3    H232895   3.955   3.083  17.194  1.1517 -0.3673 -0.6115
 3802TIP3   OH232896   4.313   2.981  15.217  0.4402  0.2297 -0.2757
 3802TIP3    H132897   4.402   3.009  15.197  0.2911 -0.0084 -1.3665
 3802TIP3    H232898   4.281   2.943  15.135 -0.5044 -0.1041  0.2303
 3803TIP3   OH232899   1.893   2.744  15.465  0.0668 -0.0631 -0.1297
 3803TIP3    H132900   1.904   2.785  15.379 -1.7361  0.4588 -0.1562
 3803TIP3    H232901   1.870   2.816  15.523 -2.6567 -0.8811 -0.0664
 3804TIP3   OH232902   0.019   4.201  15.047 -0.8089 -0.1321  0.4002
 3804TIP3    H132903   0.091   4.151  15.010 -0.5920 -0.7762  1.6347
 3804TIP3    H232904   0.061   4.264  15.106 -1.1729  0.5168 -0.0158
 3805TIP3   OH232905   6.312   1.307   2.853  0.2418 -0.0454  0.3211
 3805TIP3    H132906   6.372   1.245   2.812  0.7093  0.1748  0.6674
 3805TIP3    H232907   6.356   1.392   2.847  0.3148 -0.0065  1.2504
 3806TIP3   OH232908   3.310   3.332  12.910  0.3980  0.3761 -0.1284
 3806TIP3    H132909   3.219   3.300  12.914  0.2523  0.5669 -1.4503
 3806TIP3    H232910   3.358   3.276  12.971 -0.1915 -1.2076 -1.0721
 3807TIP3   OH232911   3.017   5.082  11.838  0.6992 -0.7452 -0.6527
 3807TIP3    H132912   3.008   5.121  11.751  0.6943 -0.0920 -0.3632
 3807TIP3    H232913   3.075   5.007  11.824  0.1865 -1.0312 -1.3338
 3808TIP3   OH232914   6.546   0.571  15.578  0.0522  0.9252 -0.0122
 3808TIP3    H132915   6.609   0.622  15.526 -0.9811  3.3001  0.9188
 3808TIP3    H232916   6.483   0.539  15.514  1.2330 -0.0141 -0.7400
 3809TIP3   OH232917   1.725   1.745   2.597  0.5299  0.0904 -0.0994
 3809TIP3    H132918   1.777   1.665   2.591 -1.2072 -1.1840  0.9822
 3809TIP3    H232919   1.759   1.790   2.675 -0.0788 -0.8371  0.7240
 3810TIP3   OH232920   3.354   0.734  14.735  0.5096  0.1455 -0.0629
 3810TIP3    H132921   3.410   0.810  14.747 -0.1911  0.6002  0.3978
 3810TIP3    H232922   3.303   0.754  14.657 -2.0908  1.7324  1.8606
 3811TIP3   OH232923   0.680   4.420  11.616 -0.0885  0.1808 -0.0939
 3811TIP3    H132924   0.723   4.370  11.547  0.4113  0.2200  0.1866
 3811TIP3    H232925   0.613   4.360  11.650 -0.5038  0.2457 -0.7647
 3812TIP3   OH232926   3.036   5.494  12.671  0.1466  0.3022  0.0421
 3812TIP3    H132927   3.071   5.563  12.613  0.6364  0.2622  0.2829
 3812TIP3    H232928   3.049   5.529  12.759 -2.5193  1.2907  0.1246
 3813TIP3   OH232929   0.350   0.607  11.320  0.3949 -0.3521 -0.3899
 3813TIP3    H132930   0.431   0.614  11.271  0.9852  0.4759  0.6660
 3813TIP3    H232931   0.298   0.682  11.291  1.0580  0.5861  0.7760
 3814TIP3   OH232932   0.667   1.549  14.550 -0.1314 -0.6451 -0.0002
 3814TIP3    H132933   0.737   1.612  14.569  1.1695 -1.5746 -1.4636
 3814TIP3    H232934   0.650   1.560  14.457 -0.6971 -1.6624 -0.0256
 3815TIP3   OH232935   5.981   4.661  13.615 -0.5165  0.1059 -0.8328
 3815TIP3    H132936   6.017   4.709  13.690  0.2633  0.0718 -1.1855
 3815TIP3    H232937   6.049   4.663  13.549 -1.1423  0.0010 -1.4994
 3816TIP3   OH232938   6.738   1.284   1.983  0.1980 -0.7084 -0.0631
 3816TIP3    H132939   6.798   1.337   2.036  0.3176 -2.0733  1.2556
 3816TIP3    H232940   6.661   1.273   2.039  0.0149 -1.5653 -0.4605
 3817TIP3   OH232941   6.369   3.138  10.967  0.4406  0.2329  0.0476
 3817TIP3    H132942   6.301   3.107  10.907  0.6550 -0.2203  0.0340
 3817TIP3    H232943   6.447   3.086  10.944  0.4534 -0.1524  0.8970
 3818TIP3   OH232944   6.026   4.109  14.367  0.2455 -0.0969 -0.2470
 3818TIP3    H132945   6.068   4.083  14.449  0.2766 -1.4006 -0.6620
 3818TIP3    H232946   6.088   4.169  14.326  1.0113 -0.8006 -0.1275
 3819TIP3   OH232947   1.161   5.660  12.516  0.0858  0.0985 -0.2829
 3819TIP3    H132948   1.140   5.639  12.425 -0.7542  0.6932 -0.2388
 3819TIP3    H232949   1.135   5.582  12.565 -2.2573  0.8383 -0.2170
 3820TIP3   OH232950   1.249   0.999  10.992  0.8667  0.8249  0.1931
 3820TIP3    H132951   1.172   1.050  11.018 -0.4496 -1.3951  0.9249
 3820TIP3    H232952   1.289   0.972  11.075  3.2440  2.9674 -0.1551
 3821TIP3   OH232953   6.680   6.318  14.854  0.1075  0.3891  0.8262
 3821TIP3    H132954   6.771   6.336  14.880 -0.1876 -0.0573  2.2099
 3821TIP3    H232955   6.633   6.398  14.878  0.0365  0.4322  0.5486
 3822TIP3   OH232956   3.842   6.042  14.720 -0.7613  0.2409  0.2232
 3822TIP3    H132957   3.761   6.092  14.705 -1.8488 -1.1157  1.2884
 3822TIP3    H232958   3.881   6.083  14.797  0.4189  1.8603 -1.1606
 3823TIP3   OH232959   1.011   3.150  12.046 -0.1804 -0.6215 -0.1624
 3823TIP3    H132960   0.981   3.088  11.980  0.7103 -1.6874  0.3887
 3823TIP3    H232961   1.040   3.095  12.119  1.2406  0.3951  0.0918
 3824TIP3   OH232962   0.182   1.155  15.308  0.1279  0.3832 -0.5540
 3824TIP3    H132963   0.129   1.213  15.253 -3.6581 -0.6110  1.6534
 3824TIP3    H232964   0.224   1.214  15.371 -1.2993  1.0198 -0.1535
 3825TIP3   OH232965   4.980   3.326  16.534  0.9148 -0.2678  0.1993
 3825TIP3    H132966   5.045   3.292  16.473  0.0192 -0.8264 -0.4512
 3825TIP3    H232967   4.914   3.257  16.541 -0.1388  0.7021  0.0519
 3826TIP3   OH232968   0.527   5.012   0.297  0.2302 -0.1122  0.2069
 3826TIP3    H132969   0.441   5.001   0.338  0.5367  0.4596  1.0357
 3826TIP3    H232970   0.532   4.942   0.232 -1.1473  0.2864 -0.3622
 3827TIP3   OH232971   6.000   0.151   5.701 -0.6776 -0.0550  0.0192
 3827TIP3    H132972   5.956   0.113   5.625 -0.3991 -2.4545  0.9770
 3827TIP3    H232973   6.094   0.139   5.682 -0.5439  0.8879  0.0205
 3828TIP3   OH232974   0.903   2.779   0.068 -0.7121  0.0967 -0.3652
 3828TIP3    H132975   0.965   2.728   0.121 -0.3447  2.2429  1.4172
 3828TIP3    H232976   0.901   2.733  -0.016  0.8558 -1.8602  0.5598
 3829TIP3   OH232977   4.078   2.815  15.293  0.1733 -0.2514 -0.2679
 3829TIP3    H132978   4.036   2.743  15.341 -1.1171 -0.4185 -1.5514
 3829TIP3    H232979   4.135   2.771  15.230  2.0058 -0.0304  1.1470
 3830TIP3   OH232980   4.234   0.224   0.938  0.1261  0.3454  0.3305
 3830TIP3    H132981   4.261   0.259   0.853  0.1912 -0.7174 -0.1011
 3830TIP3    H232982   4.218   0.131   0.922 -1.8601  0.5336  1.0410
 3831TIP3   OH232983   2.603   6.600   0.439 -0.0049  0.1217  0.6685
 3831TIP3    H132984   2.581   6.667   0.504  2.4619 -0.4334  2.2122
 3831TIP3    H232985   2.641   6.528   0.490  0.5017 -1.0543 -1.2510
 3832TIP3   OH232986   0.064   1.797   1.808  0.9793  0.1366 -0.2490
 3832TIP3    H132987   0.039   1.887   1.829  0.6218  0.4682 -1.9846
 3832TIP3    H232988   0.151   1.804   1.769  0.9289 -0.2684 -0.4406
 3833TIP3   OH232989   0.387   1.604  12.149 -0.5051 -0.0306  0.1864
 3833TIP3    H132990   0.386   1.650  12.233 -0.0246 -0.5286  0.4677
 3833TIP3    H232991   0.478   1.607  12.120 -0.8779  1.3424 -1.0106
 3834TIP3   OH232992   6.090   6.230  16.044 -0.1741 -0.5933  0.1411
 3834TIP3    H132993   6.025   6.176  16.088  0.4472  0.7476  2.9112
 3834TIP3    H232994   6.041   6.305  16.010 -0.6002 -1.4714 -1.2819
 3835TIP3   OH232995   4.710   6.492   3.340 -0.6789  0.2870 -0.4102
 3835TIP3    H132996   4.800   6.459   3.350 -0.8867 -0.8182 -1.8797
 3835TIP3    H232997   4.700   6.554   3.412  0.7330 -0.7205  0.7368
 3836TIP3   OH232998   3.793   6.252   0.779 -0.1009 -0.1554  0.3070
 3836TIP3    H132999   3.791   6.156   0.783  2.4265 -0.2712  0.0122
 3836TIP3    H233000   3.842   6.272   0.700 -1.3117  1.4398 -0.0892
 3837TIP3   OH233001   4.343   4.441   4.861  0.0555  0.2994  0.4239
 3837TIP3    H133002   4.273   4.507   4.859 -1.5358 -1.3028  0.8928
 3837TIP3    H233003   4.309   4.372   4.917  1.9832 -0.6208  0.5207
 3838TIP3   OH233004   2.189   1.938  12.504  0.8473  0.1003  0.7834
 3838TIP3    H133005   2.152   1.877  12.440  1.6695 -1.0339  1.3716
 3838TIP3    H233006   2.162   1.904  12.589  0.7834  0.9266  1.1097
 3839TIP3   OH233007   5.175   2.720   3.625  0.4327  0.3265 -0.1660
 3839TIP3    H133008   5.134   2.778   3.561  0.5825  1.3004  0.5981
 3839TIP3    H233009   5.218   2.652   3.573 -0.5631  0.3507 -1.0428
 3840TIP3   OH233010   0.752   0.695  14.243  0.2672 -0.3644 -0.1745
 3840TIP3    H133011   0.718   0.721  14.157  0.3275  0.3051  0.0008
 3840TIP3    H233012   0.681   0.645  14.282 -0.0734  0.0205 -0.2884
 3841TIP3   OH233013   4.419   0.389   4.221 -0.5519 -0.0578 -0.1004
 3841TIP3    H133014   4.407   0.308   4.171 -0.9003  0.0622 -0.2166
 3841TIP3    H233015   4.338   0.398   4.272 -1.7377  1.5815 -2.0667
 3842TIP3   OH233016   4.710   5.335  16.594 -0.1573  0.2823 -0.0128
 3842TIP3    H133017   4.632   5.390  16.587 -0.5705 -0.0873  1.4365
 3842TIP3    H233018   4.782   5.397  16.608 -0.6346  0.4862  1.7121
 3843TIP3   OH233019   0.958   2.732  13.276  0.0393  0.3817  0.2823
 3843TIP3    H133020   0.885   2.784  13.242  0.6998  1.5187  0.5657
 3843TIP3    H233021   0.943   2.644  13.241 -0.9310  0.8282 -0.4670
 3844TIP3   OH233022   1.456   6.387  16.326 -0.5164  0.5943 -0.6409
 3844TIP3    H133023   1.497   6.451  16.268 -1.1579  3.1025  1.4404
 3844TIP3    H233024   1.372   6.367  16.285  0.1982  0.1166 -1.9196
 3845TIP3   OH233025   3.368   2.912  14.227 -0.4296 -0.2376  0.3018
 3845TIP3    H133026   3.424   2.935  14.154 -0.0999 -0.7409  0.3843
 3845TIP3    H233027   3.412   2.837  14.268 -1.8948 -1.5946 -0.5012
 3846TIP3   OH233028   4.537   0.394  16.596 -0.2394  0.6138 -0.0335
 3846TIP3    H133029   4.474   0.443  16.544  0.1582  0.1136 -1.0132
 3846TIP3    H233030   4.596   0.355  16.531  2.0477  2.3292  0.8623
 3847TIP3   OH233031   1.085   0.754  14.596 -0.8061 -0.3574 -0.0181
 3847TIP3    H133032   1.004   0.804  14.597 -0.7607 -0.2836 -0.0551
 3847TIP3    H233033   1.153   0.819  14.581 -0.8762 -0.6186 -1.6536
 3848TIP3   OH233034   4.974   5.079   6.651 -0.2081 -0.1241  0.2578
 3848TIP3    H133035   5.054   5.121   6.619  0.0884 -2.4992 -2.5973
 3848TIP3    H233036   4.903   5.133   6.616  0.1342  0.4414  0.4198
 3849TIP3   OH233037   1.534   3.183  13.610 -0.4981  0.6047  0.1831
 3849TIP3    H133038   1.487   3.214  13.532  0.4131 -1.3969 -1.2552
 3849TIP3    H233039   1.468   3.179  13.678 -2.4120 -1.7252 -1.6472
 3850TIP3   OH233040   4.584   3.019  13.749  0.1001  0.4934  0.0140
 3850TIP3    H133041   4.660   3.074  13.730  1.2927 -1.0774 -0.0308
 3850TIP3    H233042   4.544   3.003  13.663 -0.6646  1.7946  0.1012
 3851TIP3   OH233043   1.233   4.406   5.672 -0.3894 -0.1988 -0.1164
 3851TIP3    H133044   1.277   4.331   5.712 -1.0881 -0.3366  0.4215
 3851TIP3    H233045   1.212   4.378   5.583  0.0440 -0.3512 -0.1742
 3852TIP3   OH233046   0.140   0.731  11.974 -0.0517 -0.5132  0.5958
 3852TIP3    H133047   0.101   0.737  11.887 -0.4916 -0.4363  0.7985
 3852TIP3    H233048   0.170   0.820  11.993 -1.3393 -0.1818  1.1610
 3853TIP3   OH233049   1.066   2.938   1.865  0.7664  0.0810  0.8208
 3853TIP3    H133050   1.014   2.881   1.921 -1.9918  3.5609  2.1588
 3853TIP3    H233051   1.012   2.950   1.786  1.5363  0.4374  0.3380
 3854TIP3   OH233052   2.371   4.174  15.722  0.0309 -0.1760  0.2100
 3854TIP3    H133053   2.305   4.133  15.665 -0.3511 -0.8544  1.1235
 3854TIP3    H233054   2.344   4.266  15.726  0.7409  0.1699 -1.6358
 3855TIP3   OH233055   2.341   2.496  12.076  0.1438 -0.0140  0.0356
 3855TIP3    H133056   2.307   2.546  12.150  0.9992  0.0908  0.3777
 3855TIP3    H233057   2.429   2.469  12.104 -0.4524 -2.0788  0.0339
 3856TIP3   OH233058   5.804   2.629  12.158 -0.4067 -0.0418  0.1938
 3856TIP3    H133059   5.866   2.587  12.099  1.2552  0.7112  1.3254
 3856TIP3    H233060   5.740   2.672  12.101 -0.6269 -1.8441 -0.9855
 3857TIP3   OH233061   1.850   0.144   2.722 -0.5291 -0.1843 -0.2248
 3857TIP3    H133062   1.905   0.159   2.799 -0.0690 -2.0115 -0.1481
 3857TIP3    H233063   1.865   0.221   2.667  0.1230  0.5498  0.9384
 3858TIP3   OH233064   2.253   1.158   1.834 -0.6086 -0.2440  0.2588
 3858TIP3    H133065   2.326   1.202   1.790 -0.2327 -0.3288  0.7895
 3858TIP3    H233066   2.221   1.222   1.898 -0.6308 -0.4174  0.4224
 3859TIP3   OH233067   3.588   4.188   5.617  0.0399 -0.2556 -0.3773
 3859TIP3    H133068   3.502   4.147   5.620 -0.4672  0.8243  0.7139
 3859TIP3    H233069   3.574   4.272   5.573  0.0972  0.7842  1.4696
 3860TIP3   OH233070   3.698   4.161  12.060 -0.3321 -0.2791  0.1610
 3860TIP3    H133071   3.785   4.126  12.040 -0.8660 -1.5397 -0.0684
 3860TIP3    H233072   3.700   4.180  12.154  0.9516  2.0378 -0.2556
 3861TIP3   OH233073   6.332   0.344   5.554  0.7187 -0.3237 -0.3422
 3861TIP3    H133074   6.259   0.385   5.507 -0.0512 -1.4017 -0.1358
 3861TIP3    H233075   6.347   0.401   5.629 -0.5032 -0.5332  0.0869
 3862TIP3   OH233076   3.734   5.558  16.256 -0.0183  0.1085 -0.5408
 3862TIP3    H133077   3.800   5.571  16.324  0.2125  1.7106 -1.0368
 3862TIP3    H233078   3.712   5.646  16.226 -1.3901 -0.4662 -1.3443
 3863TIP3   OH233079   4.742   0.103   1.402 -0.4312 -0.3396 -0.1833
 3863TIP3    H133080   4.828   0.140   1.382  0.0128  1.0893  3.4838
 3863TIP3    H233081   4.680   0.166   1.366  0.2633  1.7688  2.0298
 3864TIP3   OH233082   3.746   4.181   0.879 -0.4195 -0.1491  0.1067
 3864TIP3    H133083   3.702   4.263   0.899 -0.3805  0.0041 -0.4031
 3864TIP3    H233084   3.836   4.207   0.859 -0.0200 -0.4897  1.4021
 3865TIP3   OH233085   3.891   1.222   0.200  0.2313 -0.6040 -0.4678
 3865TIP3    H133086   3.934   1.290   0.253  0.8074 -0.5731 -0.9534
 3865TIP3    H233087   3.963   1.182   0.150 -0.0780 -1.6961 -0.0633
 3866TIP3   OH233088   6.362   4.540  15.969  0.0313  0.0943 -0.3107
 3866TIP3    H133089   6.319   4.625  15.982 -1.0157 -0.6819  1.6390
 3866TIP3    H233090   6.423   4.533  16.042  0.7331 -0.4771 -0.9420
 3867TIP3   OH233091   1.185   0.403  17.503 -0.2143  0.0232 -0.3826
 3867TIP3    H133092   1.210   0.338  17.438  0.3443 -0.7721  0.6174
 3867TIP3    H233093   1.249   0.394  17.573 -0.8160  0.8612  0.2982
 3868TIP3   OH233094   6.457   6.122   5.111  0.6731 -0.1640 -0.4809
 3868TIP3    H133095   6.402   6.069   5.167  1.8505  0.0729  0.9532
 3868TIP3    H233096   6.401   6.145   5.036 -0.7030 -1.0638  0.2456
 3869TIP3   OH233097   1.185   1.676   0.606  0.0220  0.0586 -0.2992
 3869TIP3    H133098   1.130   1.707   0.535 -0.9430 -2.9332 -1.0192
 3869TIP3    H233099   1.255   1.627   0.563 -0.1786 -1.2129  0.7544
 3870TIP3   OH233100   2.414   4.051   3.013  0.1025  0.0459  0.0752
 3870TIP3    H133101   2.445   4.134   2.977 -1.9243 -0.0196 -2.0554
 3870TIP3    H233102   2.330   4.071   3.053  0.1767 -0.7765  0.6879
 3871TIP3   OH233103   2.169   1.643  16.891  0.3041  0.0563 -0.8376
 3871TIP3    H133104   2.196   1.735  16.897 -0.1137  0.2413 -1.6647
 3871TIP3    H233105   2.244   1.598  16.851  0.7535 -0.0868  0.1437
 3872TIP3   OH233106   0.534   0.165  14.092  0.4029 -0.2510 -0.1864
 3872TIP3    H133107   0.461   0.226  14.104 -0.2199 -0.7075 -1.3844
 3872TIP3    H233108   0.568   0.186  14.005  1.2559 -0.5028  0.0824
 3873TIP3   OH233109   4.158   5.944   1.684 -0.1258  0.5377  0.9250
 3873TIP3    H133110   4.191   5.870   1.634  0.7900  1.0722  0.7002
 3873TIP3    H233111   4.185   6.021   1.633 -0.5269  1.0364  1.4528
 3874TIP3   OH233112   1.066   1.111  14.320 -0.4253 -0.1982  0.2239
 3874TIP3    H133113   1.145   1.103  14.266  0.0309  0.0484  0.8492
 3874TIP3    H233114   1.001   1.059  14.274  0.0776 -0.3410 -0.3437
 3875TIP3   OH233115   1.412   3.151  16.776  0.4517  0.3453  0.2602
 3875TIP3    H133116   1.377   3.064  16.796 -0.6859  0.4552 -1.1042
 3875TIP3    H233117   1.497   3.133  16.736  0.7538 -0.0627  1.0527
 3876TIP3   OH233118   3.448   5.542   1.866 -0.0925 -0.3304  0.2515
 3876TIP3    H133119   3.442   5.447   1.859  0.3055 -0.4279  1.1293
 3876TIP3    H233120   3.391   5.575   1.796  0.0399 -1.2082 -0.2823
 3877TIP3   OH233121   4.085   0.641   0.303  0.1470 -0.8627 -0.1285
 3877TIP3    H133122   4.066   0.730   0.272 -0.8118 -0.8763  0.3867
 3877TIP3    H233123   4.134   0.600   0.231 -1.3478 -0.6394 -1.3086
 3878TIP3   OH233124   0.442   3.360  16.062 -0.0114  0.3464 -0.1413
 3878TIP3    H133125   0.369   3.317  16.107  0.8319 -1.1814 -0.1626
 3878TIP3    H233126   0.503   3.383  16.132  1.2557 -1.9422 -0.3637
 3879TIP3   OH233127   6.121   4.421   0.452  0.5137 -0.1718  0.2762
 3879TIP3    H133128   6.160   4.482   0.516  0.9734 -0.3162  0.1406
 3879TIP3    H233129   6.031   4.450   0.443  0.2304 -0.5912  1.5503
 3880TIP3   OH233130   5.203   2.361   1.994 -0.1608  0.9280 -0.0407
 3880TIP3    H133131   5.263   2.332   2.063  0.3519  2.3628  0.1401
 3880TIP3    H233132   5.141   2.418   2.039 -0.6077  0.8584 -0.5556
 3881TIP3   OH233133   1.515   4.947   4.307 -0.0854  0.3255 -0.1161
 3881TIP3    H133134   1.492   4.900   4.388  0.2875 -1.6534 -1.1025
 3881TIP3    H233135   1.481   4.892   4.237 -1.3462  2.5477 -1.3337
 3882TIP3   OH233136   3.944   6.456  15.740 -0.3073  0.4473  0.2963
 3882TIP3    H133137   3.883   6.420  15.805  1.2823 -1.0777  1.0084
 3882TIP3    H233138   3.938   6.551  15.752 -1.3698  0.2669  1.4295
 3883TIP3   OH233139   3.869   5.015  16.590  0.3272 -0.0263  0.5150
 3883TIP3    H133140   3.894   4.923  16.588 -0.4216 -0.2489 -1.4943
 3883TIP3    H233141   3.797   5.021  16.526 -0.0803  1.8263  1.0977
 3884TIP3   OH233142   1.293   1.420   5.943 -0.2510 -0.3012 -0.1008
 3884TIP3    H133143   1.373   1.378   5.974 -1.2902 -1.4545  1.1531
 3884TIP3    H233144   1.273   1.375   5.861 -1.6920 -2.8788  1.5252
 3885TIP3   OH233145   3.093   1.117  17.422  0.4315 -0.1235  0.3618
 3885TIP3    H133146   3.170   1.060  17.426  0.7033  0.3148  2.9251
 3885TIP3    H233147   3.129   1.205  17.412  0.0819 -0.1609 -1.6500
 3886TIP3   OH233148   3.225   4.071  14.032 -0.1329  0.6280 -0.0614
 3886TIP3    H133149   3.276   4.088  14.111  0.8028 -1.9798 -0.0070
 3886TIP3    H233150   3.136   4.053  14.063  0.5504 -1.9341  0.6852
 3887TIP3   OH233151   2.160   1.669   4.305 -0.3628 -0.1795  0.6155
 3887TIP3    H133152   2.200   1.745   4.348 -0.3293  2.3756 -3.4424
 3887TIP3    H233153   2.083   1.704   4.260 -0.8467 -2.7361 -0.7466
 3888TIP3   OH233154   4.859   1.597  14.569  0.0552  0.0770  0.5211
 3888TIP3    H133155   4.876   1.665  14.635  1.0512 -0.1624  0.5309
 3888TIP3    H233156   4.807   1.642  14.502 -1.8908  0.0504  1.9369
 3889TIP3   OH233157   6.644   5.236   5.706  0.0429  0.5388 -0.4147
 3889TIP3    H133158   6.551   5.234   5.731  0.1245  0.1039 -0.1281
 3889TIP3    H233159   6.677   5.149   5.730  0.1611  0.1319 -1.9320
 3890TIP3   OH233160   3.232   5.275   3.821  0.3018 -0.1268 -0.5242
 3890TIP3    H133161   3.296   5.256   3.752 -0.2008 -1.9259 -0.5346
 3890TIP3    H233162   3.258   5.220   3.894  0.2590  1.0569  0.4252
 3891TIP3   OH233163   0.764   2.280  15.513 -0.3484 -0.0464  0.1721
 3891TIP3    H133164   0.730   2.268  15.602 -2.4381  2.1599 -0.2113
 3891TIP3    H233165   0.835   2.216  15.506  0.4758  0.2250  3.7012
 3892TIP3   OH233166   3.577   2.754   3.742  0.0214 -0.4311  0.0469
 3892TIP3    H133167   3.672   2.752   3.735  0.0423 -2.2403  0.5186
 3892TIP3    H233168   3.552   2.665   3.767 -1.6958  0.2942  1.1504
 3893TIP3   OH233169   6.611   0.319  16.434  0.6836  0.3956 -0.5485
 3893TIP3    H133170   6.524   0.309  16.471  0.3477  2.2278 -0.7581
 3893TIP3    H233171   6.670   0.289  16.504 -0.0781 -0.4466 -0.2466
 3894TIP3   OH233172   3.192   5.519  14.339 -0.1210  0.1615 -0.2764
 3894TIP3    H133173   3.144   5.587  14.386 -1.4388 -1.8783  1.5518
 3894TIP3    H233174   3.278   5.515  14.382 -1.0648 -1.1978  1.6602
 3895TIP3   OH233175   6.536   1.213  14.778 -0.6593 -0.1791 -0.0354
 3895TIP3    H133176   6.572   1.125  14.766  3.0510  0.6089  3.1186
 3895TIP3    H233177   6.506   1.215  14.869 -1.2579  1.6526 -0.2264
 3896TIP3   OH233178   5.664   0.687  16.179 -0.0859 -0.0714 -0.8315
 3896TIP3    H133179   5.622   0.636  16.110 -1.7018 -0.0199  0.0513
 3896TIP3    H233180   5.603   0.759  16.195  1.1031  0.8997 -0.5438
 3897TIP3   OH233181   0.283   2.214  16.543 -0.1032 -0.5744  0.3465
 3897TIP3    H133182   0.282   2.209  16.447  0.1766 -0.8455  0.3529
 3897TIP3    H233183   0.218   2.280  16.565 -0.4851 -0.8264 -0.0133
 3898TIP3   OH233184   3.131   0.450   4.361  0.0130  0.4419  0.0003
 3898TIP3    H133185   3.064   0.511   4.390 -0.4924 -0.6859  1.3119
 3898TIP3    H233186   3.198   0.453   4.429 -0.1206 -0.5965  0.1999
 3899TIP3   OH233187   5.829   5.178  12.838  0.3989  0.0536  0.4675
 3899TIP3    H133188   5.803   5.161  12.928  1.2392  0.0947  0.7317
 3899TIP3    H233189   5.903   5.239  12.846  2.5515 -2.3014 -0.0364
 3900TIP3   OH233190   0.443   5.779   0.851  0.0450  0.9091  0.5363
 3900TIP3    H133191   0.411   5.833   0.923  1.0909  2.6780 -0.2492
 3900TIP3    H233192   0.448   5.690   0.887 -1.3273  1.3915  2.0093
 3901TIP3   OH233193   4.879   0.053  12.908 -0.3356  0.1397 -0.4508
 3901TIP3    H133194   4.823   0.041  12.831 -0.1212 -0.3897 -0.5316
 3901TIP3    H233195   4.941   0.121  12.882 -0.1578 -0.1547 -0.8100
 3902TIP3   OH233196   4.778   2.575   0.568 -0.1499  0.2030  0.5517
 3902TIP3    H133197   4.712   2.613   0.510  1.8783  1.0613 -1.3509
 3902TIP3    H233198   4.739   2.493   0.599 -2.6915  1.4146  0.7994
 3903TIP3   OH233199   2.297   2.405   2.728 -0.3376 -0.2453  0.5074
 3903TIP3    H133200   2.213   2.449   2.737 -0.5728 -0.1035 -1.7523
 3903TIP3    H233201   2.276   2.312   2.736 -0.9774 -0.2944 -1.3323
 3904TIP3   OH233202   0.107   4.117   3.800 -0.1536 -0.4534  0.1765
 3904TIP3    H133203   0.071   4.121   3.889 -0.0425  0.6669  0.1923
 3904TIP3    H233204   0.174   4.049   3.805 -1.5395 -1.8345  0.4082
 3905TIP3   OH233205   0.574   4.992  11.874  0.2317 -0.2957  0.5246
 3905TIP3    H133206   0.571   5.025  11.784 -0.9216 -1.5402  0.0701
 3905TIP3    H233207   0.667   4.973  11.889  0.5732  0.8820 -0.0257
 3906TIP3   OH233208   0.184   5.007   3.902 -0.4675 -0.4507 -0.5334
 3906TIP3    H133209   0.195   4.946   3.975  0.5258  0.9967  0.5947
 3906TIP3    H233210   0.179   5.093   3.943 -0.2711  0.3826 -2.1648
 3907TIP3   OH233211   1.459   5.931  17.246 -0.2439  0.1912  0.7214
 3907TIP3    H133212   1.527   5.934  17.179 -1.0104 -0.2532 -0.0929
 3907TIP3    H233213   1.507   5.936  17.329  0.6104  3.1070  0.1757
 3908TIP3   OH233214   5.759   6.641   4.145 -0.3398  0.1003  0.4173
 3908TIP3    H133215   5.719   6.728   4.156  0.1868  0.5750 -1.1398
 3908TIP3    H233216   5.749   6.622   4.052  0.5599 -1.0241  0.5320
 3909TIP3   OH233217   6.408   5.406   2.979 -0.2573  0.3408 -0.1147
 3909TIP3    H133218   6.339   5.449   3.030 -1.0923 -0.5447 -0.4466
 3909TIP3    H233219   6.406   5.451   2.894  0.3788  1.0887  0.2642
 3910TIP3   OH233220   2.822   0.532   2.047  0.5250  0.0552  0.2105
 3910TIP3    H133221   2.821   0.457   1.987 -0.0815 -0.2184  0.5532
 3910TIP3    H233222   2.744   0.582   2.024  1.7358  1.4641 -1.0841
 3911TIP3   OH233223   4.443   5.940   5.945 -0.3139  0.0327 -0.1886
 3911TIP3    H133224   4.420   5.849   5.961 -0.3427  0.0853  0.0692
 3911TIP3    H233225   4.523   5.954   5.995 -0.4186  0.2050 -0.0694
 3912TIP3   OH233226   1.460   5.779  16.878 -0.5335 -0.1855  0.7115
 3912TIP3    H133227   1.445   5.701  16.931  0.4567 -0.2720  0.8857
 3912TIP3    H233228   1.549   5.806  16.900 -0.6011  0.5655  0.1032
 3913TIP3   OH233229   2.277   1.672  13.139 -0.1238 -0.3734  0.2536
 3913TIP3    H133230   2.336   1.718  13.198 -0.3054 -1.7384  1.5518
 3913TIP3    H233231   2.196   1.724  13.141  0.6120  0.8919 -0.6891
 3914TIP3   OH233232   2.422   6.092   2.490 -0.8084 -0.2299 -0.0810
 3914TIP3    H133233   2.407   6.187   2.493 -0.8938 -0.1030 -2.2963
 3914TIP3    H233234   2.488   6.075   2.557  0.5439  1.7053 -0.8380
 3915TIP3   OH233235   4.524   2.392  11.691  0.1613 -0.0510 -0.0582
 3915TIP3    H133236   4.500   2.485  11.687 -0.0395  0.1943  3.3939
 3915TIP3    H233237   4.597   2.389  11.753 -1.0357 -2.3540  1.3784
 3916TIP3   OH233238   3.167   0.797  17.227 -0.8357  0.2067  0.0128
 3916TIP3    H133239   3.240   0.847  17.264 -0.9605  0.5706 -0.2238
 3916TIP3    H233240   3.115   0.771  17.303  0.5390 -1.6867  0.3608
 3917TIP3   OH233241   6.033   6.085   3.525 -0.3060  0.3448  0.2514
 3917TIP3    H133242   6.084   6.005   3.509 -2.0121 -0.3476 -2.2779
 3917TIP3    H233243   6.063   6.146   3.457 -0.3387  1.2387  1.0156
 3918TIP3   OH233244   5.687   4.618  15.418  0.3624  0.4727  0.3194
 3918TIP3    H133245   5.599   4.641  15.387  0.2225  1.1550  1.1783
 3918TIP3    H233246   5.695   4.525  15.399 -0.4577  0.4509  0.0146
 3919TIP3   OH233247   2.999   1.743  12.632  0.0088 -0.4917  0.3259
 3919TIP3    H133248   3.037   1.769  12.716  1.0688  1.3102 -0.6428
 3919TIP3    H233249   2.907   1.727  12.651  0.1413  0.3075  1.7471
 3920TIP3   OH233250   1.979   4.297   0.066 -0.3051 -0.0219 -0.0186
 3920TIP3    H133251   2.016   4.220   0.022 -0.2828  0.6889 -1.2861
 3920TIP3    H233252   1.885   4.282   0.063 -0.3418  0.3484 -0.9521
 3921TIP3   OH233253   0.883   4.053   1.297 -0.3044 -0.0453 -0.0890
 3921TIP3    H133254   0.807   3.997   1.312 -0.4866 -0.0019 -0.8467
 3921TIP3    H233255   0.954   3.992   1.278 -0.6184 -0.0163 -1.4313
 3922TIP3   OH233256   2.056   3.296   3.329  0.0389 -0.6369 -0.1891
 3922TIP3    H133257   1.971   3.256   3.347  0.9679 -2.6727 -0.0866
 3922TIP3    H233258   2.106   3.227   3.285  2.0383  0.1073  0.8198
 3923TIP3   OH233259   3.679   5.852   0.301 -0.6866 -0.8214  0.2966
 3923TIP3    H133260   3.685   5.759   0.321 -0.1820 -0.8374  0.1017
 3923TIP3    H233261   3.722   5.861   0.216  0.2518 -0.2627  0.8020
 3924TIP3   OH233262   5.076   2.044  14.306  0.1707 -0.4181 -0.1110
 3924TIP3    H133263   5.012   1.975  14.289 -0.8041  0.2938  0.5539
 3924TIP3    H233264   5.030   2.125  14.288  0.2780  0.1997  2.0780
 3925TIP3   OH233265   5.319   0.775  13.723 -0.4351 -0.2097  0.1873
 3925TIP3    H133266   5.317   0.851  13.666  1.0723 -0.3283 -0.0602
 3925TIP3    H233267   5.233   0.734  13.712 -0.9742  1.0204 -0.2558
 3926TIP3   OH233268   0.206   5.796   1.783  0.2730  0.2252  0.5741
 3926TIP3    H133269   0.199   5.729   1.851 -1.7894  0.2640  0.4662
 3926TIP3    H233270   0.188   5.878   1.830  1.1389  0.5279  0.3926
 3927TIP3   OH233271   0.314   4.922   5.683 -0.2779  0.6849  0.0701
 3927TIP3    H133272   0.372   4.861   5.637 -1.5288  1.1391 -2.2452
 3927TIP3    H233273   0.370   4.962   5.750  1.6734  0.0342 -1.0976
 3928TIP3   OH233274   3.167   6.060   1.735  0.0444 -0.0845 -0.6516
 3928TIP3    H133275   3.138   6.053   1.644  0.1238  0.3788 -0.7141
 3928TIP3    H233276   3.243   6.119   1.731  1.0923 -1.3610 -0.5219
 3929TIP3   OH233277   5.623   4.079   0.171 -0.2654 -0.7133  0.6590
 3929TIP3    H133278   5.528   4.076   0.181 -0.1671 -0.2389  1.9854
 3929TIP3    H233279   5.655   4.005   0.223  0.1400 -0.0606  1.3647
 3930TIP3   OH233280   0.694   0.390   1.994 -0.4796  0.2671  0.6563
 3930TIP3    H133281   0.613   0.342   2.008 -0.9673  0.8658 -0.0467
 3930TIP3    H233282   0.703   0.395   1.899 -0.1952  1.1523  0.7198
 3931TIP3   OH233283   3.278   2.772  12.170 -0.1385  0.3167  0.2376
 3931TIP3    H133284   3.236   2.767  12.256  1.4667  2.2600  1.2323
 3931TIP3    H233285   3.302   2.682  12.149  0.6754 -0.0516  2.5150
 3932TIP3   OH233286   3.710   5.803  16.153 -0.2648 -0.3189  0.1532
 3932TIP3    H133287   3.686   5.871  16.215 -1.1451 -0.4813  0.0032
 3932TIP3    H233288   3.674   5.832  16.069 -0.1403 -0.6818 -0.0325
 3933TIP3   OH233289   5.312   5.384   4.908  0.0937  0.2762 -0.2899
 3933TIP3    H133290   5.232   5.353   4.867 -0.8919  0.4611  1.3926
 3933TIP3    H233291   5.339   5.313   4.966  2.5042 -0.7672 -2.4728
 3934TIP3   OH233292   5.560   3.512  12.305 -0.2517 -0.1052 -0.5442
 3934TIP3    H133293   5.654   3.506  12.320 -0.4845 -2.3894  0.3802
 3934TIP3    H233294   5.550   3.500  12.211  0.4019  1.2779 -0.8267
 3935TIP3   OH233295   2.236   2.622  14.059 -0.1427 -0.2111  0.3942
 3935TIP3    H133296   2.222   2.671  13.978 -1.1003 -0.0643  0.6301
 3935TIP3    H233297   2.158   2.566  14.067  0.8375 -1.6687  0.2186
 3936TIP3   OH233298   4.649   2.209   1.523  0.3812 -0.3392  0.0723
 3936TIP3    H133299   4.650   2.295   1.480 -1.1011 -2.2101 -4.2535
 3936TIP3    H233300   4.741   2.185   1.530  0.7381  0.8107 -0.4063
 3937TIP3   OH233301   4.368   3.120   3.568 -0.5149  0.5101  0.2501
 3937TIP3    H133302   4.371   3.160   3.655  1.1032 -1.9780  1.4514
 3937TIP3    H233303   4.457   3.088   3.553 -1.2847 -1.0649 -1.3514
 3938TIP3   OH233304   6.633   5.455   5.564 -0.0163  0.0703 -0.0225
 3938TIP3    H133305   6.637   5.369   5.605 -0.0491  0.0952  0.0346
 3938TIP3    H233306   6.540   5.470   5.549  0.0389 -0.1671 -0.6010
 3939TIP3   OH233307   2.015   1.139  16.873  0.4260  0.4699  0.1106
 3939TIP3    H133308   2.008   1.133  16.968  1.7328  0.1994  0.2013
 3939TIP3    H233309   2.026   1.049  16.844  0.8306  0.6206 -0.2168
 3940TIP3   OH233310   4.176   3.323   5.269  0.2478  0.0207  0.0603
 3940TIP3    H133311   4.200   3.267   5.342 -2.2944 -0.7583  0.3781
 3940TIP3    H233312   4.130   3.397   5.309  0.7031  0.6764 -0.6064
 3941TIP3   OH233313   3.545   0.149   5.078  0.2458 -0.1069  0.0850
 3941TIP3    H133314   3.617   0.212   5.078 -1.6414  2.2142  0.2807
 3941TIP3    H233315   3.511   0.153   4.988 -0.3828 -0.2480  0.3144
 3942TIP3   OH233316   1.766   2.969   3.094  0.3850  0.3199  0.4135
 3942TIP3    H133317   1.761   3.018   3.013  2.1264 -1.8077 -1.0989
 3942TIP3    H233318   1.677   2.936   3.108  0.4520 -1.0291 -1.8586
 3943TIP3   OH233319   1.716   5.532  16.562 -0.1898 -0.8069  0.5210
 3943TIP3    H133320   1.736   5.594  16.492  3.0778 -0.8258  1.2393
 3943TIP3    H233321   1.678   5.456  16.518 -0.2171  0.0091 -0.9231
 3944TIP3   OH233322   5.475   1.925   4.904 -0.1440 -0.3523 -0.8305
 3944TIP3    H133323   5.387   1.941   4.939  0.8572  0.5076  1.5304
 3944TIP3    H233324   5.511   2.013   4.889  0.2076 -0.6986 -2.1012
 3945TIP3   OH233325   0.280   6.106  16.709 -0.0024 -0.1831  0.2832
 3945TIP3    H133326   0.271   6.094  16.615 -0.2758 -1.7377  0.4811
 3945TIP3    H233327   0.257   6.198  16.724 -0.4424 -0.0495 -1.0997
 3946TIP3   OH233328   1.180   4.534  14.341 -0.3089  0.0695 -0.1988
 3946TIP3    H133329   1.219   4.620  14.325  0.9606 -0.4927 -0.2904
 3946TIP3    H233330   1.228   4.500  14.417  0.5607 -1.3379 -1.3314
 3947TIP3   OH233331   6.242   0.340  11.066 -0.1221 -0.1741  0.7765
 3947TIP3    H133332   6.320   0.359  11.014 -0.7254  1.5376  0.4353
 3947TIP3    H233333   6.198   0.269  11.018  0.6747 -0.4162  0.3955
 3948TIP3   OH233334   0.839   5.329  12.947  0.0300  0.3121 -0.2253
 3948TIP3    H133335   0.866   5.421  12.948 -1.1371  0.6724  0.3425
 3948TIP3    H233336   0.835   5.306  12.855 -1.3831  1.3926 -0.4751
 3949TIP3   OH233337   6.216   6.124  17.437 -0.4057 -0.1637 -0.1613
 3949TIP3    H133338   6.160   6.133  17.514 -0.4345  0.4141 -0.2504
 3949TIP3    H233339   6.276   6.053  17.460 -1.3786 -1.0320 -0.1916
 3950TIP3   OH233340   2.134   4.734   1.768  0.8378 -0.2974  0.1025
 3950TIP3    H133341   2.213   4.772   1.807  0.3021  0.2784  0.6663
 3950TIP3    H233342   2.118   4.786   1.689  0.4808  0.2375  0.5164
 3951TIP3   OH233343   2.866   4.658  16.793  0.5252  0.0804 -0.0463
 3951TIP3    H133344   2.929   4.599  16.751  0.1081  0.4315 -1.2013
 3951TIP3    H233345   2.867   4.632  16.885  0.8847 -1.2498 -0.3979
 3952TIP3   OH233346   2.125   4.855   4.100 -0.3299  0.9067 -0.2480
 3952TIP3    H133347   2.102   4.769   4.064 -2.1000  1.1984  0.0607
 3952TIP3    H233348   2.155   4.905   4.024 -3.0278  1.1865 -1.2687
 3953TIP3   OH233349   5.936   4.661  15.937  0.0522  0.6789 -0.3729
 3953TIP3    H133350   5.945   4.756  15.932 -1.9088  0.9089 -0.4320
 3953TIP3    H233351   5.979   4.628  15.858  0.0450  1.5998 -0.7729
 3954TIP3   OH233352   1.141   1.545  12.859  0.3655 -0.1189  0.0003
 3954TIP3    H133353   1.119   1.628  12.901 -1.2440 -0.8259  0.6267
 3954TIP3    H233354   1.093   1.548  12.776 -0.7349 -0.9209  0.5817
 3955TIP3   OH233355   1.949   1.359  13.709 -0.0299 -0.5859  0.2730
 3955TIP3    H133356   1.880   1.371  13.645 -1.5359 -1.3528  1.6766
 3955TIP3    H233357   1.926   1.418  13.781  0.3867 -1.3508  1.0573
 3956TIP3   OH233358   2.341   4.515  11.625  0.0175  0.2175 -0.2948
 3956TIP3    H133359   2.411   4.496  11.562  0.6672  0.3566  0.3710
 3956TIP3    H233360   2.306   4.429  11.648  0.8568  0.0304  0.3489
 3957TIP3   OH233361   2.164   4.677  16.737  0.1434  0.8487  0.0384
 3957TIP3    H133362   2.076   4.669  16.773  0.2587  0.7192  0.2969
 3957TIP3    H233363   2.208   4.740  16.793  0.3120  0.6763  0.1035
 3958TIP3   OH233364   2.230   5.306  12.772 -0.0182  0.5950 -0.2049
 3958TIP3    H133365   2.221   5.302  12.677 -0.5451  0.1308 -0.1420
 3958TIP3    H233366   2.142   5.329  12.804 -0.0844 -0.1819  0.2145
 3959TIP3   OH233367   6.517   2.213  15.587  0.0291  0.3929  0.0372
 3959TIP3    H133368   6.557   2.127  15.577 -0.6898 -0.3480  2.6923
 3959TIP3    H233369   6.441   2.198  15.644 -1.6386  2.3984 -1.5144
 3960TIP3   OH233370   3.666   1.681   6.577  0.3217 -0.0228  0.1874
 3960TIP3    H133371   3.689   1.602   6.626 -1.9783  0.7328  2.7141
 3960TIP3    H233372   3.570   1.687   6.585  0.3119  2.4351 -0.8804
 3961TIP3   OH233373   3.386   6.600  12.102  0.0085 -0.1504  0.1274
 3961TIP3    H133374   3.363   6.593  12.010 -0.7007 -0.1477  0.2981
 3961TIP3    H233375   3.428   6.685  12.111  0.4817 -0.3378 -0.2727
 3962TIP3   OH233376   2.761   3.786  14.877 -0.2005  0.1504  0.6077
 3962TIP3    H133377   2.738   3.786  14.784 -0.6749 -0.6565  0.7132
 3962TIP3    H233378   2.765   3.878  14.901  1.1952  0.4172 -0.5183
 3963TIP3   OH233379   5.577   0.181  12.448  0.3463  0.6867  0.0377
 3963TIP3    H133380   5.606   0.187  12.357  0.6509 -0.2704  0.0601
 3963TIP3    H233381   5.635   0.115  12.487 -0.7759 -0.0427  0.5168
 3964TIP3   OH233382   6.041   4.735  14.909 -0.2016 -0.5513 -0.0472
 3964TIP3    H133383   6.008   4.731  14.820  0.3106 -2.4175 -0.1839
 3964TIP3    H233384   6.108   4.803  14.907  0.7265 -1.4702 -1.4060
 3965TIP3   OH233385   4.557   2.870  13.035 -0.1421 -0.3132  0.0043
 3965TIP3    H133386   4.606   2.790  13.055  1.4639  0.0427 -2.1879
 3965TIP3    H233387   4.616   2.941  13.062 -1.5873  0.2111  2.0127
 3966TIP3   OH233388   5.461   1.773   5.269  0.5902  0.6447  0.3142
 3966TIP3    H133389   5.485   1.752   5.178  2.8382  1.7621  0.5844
 3966TIP3    H233390   5.368   1.797   5.264 -0.0655 -1.7355 -1.2238
 3967TIP3   OH233391   0.445   5.039  15.660 -0.4126  0.4186  0.0211
 3967TIP3    H133392   0.397   5.122  15.667 -0.3039  0.4875 -0.0619
 3967TIP3    H233393   0.505   5.052  15.587 -1.1465 -0.1146 -0.6921
 3968TIP3   OH233394   5.888   5.430   6.745 -0.1305 -0.2820  0.4524
 3968TIP3    H133395   5.821   5.421   6.812 -1.0151  0.3586 -0.3281
 3968TIP3    H233396   5.877   5.519   6.711 -0.7469 -1.0819 -1.6262
 3969TIP3   OH233397   4.960   5.360   0.265 -0.1521 -0.7117 -0.8269
 3969TIP3    H133398   4.925   5.308   0.337 -0.4689 -0.4743 -0.8083
 3969TIP3    H233399   4.883   5.403   0.226  0.0756 -0.4529 -0.9974
 3970TIP3   OH233400   1.843   3.334   1.668  0.1527 -0.0384 -0.1872
 3970TIP3    H133401   1.800   3.249   1.662  0.7621 -0.3354 -0.4249
 3970TIP3    H233402   1.844   3.354   1.761 -0.8212  0.1506 -0.1990
 3971TIP3   OH233403   4.232   1.872  14.603  0.0641  0.2390  0.1296
 3971TIP3    H133404   4.170   1.855  14.532 -1.3821  1.4163  1.0488
 3971TIP3    H233405   4.263   1.961  14.588  1.0292 -0.0952  0.0716
 3972TIP3   OH233406   5.180   2.141   5.955  0.4396 -0.6033 -0.0360
 3972TIP3    H133407   5.142   2.178   6.035 -0.9861 -1.9713 -0.0158
 3972TIP3    H233408   5.172   2.046   5.967  0.7572 -0.8448 -1.5536
 3973TIP3   OH233409   2.528   3.292  17.092 -0.4101  0.0081  0.0601
 3973TIP3    H133410   2.558   3.381  17.113  0.0568  0.1142 -0.9973
 3973TIP3    H233411   2.578   3.236  17.151  0.6836  0.3169 -0.5274
 3974TIP3   OH233412   1.215   5.991   0.969 -0.5490 -0.0274  0.7022
 3974TIP3    H133413   1.148   6.013   0.905  0.5208  1.1570 -0.0754
 3974TIP3    H233414   1.281   6.061   0.960  0.8382 -1.1951  1.3373
 3975TIP3   OH233415   1.369   6.177   3.819 -0.5783 -0.7380  0.0525
 3975TIP3    H133416   1.449   6.161   3.768 -0.5964  0.8567 -0.5405
 3975TIP3    H233417   1.395   6.241   3.885 -0.5394 -2.8247  2.2197
 3976TIP3   OH233418   0.542   0.575   1.815 -0.1035  0.3631 -0.2577
 3976TIP3    H133419   0.512   0.658   1.852  0.9624  0.8686 -0.4674
 3976TIP3    H233420   0.476   0.511   1.841  0.0923  0.8871  1.7049
 3977TIP3   OH233421   3.183   0.883   0.177 -0.1998 -0.4720 -0.7049
 3977TIP3    H133422   3.262   0.839   0.146  0.5961  0.4969 -0.1321
 3977TIP3    H233423   3.167   0.951   0.111  0.4043  0.3726 -0.0135
 3978TIP3   OH233424   2.353   1.169   2.367 -0.4828  0.3518  0.1294
 3978TIP3    H133425   2.406   1.221   2.428 -0.8700  0.2414  0.5673
 3978TIP3    H233426   2.274   1.222   2.353 -1.4733 -0.6497  1.5831
 3979TIP3   OH233427   0.631   3.084  12.987  0.3620  0.3736 -0.1337
 3979TIP3    H133428   0.635   3.167  12.939 -1.7070 -0.4227 -1.8459
 3979TIP3    H233429   0.570   3.101  13.059  0.5833  0.5476  0.0156
 3980TIP3   OH233430   6.083   1.640  12.381  0.1863  0.3887  0.0907
 3980TIP3    H133431   6.040   1.595  12.308  0.5083  0.7659 -0.3318
 3980TIP3    H233432   6.014   1.649  12.447  0.6154 -2.8089  1.1848
 3981TIP3   OH233433   1.495   3.928  11.528 -0.1132  0.6029  0.1597
 3981TIP3    H133434   1.498   3.834  11.543  1.2236  0.5738 -0.1338
 3981TIP3    H233435   1.450   3.938  11.444 -2.9430  0.4539  1.5314
 3982TIP3   OH233436   3.425   4.287   5.186  0.1021  0.0721 -0.1380
 3982TIP3    H133437   3.374   4.354   5.141  1.2709  0.4635 -0.9099
 3982TIP3    H233438   3.376   4.270   5.267 -0.5073  1.4249 -0.1981
 3983TIP3   OH233439   3.091   5.730   4.818  0.0883  0.3234  0.8690
 3983TIP3    H133440   3.065   5.741   4.910 -0.8472 -0.2250  0.6839
 3983TIP3    H233441   3.173   5.680   4.822 -1.1975 -1.8570  1.3563
 3984TIP3   OH233442   1.049   1.576   4.954  0.3893 -0.4356  0.0990
 3984TIP3    H133443   0.957   1.584   4.979  0.4951 -1.1078  0.7488
 3984TIP3    H233444   1.051   1.598   4.861  0.0846  2.9463  0.7359
 3985TIP3   OH233445   5.106   1.462  12.596 -0.2132 -0.3927  0.6418
 3985TIP3    H133446   5.187   1.508  12.572  0.2119 -0.1521  2.3701
 3985TIP3    H233447   5.136   1.388  12.648 -1.0916 -0.4103  1.1378
 3986TIP3   OH233448   5.799   6.639  14.800 -0.6895 -0.1747  0.3960
 3986TIP3    H133449   5.810   6.544  14.802  1.1520 -0.1039 -1.7049
 3986TIP3    H233450   5.840   6.666  14.717  0.7140  2.6567  1.8637
 3987TIP3   OH233451   2.871   3.357  17.321 -0.2222  0.5061  0.0051
 3987TIP3    H133452   2.809   3.421  17.357 -1.4382 -0.7399  0.2135
 3987TIP3    H233453   2.957   3.398  17.332 -1.0425  2.9537 -1.6134
 3988TIP3   OH233454   6.195   0.964  16.046  0.0935 -0.1119 -0.7037
 3988TIP3    H133455   6.167   1.040  16.097  1.3566  1.1630 -1.8064
 3988TIP3    H233456   6.158   0.979  15.959 -0.8603 -1.5353 -0.5721
 3989TIP3   OH233457   0.832   0.530   0.928 -0.0565 -0.3621 -0.3633
 3989TIP3    H133458   0.830   0.507   0.835 -0.6474 -1.3851 -0.1159
 3989TIP3    H233459   0.791   0.455   0.972 -0.2289  0.3239  0.6761
 3990TIP3   OH233460   2.091   3.955  16.376 -0.9119 -0.2912  0.0591
 3990TIP3    H133461   2.185   3.939  16.362 -0.5973  1.2642  0.2033
 3990TIP3    H233462   2.067   3.894  16.446 -0.1244 -1.0309 -0.2922
 3991TIP3   OH233463   5.388   0.708  16.537 -0.4751 -0.4674  0.6518
 3991TIP3    H133464   5.320   0.736  16.598 -0.7870  0.2865 -0.0165
 3991TIP3    H233465   5.349   0.720  16.450  0.7324  0.6873  0.2215
 3992TIP3   OH233466   2.569   2.557   3.245 -0.6416  0.5258 -0.5070
 3992TIP3    H133467   2.642   2.614   3.222 -0.2169  0.7921  1.3635
 3992TIP3    H233468   2.534   2.529   3.161  1.6080  0.3727 -1.4733
 3993TIP3   OH233469   6.116   0.457  11.310  0.4249  0.2786 -0.3026
 3993TIP3    H133470   6.131   0.420  11.223  1.0803 -1.9901  0.6823
 3993TIP3    H233471   6.027   0.430  11.333  0.7784 -0.4317  0.2848
 3994TIP3   OH233472   3.781   2.602   0.575 -0.2313  0.3933 -0.6913
 3994TIP3    H133473   3.811   2.692   0.568  0.8697  0.0686 -0.3576
 3994TIP3    H233474   3.819   2.558   0.498  0.6125 -0.1400  0.0113
 3995TIP3   OH233475   3.303   2.666   1.632  0.3935 -0.2345  0.0766
 3995TIP3    H133476   3.361   2.740   1.648 -0.0249  0.2974 -0.7454
 3995TIP3    H233477   3.215   2.701   1.645  0.2172 -0.7570  0.3087
 3996TIP3   OH233478   6.345   5.637  14.061 -0.0499 -0.3667 -0.2435
 3996TIP3    H133479   6.321   5.716  14.109 -0.4482 -0.8881  0.4250
 3996TIP3    H233480   6.391   5.583  14.125 -0.8274 -1.1877 -0.3590
 3997TIP3   OH233481   2.696   1.370  15.928  0.3535 -0.1334 -0.1621
 3997TIP3    H133482   2.730   1.455  15.955 -0.2816  0.2382 -0.5160
 3997TIP3    H233483   2.714   1.312  16.002 -0.0514  0.5286  0.4628
 3998TIP3   OH233484   3.018   1.024  15.624  0.4156  0.7186 -0.4032
 3998TIP3    H133485   2.992   1.083  15.695  0.1403  1.7278 -1.3263
 3998TIP3    H233486   3.113   1.016  15.633  0.3001  0.2644  0.5068
 3999TIP3   OH233487   3.176   0.709   3.917  0.5036  0.2017  0.5186
 3999TIP3    H133488   3.226   0.749   3.845  1.7977 -0.4175  1.0253
 3999TIP3    H233489   3.087   0.741   3.906  0.6402  0.0251 -1.4422
 4000TIP3   OH233490   5.492   5.652  14.950  0.4245  0.3218  0.2357
 4000TIP3    H133491   5.429   5.707  14.995  0.0446 -0.9417  1.3139
 4000TIP3    H233492   5.471   5.563  14.979  1.0677 -0.3927 -1.3672
 4001TIP3   OH233493   5.433   2.144  17.442 -0.6763 -0.3246 -0.1126
 4001TIP3    H133494   5.456   2.208  17.375  0.2677  0.3358  0.8048
 4001TIP3    H233495   5.354   2.179  17.483 -2.3024 -1.6120 -1.9840
 4002TIP3   OH233496   5.359   3.962   5.308  0.1300 -0.6883  0.3119
 4002TIP3    H133497   5.402   3.964   5.394  1.4690  0.8186 -0.3589
 4002TIP3    H233498   5.403   4.029   5.257 -2.1451  0.0010 -0.8714
 4003TIP3   OH233499   6.175   6.267  14.188  0.1704  0.5880 -0.6717
 4003TIP3    H133500   6.098   6.321  14.205 -0.9439 -1.3055  0.7048
 4003TIP3    H233501   6.233   6.285  14.262  0.7152  1.3850 -1.2749
 4004TIP3   OH233502   4.872   4.592   2.533 -0.2591  0.4055 -0.1766
 4004TIP3    H133503   4.845   4.653   2.602 -0.4269  0.1371 -0.0011
 4004TIP3    H233504   4.899   4.513   2.580 -0.1451  0.3055 -0.4073
 4005TIP3   OH233505   4.768   4.655  14.584  0.8374 -0.2281  0.1364
 4005TIP3    H133506   4.793   4.569  14.619  0.0077 -1.6593 -2.5056
 4005TIP3    H233507   4.808   4.657  14.497 -0.6952  1.2732 -0.5821
 4006TIP3   OH233508   3.712   3.812   3.468 -0.0212  1.2421 -0.2361
 4006TIP3    H133509   3.790   3.770   3.505  0.2239 -0.6333 -2.5976
 4006TIP3    H233510   3.724   3.805   3.373 -3.4886 -0.0357 -0.7207
 4007TIP3   OH233511   6.463   6.487  11.481 -0.1810  0.2994 -0.7228
 4007TIP3    H133512   6.556   6.465  11.489 -0.4346 -0.8172 -0.5810
 4007TIP3    H233513   6.442   6.532  11.563  0.2069  0.4588 -0.7077
 4008TIP3   OH233514   6.317   4.882   4.660  0.0864  0.0251 -0.3752
 4008TIP3    H133515   6.308   4.973   4.630  0.6501  0.1291 -0.2371
 4008TIP3    H233516   6.401   4.853   4.624 -1.0521 -1.1537 -2.2189
 4009TIP3   OH233517   1.788   0.129  16.095 -0.0889  0.0277  0.4841
 4009TIP3    H133518   1.874   0.170  16.102 -1.3233  3.2263 -0.9957
 4009TIP3    H233519   1.794   0.072  16.019  0.5448  0.8693 -0.1225
 4010TIP3   OH233520   0.181   6.577   2.069 -0.3887 -0.2775 -0.2111
 4010TIP3    H133521   0.190   6.531   1.986  2.2062  0.4459 -0.4321
 4010TIP3    H233522   0.198   6.669   2.047 -0.2844  0.0105  1.0108
 4011TIP3   OH233523   5.833   4.072  16.093  0.0716  0.5678 -0.1285
 4011TIP3    H133524   5.851   4.051  16.002  1.7280  0.6864  0.1472
 4011TIP3    H233525   5.755   4.021  16.114  0.0878 -0.0189 -1.4015
 4012TIP3   OH233526   4.756   0.357   4.942 -0.5558 -0.0574 -0.4858
 4012TIP3    H133527   4.695   0.284   4.956  0.2056 -0.4516  0.9553
 4012TIP3    H233528   4.717   0.407   4.870 -0.9196 -2.0857 -1.7826
 4013TIP3   OH233529   6.248   5.207   3.097 -0.1232  0.1381  0.3287
 4013TIP3    H133530   6.289   5.269   3.036  1.1682 -0.3352  0.6834
 4013TIP3    H233531   6.273   5.121   3.064 -1.6786 -0.2066  0.0019
 4014TIP3   OH233532   0.704   4.858  16.951  0.5001 -0.5652 -0.2186
 4014TIP3    H133533   0.626   4.847  16.897 -0.7793  2.6180  0.7283
 4014TIP3    H233534   0.733   4.769  16.970 -2.3418 -1.8720 -1.3891
 4015TIP3   OH233535   0.624   0.509   2.405 -0.0638 -0.0026  0.5699
 4015TIP3    H133536   0.551   0.454   2.434  0.0676 -0.0447  0.8256
 4015TIP3    H233537   0.696   0.447   2.388 -0.5705 -0.1471 -1.2996
 4016TIP3   OH233538   3.400   4.286   4.369 -0.4219 -0.5176 -0.6247
 4016TIP3    H133539   3.309   4.300   4.394 -0.3344 -0.2357 -0.4570
 4016TIP3    H233540   3.418   4.196   4.394 -0.3115 -0.2131  0.4230
 4017TIP3   OH233541   5.322   3.427  15.227 -0.0180 -0.2847  0.1871
 4017TIP3    H133542   5.236   3.445  15.189 -0.4768 -0.0105  1.3331
 4017TIP3    H233543   5.353   3.349  15.181 -0.6268 -0.0513 -0.6329
 4018TIP3   OH233544   5.864   0.693   5.322 -0.2646 -0.1474 -0.2715
 4018TIP3    H133545   5.891   0.780   5.292  0.6822  0.1644  1.4179
 4018TIP3    H233546   5.770   0.702   5.337 -0.3968  0.2322 -1.2230
 4019TIP3   OH233547   5.049   5.453  13.079  0.0467 -0.3891  0.5381
 4019TIP3    H133548   5.020   5.382  13.137  0.0713  0.5973  1.8112
 4019TIP3    H233549   5.078   5.521  13.139 -0.3518  0.8568 -0.6484
 4020TIP3   OH233550   6.088   5.320   1.544  0.1797 -0.1299 -0.4109
 4020TIP3    H133551   5.994   5.320   1.525  0.4798 -1.2913 -2.1421
 4020TIP3    H233552   6.094   5.348   1.635 -1.9595 -1.3153  0.1767
 4021TIP3   OH233553   2.304   0.464   5.928 -0.0130 -0.4362  0.2011
 4021TIP3    H133554   2.329   0.504   5.845 -0.6729 -0.8099 -0.1939
 4021TIP3    H233555   2.285   0.538   5.986  0.4819 -0.1728  0.0308
 4022TIP3   OH233556   2.990   4.292  14.663 -0.2441  0.0981 -0.3330
 4022TIP3    H133557   3.026   4.219  14.612 -1.4605 -1.1042  0.4597
 4022TIP3    H233558   2.901   4.303  14.630  0.7504  3.1658 -2.4083
 4023TIP3   OH233559   3.564   3.573   2.060  0.4618 -0.1096 -0.4055
 4023TIP3    H133560   3.469   3.573   2.053  0.2989 -1.3010  1.1767
 4023TIP3    H233561   3.586   3.484   2.089  1.7313  1.0405  2.4949
 4024TIP3   OH233562   6.587   3.277   5.286 -0.0933 -0.2265 -0.0151
 4024TIP3    H133563   6.539   3.330   5.223  0.4066  0.0637 -0.1583
 4024TIP3    H233564   6.521   3.219   5.324 -0.5360  0.1032 -0.2714
 4025TIP3   OH233565   6.189   2.286  13.581 -0.7544  0.3485  0.2109
 4025TIP3    H133566   6.257   2.296  13.648  1.9880  1.4816 -2.5114
 4025TIP3    H233567   6.135   2.364  13.590  2.3194  2.8933 -1.5876
 4026TIP3   OH233568   5.445   2.065   2.962  0.2011 -0.0833 -0.6604
 4026TIP3    H133569   5.482   2.104   3.041 -0.5944  0.0070 -0.3308
 4026TIP3    H233570   5.483   1.977   2.959 -1.4275 -0.9169  1.0301
 4027TIP3   OH233571   2.950   1.914   0.351  0.4996 -0.5264 -0.0453
 4027TIP3    H133572   2.879   1.927   0.289 -0.8797  1.5860  1.8153
 4027TIP3    H233573   2.974   2.002   0.380  2.0665 -1.3436  1.3519
 4028TIP3   OH233574   4.240   6.226   0.257 -0.1162 -0.0181  0.0341
 4028TIP3    H133575   4.156   6.268   0.238  0.2974  1.6008  1.4568
 4028TIP3    H233576   4.251   6.162   0.187 -1.5639  1.1568 -1.3720
 4029TIP3   OH233577   4.092   3.040   6.598 -0.5420 -0.1784  0.2343
 4029TIP3    H133578   4.046   3.121   6.620 -0.9619 -0.2096 -0.5210
 4029TIP3    H233579   4.028   2.971   6.613  0.7330 -0.7849  4.0977
 4030TIP3   OH233580   6.127   5.075  16.991 -0.7840 -0.4048 -0.2198
 4030TIP3    H133581   6.128   5.120  16.907  1.4749 -0.1108 -0.1134
 4030TIP3    H233582   6.091   5.139  17.052  1.5442  1.0503 -0.2404
 4031TIP3   OH233583   4.443   2.364  12.635 -0.5056  0.3037  0.1424
 4031TIP3    H133584   4.539   2.364  12.632 -0.4852  0.3400  0.6123
 4031TIP3    H233585   4.421   2.448  12.676 -0.7183  0.1026  0.4450
 4032TIP3   OH233586   2.288   1.476  15.596  0.4013 -0.0423  0.3808
 4032TIP3    H133587   2.261   1.415  15.665 -0.5847 -0.2976 -0.2138
 4032TIP3    H233588   2.365   1.519  15.632  0.7110 -1.1373  1.0997
 4033TIP3   OH233589   2.080   0.853   1.715 -0.2446  0.9554 -0.2467
 4033TIP3    H133590   2.005   0.793   1.707  0.9229 -0.6673  0.5550
 4033TIP3    H233591   2.093   0.864   1.809  0.0462  1.8831 -0.3823
 4034TIP3   OH233592   6.064   6.710  10.435  0.0021 -0.0499 -0.6057
 4034TIP3    H133593   5.991   6.728  10.495 -0.6419 -3.0042 -0.3849
 4034TIP3    H233594   6.137   6.762  10.470 -1.3945  1.3122  0.4220
 4035TIP3   OH233595   4.503   3.765  15.811  0.2854  0.0605 -0.0063
 4035TIP3    H133596   4.475   3.790  15.900  0.0337 -1.0980  0.2550
 4035TIP3    H233597   4.574   3.826  15.791 -0.4811  1.1613  0.4861
 4036TIP3   OH233598   6.086   3.497  15.180  0.0586  0.4817  0.5022
 4036TIP3    H133599   6.145   3.495  15.255 -0.1023 -1.6462  0.6203
 4036TIP3    H233600   5.999   3.508  15.218  0.0461  0.1413  0.5693
 4037TIP3   OH233601   6.470   5.664   0.605 -0.3654 -0.1989  0.0585
 4037TIP3    H133602   6.435   5.626   0.524  0.6847 -0.0112 -0.5146
 4037TIP3    H233603   6.400   5.654   0.669 -1.4013  0.0529 -0.9888
 4038TIP3   OH233604   5.668   1.709   2.303 -0.5659 -0.7666  0.4662
 4038TIP3    H133605   5.678   1.790   2.253  0.7632 -1.0029  0.2919
 4038TIP3    H233606   5.574   1.698   2.313 -0.7687  1.3323  1.3939
 4039TIP3   OH233607   0.633   4.541   3.113 -0.2055  0.3120  0.8882
 4039TIP3    H133608   0.550   4.494   3.125 -0.4971  0.5401 -0.1432
 4039TIP3    H233609   0.618   4.627   3.152 -1.2586  1.1724 -1.2989
 4040TIP3   OH233610   4.424   2.335   6.611 -0.2872  0.2079  0.4520
 4040TIP3    H133611   4.356   2.388   6.652 -0.8840 -1.7332  2.0828
 4040TIP3    H233612   4.378   2.260   6.575  0.8368 -0.4934  0.4182
 4041TIP3   OH233613   1.111   0.128   3.358  0.1280  0.3315  0.0843
 4041TIP3    H133614   1.155   0.067   3.416 -0.1577  1.1388  1.1703
 4041TIP3    H233615   1.028   0.085   3.335  0.5297 -0.2647 -0.2521
 4042TIP3   OH233616   5.095   4.998   4.652  0.4368 -0.3214  0.3574
 4042TIP3    H133617   5.123   5.001   4.561  1.3023  0.3278  0.6329
 4042TIP3    H233618   5.075   4.906   4.668  1.3096 -0.6078 -0.1798
 4043TIP3   OH233619   2.903   5.438   1.185  0.1246  0.3323  0.6345
 4043TIP3    H133620   2.930   5.522   1.222  0.3858  0.5733 -0.0996
 4043TIP3    H233621   2.982   5.402   1.145  0.0055 -0.2479  0.9034
 4044TIP3   OH233622   0.260   1.976  16.877 -0.3079 -0.1558 -0.1836
 4044TIP3    H133623   0.220   1.935  16.954  0.2878 -2.0741 -0.8288
 4044TIP3    H233624   0.188   1.982  16.814 -0.2166 -1.0476 -0.3835
 4045TIP3   OH233625   0.503   1.598  15.270  0.2322  0.5440  0.6599
 4045TIP3    H133626   0.586   1.568  15.307 -0.5587  1.2133  3.1542
 4045TIP3    H233627   0.494   1.688  15.300 -0.1524  1.4646 -1.9131
 4046TIP3   OH233628   6.519   5.500   0.924 -0.7592 -0.4525  0.1470
 4046TIP3    H133629   6.430   5.523   0.949 -0.6955 -0.6706  0.5844
 4046TIP3    H233630   6.574   5.568   0.965 -0.7985  0.2555 -0.9451
 4047TIP3   OH233631   1.594   6.702  13.025 -0.1982 -0.3878  0.2664
 4047TIP3    H133632   1.536   6.770  13.058 -0.4812 -0.3156 -0.3828
 4047TIP3    H233633   1.677   6.718  13.071 -0.1984  0.5182 -0.0265
 4048TIP3   OH233634   6.633   1.613  14.335  0.1984 -0.1926  0.5873
 4048TIP3    H133635   6.684   1.680  14.381 -2.7359  1.0895  2.2665
 4048TIP3    H233636   6.616   1.651  14.248  2.0047 -0.6510 -0.0011
 4049TIP3   OH233637   6.427   0.510  15.823  0.0312 -0.1034  0.2249
 4049TIP3    H133638   6.481   0.530  15.746 -0.5884 -0.0624 -0.2056
 4049TIP3    H233639   6.405   0.417  15.813 -0.1671 -0.0615  0.2819
 4050TIP3   OH233640   0.427   2.659   3.379 -0.4155 -0.3596  0.0035
 4050TIP3    H133641   0.355   2.674   3.441 -0.5896  0.4942 -0.3891
 4050TIP3    H233642   0.388   2.671   3.293 -0.5101 -2.9378 -0.3926
 4051TIP3   OH233643   5.310   2.272  13.655  0.5311  0.1216  0.2630
 4051TIP3    H133644   5.247   2.217  13.702  0.4856 -0.1964 -0.1621
 4051TIP3    H233645   5.301   2.246  13.564  1.3657 -0.0296  0.2087
 4052TIP3   OH233646   1.510   3.909  16.841 -0.2841 -0.0154 -0.2792
 4052TIP3    H133647   1.484   3.934  16.752 -2.5007 -0.0921  0.2905
 4052TIP3    H233648   1.464   3.826  16.856  0.6772 -0.3792  0.6755
 4053TIP3   OH233649   6.416   5.956   5.394 -0.6609  0.4207 -0.0004
 4053TIP3    H133650   6.510   5.973   5.386 -0.6749  0.4069 -0.1911
 4053TIP3    H233651   6.410   5.860   5.393 -0.5803  0.3863  1.0823
 4054TIP3   OH233652   3.386   4.417   4.136 -0.1795  0.0822  0.3074
 4054TIP3    H133653   3.377   4.375   4.222  0.8182 -1.8398 -0.4534
 4054TIP3    H233654   3.435   4.497   4.153  0.9803 -0.8198  1.4292
 4055TIP3   OH233655   0.126   1.581   4.437 -0.3644 -0.0219  0.0364
 4055TIP3    H133656   0.159   1.586   4.347 -1.0022  1.4333 -0.1473
 4055TIP3    H233657   0.163   1.658   4.481 -1.6831  0.4114  0.4369
 4056TIP3   OH233658   3.131   2.935   1.353  0.1749 -0.3469  0.2785
 4056TIP3    H133659   3.046   2.954   1.313  0.3348 -2.2609 -1.1167
 4056TIP3    H233660   3.158   2.852   1.313  2.7333  0.2326  0.6398
 4057TIP3   OH233661   3.816   4.735  12.220  0.2362 -0.1640 -0.1636
 4057TIP3    H133662   3.835   4.644  12.239  0.9734  0.4905  2.6531
 4057TIP3    H233663   3.721   4.739  12.215  0.0046 -0.6955  2.4561
 4058TIP3   OH233664   3.971   3.437  15.433 -0.5777 -0.0905  0.4026
 4058TIP3    H133665   3.938   3.486  15.509  2.3332  1.9780  0.5423
 4058TIP3    H233666   3.951   3.494  15.358  1.7105  0.8492  0.4162
 4059TIP3   OH233667   5.455   5.465   0.985  0.7412 -0.4321  0.3252
 4059TIP3    H133668   5.466   5.435   1.076 -0.0830 -3.0317 -0.3469
 4059TIP3    H233669   5.361   5.477   0.975  0.6516 -1.7024 -0.5865
 4060TIP3   OH233670   4.067   4.515   5.669 -0.0975  0.1503 -0.3887
 4060TIP3    H133671   4.148   4.514   5.620  0.1589 -1.2994  0.0303
 4060TIP3    H233672   4.093   4.507   5.761 -0.7174 -1.2265 -0.3020
 4061TIP3   OH233673   2.731   1.671  12.591 -0.0199  0.0061  1.0141
 4061TIP3    H133674   2.716   1.744  12.531  1.6691  0.1425  0.7084
 4061TIP3    H233675   2.645   1.652  12.628 -0.7874  1.0297 -0.1793
 4062TIP3   OH233676   0.242   5.152   5.957  0.3824  0.5040 -0.3731
 4062TIP3    H133677   0.194   5.108   5.886 -1.1193  1.4509 -0.0046
 4062TIP3    H233678   0.286   5.225   5.913  0.9530  0.0303 -0.6041
 4063TIP3   OH233679   0.177   2.653  14.778 -0.4729  0.0199  0.5476
 4063TIP3    H133680   0.259   2.670  14.825  0.2446 -0.2816 -0.5759
 4063TIP3    H233681   0.127   2.596  14.837  0.1406  0.1602  1.2134
 4064TIP3   OH233682   2.379   6.593  15.602  0.0577  0.0902 -0.5118
 4064TIP3    H133683   2.315   6.561  15.665  0.1225 -1.3979 -1.1564
 4064TIP3    H233684   2.334   6.663  15.556 -0.3276  0.5360  0.5061
 4065TIP3   OH233685   6.418   5.868  12.866 -1.1382 -0.1167  0.4429
 4065TIP3    H133686   6.369   5.841  12.789  0.3880  0.9728 -0.9821
 4065TIP3    H233687   6.425   5.963  12.857  0.5732 -0.1665  0.9907
 4066TIP3   OH233688   4.274   4.629   2.286 -0.0788 -0.3788 -0.2495
 4066TIP3    H133689   4.238   4.640   2.374  2.9387  2.0767  0.8596
 4066TIP3    H233690   4.331   4.553   2.292  0.9055  0.3738  0.2825
 4067TIP3   OH233691   2.941   2.991  16.714 -0.3980  0.9900  0.0867
 4067TIP3    H133692   2.955   3.040  16.795  0.8403  0.0665  0.4550
 4067TIP3    H233693   3.028   2.985  16.674 -0.9783  1.4272 -1.3310
 4068TIP3   OH233694   2.833   6.472   3.794 -0.8307 -0.7506  0.3646
 4068TIP3    H133695   2.811   6.486   3.886 -0.3794 -1.6908  0.6339
 4068TIP3    H233696   2.894   6.398   3.796 -1.3477 -1.2261 -0.7420
 4069TIP3   OH233697   1.781   3.056   1.721  0.7227  0.1241  0.1188
 4069TIP3    H133698   1.755   2.986   1.782 -0.5236  1.0823  0.7393
 4069TIP3    H233699   1.803   3.010   1.640 -1.5977 -0.9283 -0.0072
 4070TIP3   OH233700   3.818   3.610   6.422 -0.3384  0.3477 -0.4038
 4070TIP3    H133701   3.744   3.555   6.397  0.9822 -1.4664 -0.5228
 4070TIP3    H233702   3.812   3.619   6.517 -1.9223  2.1257 -0.6077
 4071TIP3   OH233703   3.259   4.296   5.857  0.0177  0.0103 -0.1465
 4071TIP3    H133704   3.189   4.335   5.805 -1.9342 -1.7599  1.0200
 4071TIP3    H233705   3.280   4.214   5.811  1.3540  0.5086 -0.4725
 4072TIP3   OH233706   3.077   4.383   2.163  0.5490 -0.5151  0.1006
 4072TIP3    H133707   3.074   4.294   2.199  0.5206 -1.0820 -1.2336
 4072TIP3    H233708   3.009   4.430   2.210  0.8085 -1.1032  1.0847
 4073TIP3   OH233709   3.974   1.682  15.344  0.0989 -0.1245 -0.3274
 4073TIP3    H133710   3.889   1.712  15.376  0.0211 -1.3342  0.6978
 4073TIP3    H233711   3.957   1.651  15.256 -0.5514 -0.4854 -0.0804
 4074TIP3   OH233712   1.832   2.811  14.958 -0.6509  0.7567  0.2439
 4074TIP3    H133713   1.759   2.865  14.928 -1.4791 -1.4642 -2.1670
 4074TIP3    H233714   1.801   2.721  14.947  1.5763 -0.2602  1.5826
 4075TIP3   OH233715   2.176   0.670   2.531 -0.5618 -1.2745 -0.5161
 4075TIP3    H133716   2.182   0.765   2.537  0.2063 -1.3327  5.9880
 4075TIP3    H233717   2.266   0.641   2.515 -0.0598 -0.8529  1.3437
 4076TIP3   OH233718   0.852   2.382   3.692  0.1135 -0.0430 -0.6700
 4076TIP3    H133719   0.937   2.425   3.680  0.8107 -0.6522  1.5666
 4076TIP3    H233720   0.871   2.289   3.681  0.5329 -0.5200  2.8747
 4077TIP3   OH233721   4.819   1.460   0.942  0.2232 -0.1501 -0.1995
 4077TIP3    H133722   4.801   1.508   1.023 -2.2246 -1.2498  0.0077
 4077TIP3    H233723   4.866   1.382   0.971  1.2116  0.4513 -0.1316
 4078TIP3   OH233724   0.398   1.883   0.591 -0.2065 -0.3471 -0.0084
 4078TIP3    H133725   0.343   1.867   0.514 -1.9506 -1.8422  1.4457
 4078TIP3    H233726   0.345   1.940   0.647  1.2849  1.2209 -0.1096
 4079TIP3   OH233727   4.115   1.918   6.669 -0.0227  0.3734 -0.3434
 4079TIP3    H133728   4.020   1.925   6.678 -0.1804  0.3547 -1.8414
 4079TIP3    H233729   4.130   1.904   6.576  1.4619  0.4029 -0.1354
 4080TIP3   OH233730   3.429   2.308   4.420 -0.4685  0.0687 -0.0098
 4080TIP3    H133731   3.458   2.382   4.473 -1.7480  1.3484 -1.0111
 4080TIP3    H233732   3.437   2.232   4.478  4.0143  0.3198  0.0465
 4081TIP3   OH233733   6.512   1.211   5.745  0.1057  0.1846  0.3280
 4081TIP3    H133734   6.451   1.183   5.677 -0.4494  1.5864  0.2221
 4081TIP3    H233735   6.483   1.298   5.769  2.8818  1.5423 -0.7467
 4082TIP3   OH233736   6.239   6.471   3.593 -0.4214 -0.6309  0.0801
 4082TIP3    H133737   6.288   6.415   3.533  0.6921  0.1855  0.1907
 4082TIP3    H233738   6.201   6.539   3.537 -0.4027 -0.5650  0.1466
 4083TIP3   OH233739   4.929   3.060  17.432  0.1441 -0.9022  0.7075
 4083TIP3    H133740   4.965   3.121  17.496  0.7985 -1.0437  0.4840
 4083TIP3    H233741   4.999   3.049  17.367 -0.7061 -0.3056 -0.3488
 4084TIP3   OH233742   0.126   6.040   2.413  0.0346 -0.3431 -0.5212
 4084TIP3    H133743   0.179   6.092   2.473  0.5967 -0.4926 -0.8758
 4084TIP3    H233744   0.178   5.960   2.398 -0.7510 -0.9497 -0.0850
 4085TIP3   OH233745   4.401   3.249  15.816 -0.2672 -0.1230 -0.6287
 4085TIP3    H133746   4.432   3.336  15.791  0.8123 -1.0258 -2.7659
 4085TIP3    H233747   4.336   3.227  15.749  0.6675 -1.5539 -1.1241
 4086TIP3   OH233748   3.112   0.198   4.187 -0.3647  0.0820  0.0784
 4086TIP3    H133749   3.100   0.278   4.239  0.2243 -1.0285  2.0192
 4086TIP3    H233750   3.204   0.176   4.198 -0.0422  0.1112 -2.0112
 4087TIP3   OH233751   6.690   5.958   3.506 -0.0201  0.7209  0.0034
 4087TIP3    H133752   6.692   5.871   3.546 -0.9213  0.7254  0.0824
 4087TIP3    H233753   6.752   6.010   3.557  1.1472 -0.0825 -0.5539
 4088TIP3   OH233754   0.374   6.399   5.156  0.4849  0.2109 -0.1086
 4088TIP3    H133755   0.309   6.470   5.151  0.1394 -0.0351  0.6303
 4088TIP3    H233756   0.346   6.336   5.090  0.1083  0.2215  0.0374
 4089TIP3   OH233757   3.837   6.512  16.794  0.1837 -0.6037 -0.3120
 4089TIP3    H133758   3.813   6.520  16.887 -2.4001  0.3167 -0.9817
 4089TIP3    H233759   3.847   6.602  16.765  1.4014 -0.9006 -0.8732
 4090TIP3   OH233760   1.493   3.817  12.742  0.1196 -0.2359  0.5452
 4090TIP3    H133761   1.544   3.873  12.683  2.6666 -2.8815  0.0002
 4090TIP3    H233762   1.545   3.815  12.823 -1.2615  0.1542  1.4747
 4091TIP3   OH233763   5.431   2.271   4.518  0.3074  0.5705 -0.3867
 4091TIP3    H133764   5.390   2.321   4.588 -0.6494 -1.0931  0.3143
 4091TIP3    H233765   5.521   2.256   4.549 -0.7480 -2.2880  1.8502
 4092TIP3   OH233766   5.551   3.339   0.326  0.2991  0.3582  0.1416
 4092TIP3    H133767   5.619   3.309   0.266 -0.2582  1.5587 -1.1742
 4092TIP3    H233768   5.491   3.389   0.270 -1.4235 -0.2973  1.3302
 4093TIP3   OH233769   1.409   2.594   5.521 -0.3726 -0.2384  0.3932
 4093TIP3    H133770   1.462   2.533   5.469  1.1584  0.9355  0.5189
 4093TIP3    H233771   1.458   2.606   5.602 -1.6777 -0.3843  1.2320
 4094TIP3   OH233772   3.200   4.364  13.677  0.2549 -0.2867  0.2713
 4094TIP3    H133773   3.210   4.389  13.769 -2.3516  0.1436  0.5064
 4094TIP3    H233774   3.149   4.435  13.639  0.2374 -1.0658 -1.2098
 4095TIP3   OH233775   4.257   3.928  13.280  0.1019 -0.8868  0.3130
 4095TIP3    H133776   4.236   4.000  13.340  0.7762 -0.3396 -0.0962
 4095TIP3    H233777   4.202   3.856  13.310 -0.5150 -0.2345  0.7939
 4096TIP3   OH233778   3.069   2.898  14.001  0.2551 -0.2230  0.6643
 4096TIP3    H133779   3.095   2.827  14.060  2.0210  0.5802  0.9264
 4096TIP3    H233780   3.152   2.931  13.966 -0.5229  1.6079  0.4255
 4097TIP3   OH233781   3.039   5.322  13.071 -0.0260 -0.2468  0.5054
 4097TIP3    H133782   3.004   5.304  12.984  0.8991 -1.3312  0.3435
 4097TIP3    H233783   3.112   5.382  13.055 -0.1964 -0.0123  0.5970
 4098TIP3   OH233784   1.450   3.282  13.363  0.1608 -0.0266 -0.6969
 4098TIP3    H133785   1.388   3.335  13.313  0.0549 -0.1618 -0.7105
 4098TIP3    H233786   1.536   3.312  13.334  0.1170 -0.8678 -1.8037
 4099TIP3   OH233787   2.155   3.225  15.375 -0.5373  0.2613 -0.2406
 4099TIP3    H133788   2.192   3.186  15.454  0.0558 -0.0173 -0.6539
 4099TIP3    H233789   2.192   3.175  15.303 -1.8525 -0.1453 -0.6710
 4100TIP3   OH233790   4.920   2.924   0.598  0.4341  0.2036 -0.4343
 4100TIP3    H133791   4.942   3.017   0.586  0.2635  0.3195  0.0908
 4100TIP3    H233792   4.829   2.925   0.625  0.8996  0.0263  1.2731
 4101TIP3   OH233793   6.638   1.936   3.550  0.0147  0.1778  0.7778
 4101TIP3    H133794   6.594   1.851   3.554 -0.5504  0.4396  0.3204
 4101TIP3    H233795   6.566   2.000   3.553  0.3386  0.6070 -0.3237
 4102TIP3   OH233796   2.138   1.246  15.109  0.2474  0.1446 -0.1302
 4102TIP3    H133797   2.114   1.298  15.186 -0.3733 -0.1575 -0.1146
 4102TIP3    H233798   2.080   1.278  15.040  0.4636  0.0709 -0.3465
 4103TIP3   OH233799   1.620   6.693   4.569 -0.0837  0.0126  0.1114
 4103TIP3    H133800   1.551   6.678   4.505  0.4809  0.1436 -0.5348
 4103TIP3    H233801   1.695   6.643   4.536  0.2535  0.1817  0.6042
 4104TIP3   OH233802   0.270   4.454   4.688 -0.2098 -0.1423  0.0085
 4104TIP3    H133803   0.255   4.478   4.780  0.5335  0.0952  0.0713
 4104TIP3    H233804   0.204   4.505   4.640 -1.1971 -0.9536  0.4758
 4105TIP3   OH233805   0.539   6.704  15.380  0.0681 -0.2912  0.4166
 4105TIP3    H133806   0.582   6.648  15.445  0.8377 -0.0905  0.0960
 4105TIP3    H233807   0.607   6.721  15.315 -0.4025  0.3345  0.0805
 4106TIP3   OH233808   0.618   2.854   1.440 -0.3245  0.6108  0.2470
 4106TIP3    H133809   0.529   2.821   1.434 -0.6041  1.5170 -0.8183
 4106TIP3    H233810   0.652   2.849   1.351  0.1732  1.6546  0.3614
 4107TIP3   OH233811   2.089   3.305  15.740  0.3811  0.1447 -0.0837
 4107TIP3    H133812   2.170   3.351  15.720  0.5906  0.2114  0.8663
 4107TIP3    H233813   2.020   3.369  15.725  0.4858  0.0554 -1.0015
 4108TIP3   OH233814   5.166   0.726   4.825  0.2252 -0.3311 -0.7617
 4108TIP3    H133815   5.195   0.805   4.871  1.7699 -0.6228 -1.1885
 4108TIP3    H233816   5.072   0.737   4.816 -0.1202 -0.0648  2.1301
 4109TIP3   OH233817   0.139   0.595  17.373  0.9512  0.0494 -0.4450
 4109TIP3    H133818   0.127   0.665  17.437 -1.1219 -0.0428 -0.6602
 4109TIP3    H233819   0.149   0.642  17.289  0.1978  0.1239 -0.5016
 4110TIP3   OH233820   0.969   1.243  13.649  0.7432 -0.1079 -0.4980
 4110TIP3    H133821   0.919   1.318  13.617 -1.3537 -1.3679 -0.3853
 4110TIP3    H233822   1.022   1.278  13.720  0.6870  1.4783 -1.1887
 4111TIP3   OH233823   1.080   4.734  17.582  0.0646 -0.1217  0.0514
 4111TIP3    H133824   1.059   4.707  17.671 -0.4918  1.2532  0.3585
 4111TIP3    H233825   1.149   4.800  17.593 -0.6436  0.7276 -0.4513
 4112TIP3   OH233826   1.293   6.327  13.375 -0.1263 -0.0317  0.3443
 4112TIP3    H133827   1.202   6.353  13.368 -0.1225  0.5673  1.9380
 4112TIP3    H233828   1.338   6.376  13.306 -0.6479  1.6547  1.1468
 4113TIP3   OH233829   5.678   5.933   6.507 -0.3017 -0.0425 -0.2555
 4113TIP3    H133830   5.692   6.012   6.456  1.0379 -0.2002 -0.1596
 4113TIP3    H233831   5.584   5.915   6.499 -0.5144  1.2306 -0.7337
 4114TIP3   OH233832   3.329   1.295  16.172  0.6448 -0.1483 -0.1848
 4114TIP3    H133833   3.414   1.326  16.142 -0.5532  1.8975 -1.7033
 4114TIP3    H233834   3.281   1.275  16.091 -0.1935 -1.7617  0.6499
 4115TIP3   OH233835   4.453   5.486  17.651  0.2325  0.2666 -0.8431
 4115TIP3    H133836   4.383   5.478  17.586  0.0183 -0.8674 -0.4918
 4115TIP3    H233837   4.491   5.399  17.656  0.4836  0.4301  0.2918
 4116TIP3   OH233838   3.916   1.363  12.193  0.0957 -0.7539 -0.5003
 4116TIP3    H133839   3.981   1.391  12.128 -0.4416  0.0620 -0.7019
 4116TIP3    H233840   3.842   1.332  12.141  0.0693 -1.0841 -0.2703
 4117TIP3   OH233841   2.620   4.139  13.161 -0.2221  0.1446 -0.2746
 4117TIP3    H133842   2.716   4.131  13.169  0.0024  2.3084 -0.1692
 4117TIP3    H233843   2.594   4.191  13.237 -1.9360 -2.6757  1.2621
 4118TIP3   OH233844   5.050   5.566   1.281 -0.0736 -0.0494 -0.1146
 4118TIP3    H133845   5.109   5.492   1.297 -1.2220 -1.6340 -2.4225
 4118TIP3    H233846   4.963   5.531   1.301 -0.3805  2.0543  2.6792
 4119TIP3   OH233847   2.887   6.677  14.304  0.4074 -0.4688  0.0804
 4119TIP3    H133848   2.870   6.739  14.375  0.2683 -0.7763  0.3195
 4119TIP3    H233849   2.842   6.597  14.332 -0.3854 -0.3313 -0.7506
 4120TIP3   OH233850   6.444   3.820  11.871 -0.2778  0.2494  0.3102
 4120TIP3    H133851   6.352   3.829  11.848 -0.6058  0.1000  1.5000
 4120TIP3    H233852   6.467   3.730  11.850 -0.0209  0.6544 -1.2427
 4121TIP3   OH233853   3.105   1.791   1.698  0.5634  0.2132  0.1498
 4121TIP3    H133854   3.085   1.829   1.613  2.5186  0.1122 -0.4038
 4121TIP3    H233855   3.040   1.827   1.757 -0.3427  0.9058 -1.2319
 4122TIP3   OH233856   3.923   2.406  15.721  0.3673 -0.5547  0.0822
 4122TIP3    H133857   3.859   2.444  15.781  1.0680 -0.7590  0.9781
 4122TIP3    H233858   3.908   2.311  15.726  0.8548 -0.6179  0.4425
 4123TIP3   OH233859   1.336   4.119  14.680 -0.2218 -0.9212  0.3954
 4123TIP3    H133860   1.417   4.134  14.729 -1.9027  1.2900  2.8074
 4123TIP3    H233861   1.287   4.056  14.732 -0.5906 -1.2395 -0.3280
 4124TIP3   OH233862   3.569   1.944   5.420  0.4536 -0.5735 -0.6997
 4124TIP3    H133863   3.661   1.952   5.448  0.3323 -0.1873 -0.3999
 4124TIP3    H233864   3.519   1.956   5.501  0.0965  0.6708 -1.0819
 4125TIP3   OH233865   2.517   0.752  12.583 -0.2381  0.5201 -0.5269
 4125TIP3    H133866   2.434   0.780  12.622 -0.3375  1.1363 -1.1566
 4125TIP3    H233867   2.557   0.833  12.551  0.0949  0.0965 -1.2118
 4126TIP3   OH233868   6.644   4.194  14.007  0.1211  0.0717  0.2438
 4126TIP3    H133869   6.606   4.277  13.976 -1.9136  0.1716  2.6847
 4126TIP3    H233870   6.636   4.135  13.933 -3.3223  0.6257  0.0267
 4127TIP3   OH233871   3.093   1.288   3.298 -0.2642  0.6752  0.2796
 4127TIP3    H133872   3.026   1.325   3.356  1.0031 -0.0208  2.2820
 4127TIP3    H233873   3.128   1.214   3.347  1.2136  0.3390 -1.2120
 4128TIP3   OH233874   3.953   4.691   0.154  0.4891  0.4086 -0.3155
 4128TIP3    H133875   4.037   4.726   0.185  0.4801  0.2579 -0.1167
 4128TIP3    H233876   3.936   4.617   0.212  0.9216 -0.4573 -1.2536
 4129TIP3   OH233877   2.859   3.242   6.602  0.9126  0.6032  0.2050
 4129TIP3    H133878   2.777   3.287   6.624 -1.0889 -0.8626 -3.4259
 4129TIP3    H233879   2.878   3.189   6.680 -1.3816  1.2690  1.3130
 4130TIP3   OH233880   5.236   1.869   5.162 -0.2007 -0.0491  0.3202
 4130TIP3    H133881   5.216   1.843   5.072 -1.6570  0.3633  0.5039
 4130TIP3    H233882   5.151   1.877   5.204  0.4435  0.2021  1.6228
 4131TIP3   OH233883   3.433   4.270  17.375 -0.6135 -0.2276 -0.1327
 4131TIP3    H133884   3.466   4.185  17.345  1.4478  0.0749  1.0898
 4131TIP3    H233885   3.481   4.334  17.322 -0.5748  0.2063  0.4240
 4132TIP3   OH233886   3.002   1.561  17.541  0.0295  0.4478  0.5154
 4132TIP3    H133887   3.029   1.485  17.489 -2.2930  1.1877 -2.0156
 4132TIP3    H233888   3.082   1.587  17.587  1.5767 -1.9033 -0.5854
 4133TIP3   OH233889   2.841   5.941   1.369  0.3851  0.5309  0.6503
 4133TIP3    H133890   2.763   5.923   1.317  0.9508 -1.0102  0.2881
 4133TIP3    H233891   2.813   5.932   1.460  0.2829 -0.7479  0.5098
 4134TIP3   OH233892   1.599   2.888   1.150 -0.3299  0.0922 -0.5781
 4134TIP3    H133893   1.545   2.833   1.092  1.5942  0.6021 -3.0166
 4134TIP3    H233894   1.633   2.956   1.093  1.1828  1.0256  1.3419
 4135TIP3   OH233895   6.586   2.038  12.476  0.3060 -0.1964  0.7799
 4135TIP3    H133896   6.598   2.123  12.518  2.6113 -0.6780  1.2338
 4135TIP3    H233897   6.517   1.996  12.527  0.2330  0.7866  1.5289
 4136TIP3   OH233898   2.926   5.076   6.119  0.2463 -0.1129 -0.2512
 4136TIP3    H133899   2.841   5.119   6.130  0.1193 -0.0863 -1.2868
 4136TIP3    H233900   2.905   4.982   6.124  0.4415 -0.1110  1.3978
 4137TIP3   OH233901   1.680   4.275  15.338 -0.3556  0.3880  0.3080
 4137TIP3    H133902   1.721   4.352  15.299  1.6010 -0.0259  1.4024
 4137TIP3    H233903   1.586   4.285  15.319  0.2248  1.1847 -2.6775
 4138TIP3   OH233904   0.847   2.698   0.577  0.2616 -0.2845 -0.6188
 4138TIP3    H133905   0.930   2.745   0.584  0.8207 -1.3705  0.2866
 4138TIP3    H233906   0.871   2.609   0.552 -0.6860 -0.4689 -0.9361
 4139TIP3   OH233907   1.985   4.631   5.108 -0.3826 -0.0227 -0.1163
 4139TIP3    H133908   1.976   4.697   5.039 -0.4758  0.6618  0.5350
 4139TIP3    H233909   1.928   4.560   5.081 -1.4436  0.7949 -0.1054
 4140TIP3   OH233910   2.435   0.952   1.275 -0.1038 -0.0653 -0.1053
 4140TIP3    H133911   2.494   0.950   1.200 -0.8249 -2.9746 -0.7510
 4140TIP3    H233912   2.475   0.893   1.339 -1.1007 -0.2267  0.4005
 4141TIP3   OH233913   5.759   2.947  14.980 -0.2590 -0.2375  0.0847
 4141TIP3    H133914   5.707   2.982  14.907 -3.1060  0.5704  2.3074
 4141TIP3    H233915   5.759   3.017  15.045 -0.3345 -1.9212  1.9978
 4142TIP3   OH233916   4.658   5.234  15.739 -0.0062  0.2811  0.1862
 4142TIP3    H133917   4.597   5.162  15.753 -0.1313  0.2450 -0.5312
 4142TIP3    H233918   4.643   5.262  15.649  3.1179 -1.7144 -1.0875
 4143TIP3   OH233919   3.888   0.587  12.369  0.6246 -0.3034 -0.3108
 4143TIP3    H133920   3.871   0.667  12.320  1.0930  1.1332  1.7341
 4143TIP3    H233921   3.816   0.581  12.431  1.7202 -0.2448  1.0121
 4144TIP3   OH233922   2.917   0.903  12.419 -0.4947  0.0795 -0.6570
 4144TIP3    H133923   2.892   0.854  12.497  0.0134  0.5322 -0.2017
 4144TIP3    H233924   2.837   0.910  12.368 -1.7051  2.6001  1.3595
 4145TIP3   OH233925   3.682   5.208   0.246  0.1244  0.0815 -0.1929
 4145TIP3    H133926   3.722   5.164   0.321 -1.5456 -1.9123 -0.3770
 4145TIP3    H233927   3.728   5.174   0.170 -0.6004 -0.7501 -0.2776
 4146TIP3   OH233928   1.583   2.399   5.410 -0.5371  0.0092 -0.5281
 4146TIP3    H133929   1.679   2.408   5.405 -0.3527 -0.6436  1.1617
 4146TIP3    H233930   1.556   2.385   5.319  1.0857 -0.7044 -0.9504
 4147TIP3   OH233931   4.889   3.527  13.182 -0.3883  0.3599 -0.1889
 4147TIP3    H133932   4.819   3.586  13.209 -1.4731 -0.2031 -1.6689
 4147TIP3    H233933   4.890   3.532  13.086 -1.2662 -2.8181 -0.4713
 4148TIP3   OH233934   2.640   3.891  14.633 -0.3576 -0.5392 -0.1848
 4148TIP3    H133935   2.617   3.962  14.574 -1.4512  0.6537  1.5965
 4148TIP3    H233936   2.621   3.811  14.583 -1.9858  0.4194 -1.1660
 4149TIP3   OH233937   2.655   4.219  13.646 -0.6401 -0.0540  0.1278
 4149TIP3    H133938   2.742   4.239  13.680 -0.7288  2.1934 -0.7880
 4149TIP3    H233939   2.672   4.170  13.565 -0.1735  0.9149 -0.3776
 4150TIP3   OH233940   2.012   3.670   4.629  0.4082 -0.1785 -0.1745
 4150TIP3    H133941   2.105   3.680   4.608  0.3967  0.7949  0.2117
 4150TIP3    H233942   2.000   3.717   4.712 -0.5021  0.0234 -0.4066
 4151TIP3   OH233943   0.776   3.308  10.990  0.0480  0.2183  1.0303
 4151TIP3    H133944   0.849   3.366  11.013  1.1317  0.2340 -1.9777
 4151TIP3    H233945   0.699   3.365  10.993  0.7394  1.2107  0.6337
 4152TIP3   OH233946   0.114   2.422  16.581 -0.9058 -0.7169  0.5503
 4152TIP3    H133947   0.083   2.496  16.529 -1.1490  0.0634  1.7660
 4152TIP3    H233948   0.040   2.362  16.583 -0.6193 -1.1360 -0.6578
 4153TIP3   OH233949   6.025   2.192   0.780  0.8840 -0.0355  0.1373
 4153TIP3    H133950   6.062   2.175   0.866 -0.5242  2.1420  1.2605
 4153TIP3    H233951   5.932   2.207   0.796  0.2764 -1.1035 -2.0041
 4154TIP3   OH233952   5.739   6.515  13.038 -0.0753 -0.4440  0.9062
 4154TIP3    H133953   5.688   6.443  13.076 -1.3334 -1.0074 -1.6472
 4154TIP3    H233954   5.723   6.508  12.944  1.5242  1.8890  0.3960
 4155TIP3   OH233955   0.573   4.952  14.846 -0.8069 -0.5072  0.2506
 4155TIP3    H133956   0.478   4.962  14.848 -0.7796 -0.1734 -0.1384
 4155TIP3    H233957   0.600   4.959  14.938 -1.3906 -2.9475  0.6765
 4156TIP3   OH233958   3.328   1.522  12.655 -0.2980  0.3474 -0.0956
 4156TIP3    H133959   3.280   1.596  12.619 -0.4695  1.0082  1.4291
 4156TIP3    H233960   3.271   1.447  12.641  0.5588  0.1445 -3.1291
 4157TIP3   OH233961   5.253   1.134  16.567 -0.4390  0.3644 -0.2095
 4157TIP3    H133962   5.238   1.228  16.558 -1.4648  0.0796 -1.8387
 4157TIP3    H233963   5.216   1.095  16.488  0.1994 -1.4024  0.2907
 4158TIP3   OH233964   3.725   5.258  14.803  0.5137  0.0049  0.0857
 4158TIP3    H133965   3.651   5.200  14.820 -0.6887  0.8729 -1.8168
 4158TIP3    H233966   3.739   5.252  14.709  1.4721  1.4733  0.1025
 4159TIP3   OH233967   1.654   2.012   5.147  0.1782  0.0609 -0.4855
 4159TIP3    H133968   1.562   2.001   5.171 -0.0661  0.7734 -1.0591
 4159TIP3    H233969   1.697   2.043   5.226  0.2495 -1.7246  0.2336
 4160TIP3   OH233970   4.805   3.839   1.331 -0.4677 -0.5848  0.0664
 4160TIP3    H133971   4.886   3.789   1.322 -0.8055 -1.4041  1.2918
 4160TIP3    H233972   4.825   3.924   1.292  0.7978 -0.9539 -0.1446
 4161TIP3   OH233973   6.115   6.624   3.118  0.2723  0.1035 -0.4547
 4161TIP3    H133974   6.191   6.683   3.117  0.8004 -0.5040  0.9843
 4161TIP3    H233975   6.099   6.605   3.026 -0.3175  2.9566 -1.0499
 4162TIP3   OH233976   1.450   1.581  13.180 -0.1465  0.0230 -0.0772
 4162TIP3    H133977   1.430   1.487  13.169 -0.2703  0.1894 -1.4303
 4162TIP3    H233978   1.524   1.582  13.241 -0.5394 -0.9119  0.4586
 4163TIP3   OH233979   1.215   6.106  16.740 -0.0161  0.1644  0.9582
 4163TIP3    H133980   1.125   6.129  16.716  0.3634 -0.5612 -1.3205
 4163TIP3    H233981   1.270   6.167  16.690  0.8259  1.4650  3.2749
 4164TIP3   OH233982   5.846   3.873  15.228  0.3508  0.4534  0.9305
 4164TIP3    H133983   5.779   3.806  15.219  0.4131  0.4204  0.7203
 4164TIP3    H233984   5.924   3.825  15.257  0.9708  0.1194 -1.1377
 4165TIP3   OH233985   4.342   4.674   1.788  0.2843  0.3184 -0.3315
 4165TIP3    H133986   4.297   4.602   1.742  0.1685  0.3871 -0.3271
 4165TIP3    H233987   4.433   4.666   1.762  0.2307  0.3152 -0.5204
 4166TIP3   OH233988   2.143   6.714   3.896 -0.0051 -0.1952  0.8976
 4166TIP3    H133989   2.187   6.680   3.974  0.0958  0.4205  1.1201
 4166TIP3    H233990   2.062   6.664   3.890  0.6628 -1.2523  0.5526
 4167TIP3   OH233991   4.063   1.431   2.165 -0.5531 -0.1869 -0.1178
 4167TIP3    H133992   4.011   1.368   2.214  0.4334  0.0827  1.3401
 4167TIP3    H233993   4.152   1.420   2.198 -0.3499  1.9313  0.1690
 4168TIP3   OH233994   1.661   3.488   0.165 -0.1974  0.0743  0.1237
 4168TIP3    H133995   1.617   3.557   0.215 -2.4948 -1.4109  0.2564
 4168TIP3    H233996   1.608   3.410   0.179  1.3390 -1.3371 -1.4683
 4169TIP3   OH233997   2.011   3.833   3.904 -0.0055 -0.9539 -0.3231
 4169TIP3    H133998   2.042   3.748   3.872  0.2451 -1.4856  1.2723
 4169TIP3    H233999   1.986   3.817   3.995 -4.0824 -0.3561 -1.1172
 4170TIP3   OH234000   6.629   6.475  13.527 -0.3484  0.2812  0.2065
 4170TIP3    H134001   6.618   6.434  13.441 -1.5531  0.2494  0.3604
 4170TIP3    H234002   6.643   6.568  13.507  0.1106  0.1630 -0.0429
 4171TIP3   OH234003   1.031   6.365   3.472 -0.1173  0.1681  0.5943
 4171TIP3    H134004   0.955   6.411   3.436 -0.0430 -0.1813 -0.0251
 4171TIP3    H234005   1.105   6.394   3.418  0.0959  0.0659  0.8257
 4172TIP3   OH234006   1.694   3.487   4.835 -0.8754 -0.1010  0.7518
 4172TIP3    H134007   1.738   3.541   4.901 -0.1438  0.9223 -0.5207
 4172TIP3    H234008   1.608   3.528   4.824 -0.1630  1.1225 -0.5233
 4173TIP3   OH234009   2.816   2.128  11.668  0.6413 -0.0912  0.0901
 4173TIP3    H134010   2.901   2.124  11.626  0.8051  0.4560  0.3547
 4173TIP3    H234011   2.753   2.130  11.596  0.9861  3.0458 -0.2516
 4174TIP3   OH234012   4.619   0.615  11.039  0.5028  0.1399  0.3021
 4174TIP3    H134013   4.703   0.656  11.016  1.1406 -1.4464 -0.2997
 4174TIP3    H234014   4.553   0.681  11.017  1.2508 -0.2184 -3.5663
 4175TIP3   OH234015   3.559   1.330  12.864 -0.0904  0.2705 -0.0332
 4175TIP3    H134016   3.541   1.270  12.792 -1.3405  1.0636 -0.4214
 4175TIP3    H234017   3.596   1.408  12.822 -0.1725  0.4671  0.2581
 4176TIP3   OH234018   6.122   5.886   5.418 -0.3011 -0.1003 -0.3023
 4176TIP3    H134019   6.206   5.846   5.435  0.2835  0.8657 -0.8103
 4176TIP3    H234020   6.142   5.961   5.361 -1.2371  1.2919  1.1079
 4177TIP3   OH234021   5.997   0.717   1.400 -0.2090  0.0681  0.0525
 4177TIP3    H134022   6.037   0.801   1.379  1.2972 -1.0134 -1.7512
 4177TIP3    H234023   5.943   0.696   1.323  2.0025 -2.0177 -1.0833
 4178TIP3   OH234024   1.976   5.497  16.767  0.1871  1.0176 -0.6345
 4178TIP3    H134025   2.039   5.533  16.704 -0.0617  0.8740 -0.9673
 4178TIP3    H234026   1.894   5.493  16.718 -0.2626  1.9053  0.0133
 4179TIP3   OH234027   3.784   5.420  14.508 -0.3640 -0.7812 -0.3029
 4179TIP3    H134028   3.759   5.369  14.431 -0.4053 -0.9184 -0.1995
 4179TIP3    H234029   3.861   5.469  14.480 -0.8137 -0.2587 -0.6673
 4180TIP3   OH234030   6.322   4.086   3.962 -0.1873  0.1325  0.5901
 4180TIP3    H134031   6.274   4.074   3.880  1.3794 -0.5134 -0.2732
 4180TIP3    H234032   6.413   4.068   3.939  0.2089 -0.6773  2.6274
 4181TIP3   OH234033   3.903   3.491   1.082  0.2740  0.2534 -0.0671
 4181TIP3    H134034   3.872   3.567   1.032  0.4226  2.3645  2.7920
 4181TIP3    H234035   3.826   3.461   1.131  0.3762 -1.0936 -0.6932
 4182TIP3   OH234036   5.656   6.611   3.840 -0.5833  0.0114 -0.2577
 4182TIP3    H134037   5.682   6.527   3.804 -0.8107 -0.5299  0.8169
 4182TIP3    H234038   5.578   6.636   3.789 -0.2934 -0.2334 -0.8309
 4183TIP3   OH234039   4.189   0.539   6.781  0.0893 -0.1195 -0.1324
 4183TIP3    H134040   4.104   0.513   6.745 -0.2118 -0.7805  1.0423
 4183TIP3    H234041   4.221   0.462   6.827  0.2703  0.8110  1.3772
 4184TIP3   OH234042   0.149   5.234  16.470  0.1295  0.0422  0.0538
 4184TIP3    H134043   0.142   5.146  16.435 -0.3519  0.0573  0.0919
 4184TIP3    H234044   0.097   5.232  16.551  0.6244  0.1971  0.3788
 4185TIP3   OH234045   5.096   5.266   5.879  0.4378 -0.5619  0.1539
 4185TIP3    H134046   5.046   5.210   5.938 -1.2655 -0.5868 -1.2340
 4185TIP3    H234047   5.144   5.325   5.938 -0.8382 -0.8690  1.5764
 4186TIP3   OH234048   4.357   1.451   4.679 -0.2276 -0.1471 -0.4373
 4186TIP3    H134049   4.367   1.443   4.774  0.6015 -1.0471 -0.5848
 4186TIP3    H234050   4.388   1.539   4.659 -2.4141  0.8763  0.3479
 4187TIP3   OH234051   4.816   3.564   5.899  0.5609 -0.4121  0.2903
 4187TIP3    H134052   4.879   3.634   5.915 -0.7858  1.0001 -0.3632
 4187TIP3    H234053   4.730   3.607   5.900 -0.2136 -1.7090 -1.8527
 4188TIP3   OH234054   3.147   5.347   1.045  0.2472 -0.2647 -0.1293
 4188TIP3    H134055   3.106   5.261   1.031 -1.9561  0.9269 -1.5013
 4188TIP3    H234056   3.239   5.326   1.062  0.1998 -2.8223 -2.2904
 4189TIP3   OH234057   4.220   2.043   0.023  0.0326 -0.1647  0.0489
 4189TIP3    H134058   4.276   1.997   0.086  0.1372  1.3707  1.1425
 4189TIP3    H234059   4.132   2.040   0.062  0.0748  0.6893  0.2387
 4190TIP3   OH234060   2.724   5.550  17.399 -0.1264 -0.4457 -0.0888
 4190TIP3    H134061   2.660   5.479  17.404 -0.0770 -0.4067  1.9589
 4190TIP3    H234062   2.767   5.550  17.485  1.0084  1.0242 -0.6083
 4191TIP3   OH234063   2.195   0.670  16.425 -0.3127  0.3965 -0.5276
 4191TIP3    H134064   2.125   0.605  16.415  0.1931 -0.5107  1.3641
 4191TIP3    H234065   2.172   0.739  16.363 -2.3998 -0.2880 -0.6117
 4192TIP3   OH234066   1.254   4.648   0.278 -0.8641 -0.5198 -0.6866
 4192TIP3    H134067   1.193   4.675   0.209 -2.1421 -1.7249 -0.0968
 4192TIP3    H234068   1.241   4.553   0.285  1.6124 -0.9488 -0.9935
 4193TIP3   OH234069   1.074   6.158  11.415  0.2351 -0.1687  0.1095
 4193TIP3    H134070   1.053   6.248  11.388  0.1218 -0.6644 -1.5462
 4193TIP3    H234071   1.122   6.122  11.341  0.2383 -1.5073  0.7436
 4194TIP3   OH234072   2.893   5.953   4.406  0.0736 -0.1642 -0.2828
 4194TIP3    H134073   2.856   5.974   4.320  0.6954  1.4329 -0.1998
 4194TIP3    H234074   2.986   5.973   4.398  0.0624  0.4550  0.8887
 4195TIP3   OH234075   5.975   6.353   2.530 -0.7025 -0.1760 -0.4111
 4195TIP3    H134076   6.044   6.287   2.529 -1.0509 -0.6437  1.4578
 4195TIP3    H234077   6.001   6.415   2.597 -1.3387  0.5117 -0.7811
 4196TIP3   OH234078   4.688   4.349   3.168 -0.2143 -0.2676  0.3565
 4196TIP3    H134079   4.595   4.335   3.150 -0.2660  0.1966  0.2470
 4196TIP3    H234080   4.734   4.293   3.105 -0.4164 -0.3801  0.3094
 4197TIP3   OH234081   6.645   1.036  11.828  0.6895 -0.0889  0.0697
 4197TIP3    H134082   6.732   1.038  11.867  0.4417  1.1221  0.6005
 4197TIP3    H234083   6.585   1.033  11.902  0.2556 -2.8231 -0.2867
 4198TIP3   OH234084   4.265   3.433   2.920 -0.0692 -0.2209 -0.1121
 4198TIP3    H134085   4.311   3.356   2.889  0.9775  0.6732 -0.8596
 4198TIP3    H234086   4.176   3.424   2.884 -0.2047 -1.4660  0.5058
 4199TIP3   OH234087   4.746   6.482  15.181 -0.2496  0.1608  0.8860
 4199TIP3    H134088   4.797   6.404  15.206 -0.3269 -0.0086  0.5144
 4199TIP3    H234089   4.798   6.556  15.213  1.3865  0.1204 -1.4493
 4200TIP3   OH234090   5.497   1.359  15.703  0.2726  0.6221 -0.4027
 4200TIP3    H134091   5.463   1.380  15.615 -0.8053 -2.4498 -0.8449
 4200TIP3    H234092   5.565   1.294  15.687 -1.0204 -1.1908  1.0549
 4201TIP3   OH234093   5.758   1.594  15.345 -0.2386 -0.1356  0.5221
 4201TIP3    H134094   5.816   1.641  15.285  1.5820 -2.5827  0.1564
 4201TIP3    H234095   5.682   1.570  15.292 -0.7879  1.5472  0.4955
 4202TIP3   OH234096   6.730   6.363   3.590 -0.0409 -0.6570  0.1340
 4202TIP3    H134097   6.681   6.445   3.601  0.4108 -0.4634  0.7083
 4202TIP3    H234098   6.821   6.391   3.583  0.4824 -1.2647  3.2023
 4203TIP3   OH234099   5.218   3.728  14.375  0.1125  0.0795  0.2315
 4203TIP3    H134100   5.231   3.633  14.375 -0.0652  0.0542  0.2489
 4203TIP3    H234101   5.138   3.741  14.323  0.7027  0.2974 -0.6453
 4204TIP3   OH234102   0.483   2.118  15.067  0.0455 -0.0545  0.6330
 4204TIP3    H134103   0.544   2.185  15.098 -0.2082  0.8572 -0.7638
 4204TIP3    H234104   0.397   2.160  15.069  0.0205  0.0949 -1.3189
 4205TIP3   OH234105   5.756   0.500  15.131  0.4435 -0.3659 -0.2720
 4205TIP3    H134106   5.729   0.547  15.209  0.9994  0.0613 -0.3293
 4205TIP3    H234107   5.675   0.460  15.097  0.0392  0.2227 -0.0055
 4206TIP3   OH234108   3.987   5.151  12.282  0.1404 -0.2520  0.0470
 4206TIP3    H134109   4.054   5.159  12.351  0.5174  1.8866 -0.4786
 4206TIP3    H234110   4.037   5.143  12.201 -0.2862 -1.0123 -0.1466
 4207TIP3   OH234111   1.049   3.615  11.830  0.1365 -0.3208 -0.5803
 4207TIP3    H134112   1.106   3.650  11.762 -0.1122 -1.1106 -1.2131
 4207TIP3    H234113   0.966   3.661  11.818 -0.2816 -1.2992 -1.5969
 4208TIP3   OH234114   3.991   1.339  13.174 -0.4458 -0.0550 -0.0110
 4208TIP3    H134115   3.990   1.257  13.123  1.8094 -1.2501  1.6773
 4208TIP3    H234116   4.055   1.394  13.128 -0.2320 -0.1793  0.1315
 4209TIP3   OH234117   1.304   2.862   3.881 -0.3953 -0.3570  0.1187
 4209TIP3    H134118   1.242   2.834   3.948  1.2072  0.3736  1.9967
 4209TIP3    H234119   1.306   2.958   3.888  2.3531 -0.4317  1.5389
 4210TIP3   OH234120   1.960   6.271  11.644 -0.0970 -0.1417 -0.7241
 4210TIP3    H134121   1.955   6.184  11.683 -0.4624 -0.1111 -0.7026
 4210TIP3    H234122   1.874   6.285  11.604 -0.2655  0.4663 -0.1826
 4211TIP3   OH234123   1.081   1.769  15.927 -0.0446  0.6490  0.0205
 4211TIP3    H134124   1.140   1.833  15.968  1.2160 -0.9698  0.8406
 4211TIP3    H234125   1.134   1.690  15.916 -1.8745 -0.6694  0.1492
 4212TIP3   OH234126   1.102   3.745   3.914  0.0265 -1.0270 -0.5315
 4212TIP3    H134127   1.020   3.702   3.887 -0.4581  0.1739 -1.0742
 4212TIP3    H234128   1.110   3.725   4.007 -0.8699 -1.2234 -0.4819
 4213TIP3   OH234129   4.141   3.267  13.496 -0.0286 -0.4730  0.3210
 4213TIP3    H134130   4.234   3.277  13.477 -0.0908 -0.5637 -0.0374
 4213TIP3    H234131   4.109   3.207  13.429 -0.5322  0.2572 -0.1042
 4214TIP3   OH234132   5.475   6.460   4.583 -0.8144 -0.0520  0.7577
 4214TIP3    H134133   5.519   6.447   4.499 -3.3241  0.4484 -0.7325
 4214TIP3    H234134   5.515   6.396   4.642 -0.2313 -1.6774 -1.3042
 4215TIP3   OH234135   4.536   0.499   1.363  0.4113 -0.3715  0.2807
 4215TIP3    H134136   4.515   0.406   1.361  0.0447 -0.2962  0.5345
 4215TIP3    H234137   4.511   0.527   1.451 -2.9427  0.7491 -0.8860
 4216TIP3   OH234138   5.557   0.478   5.476  0.3024 -0.2803 -0.4822
 4216TIP3    H134139   5.476   0.437   5.507  0.7970  0.7679  2.5293
 4216TIP3    H234140   5.530   0.563   5.443 -0.0458 -0.7424 -1.4113
 4217TIP3   OH234141   0.596   2.028   0.459 -0.6650  0.6863  0.5782
 4217TIP3    H134142   0.688   2.013   0.479  0.0650 -0.4461 -2.9456
 4217TIP3    H234143   0.554   2.039   0.545  2.4544 -0.1931  2.3689
 4218TIP3   OH234144   4.202   5.553   4.541 -0.5132  0.1996 -0.0422
 4218TIP3    H134145   4.219   5.601   4.621  0.2467 -0.7525  0.3850
 4218TIP3    H234146   4.228   5.463   4.560 -1.7495 -0.3677 -0.8706
 4219TIP3   OH234147   1.086   5.011  13.334  0.6382 -0.0906 -0.4933
 4219TIP3    H134148   1.067   5.037  13.244 -0.9606  0.0526 -0.1525
 4219TIP3    H234149   1.044   4.925  13.343  0.9427 -0.1830  0.0535
 4220TIP3   OH234150   0.411   0.235   0.516 -0.4561 -0.4838 -0.3123
 4220TIP3    H134151   0.461   0.241   0.435  1.6495 -1.0082  0.8707
 4220TIP3    H234152   0.437   0.312   0.566  0.9336 -1.8721  1.2196
 4221TIP3   OH234153   3.991   5.202  17.182  0.7717 -0.7043 -0.3710
 4221TIP3    H134154   3.936   5.138  17.135 -0.0333  0.7283 -1.4578
 4221TIP3    H234155   4.056   5.229  17.118 -0.9503  2.0274 -1.1327
 4222TIP3   OH234156   2.168   5.355  16.971 -0.2354  0.2370 -0.1327
 4222TIP3    H134157   2.243   5.410  16.994 -0.3956  0.0502  0.8595
 4222TIP3    H234158   2.137   5.392  16.888 -1.0115  2.3606  1.0235
 4223TIP3   OH234159   6.723   3.845   5.466 -1.3275 -0.1131  0.1774
 4223TIP3    H134160   6.678   3.914   5.416 -2.0174  0.3255  1.3704
 4223TIP3    H234161   6.770   3.893   5.535  0.2589 -0.6387 -0.4870
 4224TIP3   OH234162   3.456   0.403  15.938  0.3676 -0.4141 -0.0013
 4224TIP3    H134163   3.391   0.461  15.977 -1.3143 -1.7478 -0.6828
 4224TIP3    H234164   3.488   0.351  16.012 -1.0828 -1.3318  0.0194
 4225TIP3   OH234165   6.389   4.148  12.342 -0.8556 -0.1941 -0.5186
 4225TIP3    H134166   6.420   4.117  12.257  2.0230  1.0827 -0.0394
 4225TIP3    H234167   6.462   4.133  12.402 -1.6875  1.6496  1.0642
 4226TIP3   OH234168   1.984   6.278   4.758  0.1453  0.0205 -0.1310
 4226TIP3    H134169   1.947   6.258   4.672  3.0078 -2.6126 -0.9272
 4226TIP3    H234170   1.951   6.209   4.815 -0.7109  1.0237  0.6314
 4227TIP3   OH234171   3.483   2.250  15.239  0.1012  0.5011 -0.0845
 4227TIP3    H134172   3.526   2.193  15.303 -1.6444 -0.8143 -0.0161
 4227TIP3    H234173   3.390   2.231  15.249 -0.2595  0.4167 -2.8820
 4228TIP3   OH234174   6.564   6.619  11.994 -0.0433  0.3873 -0.5155
 4228TIP3    H134175   6.500   6.662  11.938  0.9019 -0.2024 -2.1279
 4228TIP3    H234176   6.649   6.637  11.952  0.9169  1.4132  1.7062
 4229TIP3   OH234177   0.079   2.656   6.328  0.6589  0.0888  0.0407
 4229TIP3    H134178   0.155   2.706   6.357  0.8067  1.4277 -2.4112
 4229TIP3    H234179   0.103   2.623   6.242 -0.9144 -0.9359 -0.0438
 4230TIP3   OH234180   0.517   2.869   3.572 -0.4682 -0.2232 -0.1562
 4230TIP3    H134181   0.455   2.900   3.638  0.1420  0.5237  0.0786
 4230TIP3    H234182   0.465   2.813   3.514 -0.8915 -1.3784  1.2846
 4231TIP3   OH234183   1.632   2.588  16.590  0.0128 -0.1033 -0.2942
 4231TIP3    H134184   1.603   2.662  16.643 -0.5938 -1.3017  1.1451
 4231TIP3    H234185   1.566   2.581  16.521 -0.4206  0.1664  0.0863
 4232TIP3   OH234186   2.365   2.282  17.317 -0.7847 -0.7272 -0.4315
 4232TIP3    H134187   2.384   2.372  17.343  0.5865 -0.9488 -0.5470
 4232TIP3    H234188   2.353   2.287  17.222 -1.1233 -0.6095 -0.3837
 4233TIP3   OH234189   2.620   6.285  12.455 -0.2016 -0.8490  0.3309
 4233TIP3    H134190   2.660   6.336  12.525 -1.5716 -0.7455  1.0778
 4233TIP3    H234191   2.608   6.198  12.492 -2.7176 -0.3048  0.9976
 4234TIP3   OH234192   5.614   1.753  12.594 -0.1612  0.0688 -0.4810
 4234TIP3    H134193   5.660   1.822  12.545  0.4552 -0.2741 -0.3999
 4234TIP3    H234194   5.671   1.735  12.669 -1.0665  0.5425  0.3470
 4235TIP3   OH234195   6.188   3.636   1.030 -0.2512  0.4249  0.2371
 4235TIP3    H134196   6.153   3.720   1.058 -1.6358  0.0971 -0.4178
 4235TIP3    H234197   6.228   3.653   0.945  1.0449  0.7530  0.8845
 4236TIP3   OH234198   6.668   2.553  15.982  0.3588 -0.1133 -0.3561
 4236TIP3    H134199   6.598   2.491  16.005 -1.8020  1.2878 -2.6783
 4236TIP3    H234200   6.636   2.638  16.014  1.2572  0.4679 -0.9705
 4237TIP3   OH234201   1.725   4.943  16.562 -0.0043 -0.6554 -0.1334
 4237TIP3    H134202   1.644   4.937  16.611 -0.1871 -2.2235 -0.5612
 4237TIP3    H234203   1.770   5.019  16.597 -1.5791  0.1400  0.2238
 4238TIP3   OH234204   6.073   6.488  13.184 -0.4896 -0.0681 -0.1304
 4238TIP3    H134205   6.026   6.540  13.119 -0.3052  0.8002  0.4124
 4238TIP3    H234206   6.012   6.479  13.257 -0.4321 -0.4090 -0.1238
 4239TIP3   OH234207   6.078   6.471   1.225  0.1705 -0.2451  0.4449
 4239TIP3    H134208   6.004   6.469   1.163 -0.9322 -0.8441  1.7355
 4239TIP3    H234209   6.089   6.563   1.246  0.4308 -0.0546 -0.4818
 4240TIP3   OH234210   0.650   1.791   3.003 -0.1738  0.1846 -0.9411
 4240TIP3    H134211   0.655   1.732   3.078 -0.4334  0.1088 -0.9833
 4240TIP3    H234212   0.618   1.736   2.931  1.0505  0.0021 -1.3758
 4241TIP3   OH234213   2.344   5.247   4.228 -0.4854  0.1294 -0.4487
 4241TIP3    H134214   2.260   5.292   4.222 -0.9867 -0.6578  0.4051
 4241TIP3    H234215   2.382   5.256   4.140 -0.6408  2.0058 -0.3611
 4242TIP3   OH234216   6.655   2.158   4.402 -0.1454 -0.0459 -0.1956
 4242TIP3    H134217   6.677   2.219   4.332  1.0325 -0.4938 -0.2333
 4242TIP3    H234218   6.652   2.211   4.481  0.9708  0.0564 -0.2120
 4243TIP3   OH234219   2.018   3.010  12.281 -0.5387  0.0049 -0.0432
 4243TIP3    H134220   2.032   2.938  12.219 -2.1595 -0.1866 -0.2464
 4243TIP3    H234221   2.028   3.090  12.228  0.7153 -0.0808  0.0573
 4244TIP3   OH234222   4.407   4.979   4.478 -0.0083 -0.2446  0.3196
 4244TIP3    H134223   4.503   4.984   4.481 -0.0580  2.2191 -0.5217
 4244TIP3    H234224   4.381   4.965   4.568  1.1262 -1.0553  0.5514
 4245TIP3   OH234225   3.951   4.726  16.499 -0.2317 -0.4390 -0.4842
 4245TIP3    H134226   3.861   4.709  16.473 -0.0696 -0.2381 -1.1994
 4245TIP3    H234227   3.997   4.643  16.482 -0.2964 -0.5662 -0.0463
 4246TIP3   OH234228   5.977   4.841   0.435  0.0153 -0.0094 -0.0366
 4246TIP3    H134229   5.931   4.834   0.519  1.0059 -1.0262  0.4463
 4246TIP3    H234230   5.930   4.780   0.377  1.1373 -1.6459  0.6740
 4247TIP3   OH234231   3.602   1.840  13.104  0.1242  0.2007 -0.5122
 4247TIP3    H134232   3.672   1.775  13.101 -0.9783 -1.1726  1.2235
 4247TIP3    H234233   3.581   1.858  13.012 -0.6682 -3.2242 -1.1301
 4248TIP3   OH234234   6.147   1.603  14.536 -0.1040  0.0710  0.2070
 4248TIP3    H134235   6.219   1.619  14.597  0.2973 -1.6534  0.2256
 4248TIP3    H234236   6.186   1.552  14.465 -1.0486  0.1730 -0.4116
 4249TIP3   OH234237   2.641   2.574   1.090  0.2568  0.4942  0.3811
 4249TIP3    H134238   2.629   2.605   1.180  1.1239  0.8819  0.3671
 4249TIP3    H234239   2.638   2.478   1.097  0.3875  0.5225  0.8311
 4250TIP3   OH234240   0.680   5.587   3.090 -0.7865  0.2771 -0.1521
 4250TIP3    H134241   0.610   5.522   3.096 -0.0120 -0.4975  0.7189
 4250TIP3    H234242   0.644   5.656   3.034 -2.7030  0.4781  1.2399
 4251TIP3   OH234243   2.469   1.006  14.968  0.1334  0.2613  0.0020
 4251TIP3    H134244   2.460   0.912  14.985  1.0336 -0.0111 -0.9237
 4251TIP3    H234245   2.409   1.023  14.895 -0.4091  0.5249  0.4971
 4252TIP3   OH234246   6.647   2.239   1.606 -0.1205  0.1937  0.4827
 4252TIP3    H134247   6.686   2.275   1.686  1.0928  0.3571 -0.1728
 4252TIP3    H234248   6.553   2.232   1.627  0.4424 -1.9262  2.7297
 4253TIP3   OH234249   6.469   4.211  12.714  0.4463 -0.1047  0.1469
 4253TIP3    H134250   6.489   4.149  12.643 -0.4396 -0.8502  0.5327
 4253TIP3    H234251   6.380   4.240  12.696  0.0603 -0.6145  1.1733
 4254TIP3   OH234252   6.507   2.372  14.683  0.6693  0.5890  0.1462
 4254TIP3    H134253   6.469   2.340  14.764  1.4461 -2.0275 -0.4339
 4254TIP3    H234254   6.584   2.317  14.668  1.6179  2.2023 -1.4436
 4255TIP3   OH234255   1.711   4.713  17.522  0.1171 -0.0691  0.3076
 4255TIP3    H134256   1.693   4.661  17.443 -0.9020 -1.1032  1.1785
 4255TIP3    H234257   1.664   4.795  17.507  0.5780  0.0615 -0.4821
 4256TIP3   OH234258   1.982   2.745  17.594 -0.5311 -0.1753 -0.3934
 4256TIP3    H134259   2.019   2.672  17.545 -0.1394  0.1142 -0.5320
 4256TIP3    H234260   1.943   2.802  17.527 -0.4926 -0.0636 -0.3223
 4257TIP3   OH234261   0.516   0.874   3.504  0.9516  0.2192 -0.7366
 4257TIP3    H134262   0.525   0.788   3.463 -0.0359  0.4062 -1.3990
 4257TIP3    H234263   0.512   0.936   3.430  0.8160  0.7370 -0.3034
 4258TIP3   OH234264   2.304   2.340   3.647  0.5502  0.0116  0.5769
 4258TIP3    H134265   2.257   2.353   3.564  0.9059 -2.1200 -0.0198
 4258TIP3    H234266   2.392   2.373   3.630 -0.2649  2.8054  1.2810
 4259TIP3   OH234267   5.861   0.588   4.440  0.3357 -0.3779 -0.0921
 4259TIP3    H134268   5.790   0.529   4.413  0.5896 -0.4184 -0.6862
 4259TIP3    H234269   5.910   0.538   4.506 -0.4522 -0.1741  0.6721
 4260TIP3   OH234270   1.599   0.908  16.226  0.0806 -0.4559  0.1749
 4260TIP3    H134271   1.693   0.903  16.210  0.3298 -1.9939  1.8612
 4260TIP3    H234272   1.591   0.946  16.314 -0.8321 -0.9875  0.3442
 4261TIP3   OH234273   4.655   1.567  15.950  0.1506 -0.2203 -0.4437
 4261TIP3    H134274   4.622   1.505  16.015 -0.8820 -0.0723 -0.8143
 4261TIP3    H234275   4.749   1.572  15.968  0.1248 -1.3062  0.0858
 4262TIP3   OH234276   5.390   3.236   5.026  0.1156 -0.2129  0.3564
 4262TIP3    H134277   5.348   3.227   5.112  0.7620  0.6933  0.7900
 4262TIP3    H234278   5.467   3.291   5.043  0.1200  0.1843 -0.8528
 4263TIP3   OH234279   2.270   2.885  11.930  0.5717  0.0947  0.0625
 4263TIP3    H134280   2.194   2.882  11.873 -0.5453 -0.5189  1.5168
 4263TIP3    H234281   2.335   2.830  11.887 -0.7393 -1.5046  0.0395
 4264TIP3   OH234282   1.134   2.896   6.029  0.6218 -0.2216  0.2789
 4264TIP3    H134283   1.171   2.918   6.114 -0.2179 -0.6581  0.7682
 4264TIP3    H234284   1.202   2.843   5.987  1.2950  0.5212  0.4151
 4265TIP3   OH234285   1.394   5.585  17.061  0.4106 -0.1299 -0.7066
 4265TIP3    H134286   1.299   5.590  17.071  0.4416  1.2978 -0.8798
 4265TIP3    H234287   1.428   5.582  17.150  0.2015 -0.9160 -0.6482
 4266TIP3   OH234288   5.081   1.252   2.550 -0.1032  0.2279 -0.7131
 4266TIP3    H134289   5.119   1.165   2.553  0.3608  0.4597  0.3643
 4266TIP3    H234290   5.096   1.289   2.637 -1.3546  0.9418 -0.7711
 4267TIP3   OH234291   2.967   2.609  13.316 -0.3241  0.3189  0.2746
 4267TIP3    H134292   2.959   2.534  13.258  0.8492 -0.2088  0.7636
 4267TIP3    H234293   2.880   2.618  13.355 -1.2705  0.9722 -1.8441
 4268TIP3   OH234294   2.157   0.466   6.826  0.4425 -0.1883 -0.1340
 4268TIP3    H134295   2.160   0.371   6.835 -0.8407 -0.3876 -1.4327
 4268TIP3    H234296   2.109   0.496   6.904  0.0052 -0.7057 -0.2002
 4269TIP3   OH234297   3.861   3.796  15.779 -0.1513  0.1220 -0.0134
 4269TIP3    H134298   3.809   3.873  15.800 -0.3179 -0.3839  1.5898
 4269TIP3    H234299   3.941   3.807  15.829  1.4502  0.9622 -2.5652
 4270TIP3   OH234300   4.114   5.013   0.327  0.0372 -0.1669  0.0684
 4270TIP3    H134301   4.169   4.959   0.384 -0.2857 -3.1527 -2.2057
 4270TIP3    H234302   4.177   5.061   0.272  0.6159 -3.4243 -2.3985
 4271TIP3   OH234303   5.767   2.655  11.415  0.1864  0.0217  0.2691
 4271TIP3    H134304   5.675   2.632  11.411 -0.2267  1.4609  0.6297
 4271TIP3    H234305   5.780   2.714  11.341  0.4355  0.9890  1.0576
 4272TIP3   OH234306   4.009   3.414   2.840  0.0679  0.0291  0.1664
 4272TIP3    H134307   3.976   3.498   2.870  0.1929  0.3229 -0.5024
 4272TIP3    H234308   3.954   3.391   2.766 -1.0192 -1.2789  1.3463
 4273TIP3   OH234309   1.461   1.401   6.346  0.2035  0.2364  0.1497
 4273TIP3    H134310   1.395   1.332   6.343 -0.0264  0.4190  0.8087
 4273TIP3    H234311   1.493   1.408   6.256 -1.4438  0.8853 -0.4149
 4274TIP3   OH234312   0.018   3.225   1.181 -0.3470  0.1017 -0.2263
 4274TIP3    H134313  -0.032   3.175   1.246  1.7572  0.0454  1.4542
 4274TIP3    H234314   0.101   3.178   1.174  0.2123  1.2240 -1.5342
 4275TIP3   OH234315   0.558   1.880  16.013 -0.2167  0.4916  0.3766
 4275TIP3    H134316   0.512   1.908  16.092 -1.2594  3.0562 -1.0135
 4275TIP3    H234317   0.491   1.836  15.960  1.0810 -3.9082  1.9103
 4276TIP3   OH234318   3.811   4.740  17.152  0.3927 -0.5432  0.1852
 4276TIP3    H134319   3.826   4.651  17.185 -0.2292 -1.3432 -1.5748
 4276TIP3    H234320   3.735   4.732  17.095 -0.3353  1.3545  0.8244
 4277TIP3   OH234321   6.609   4.015   3.430  0.0637 -0.1332  0.0951
 4277TIP3    H134322   6.620   3.970   3.347 -2.6606  1.4640 -1.2651
 4277TIP3    H234323   6.667   4.091   3.424 -2.9466  2.2229 -2.2574
 4278TIP3   OH234324   0.251   6.171   0.778 -0.0304 -0.4510 -0.0255
 4278TIP3    H134325   0.331   6.163   0.830  0.7567  0.4263 -1.0539
 4278TIP3    H234326   0.273   6.130   0.694 -0.7909 -0.5436 -0.1833
 4279TIP3   OH234327   0.824   3.393  17.339 -0.8508 -0.8652 -0.2923
 4279TIP3    H134328   0.755   3.444  17.295 -0.6738 -0.0948  0.2915
 4279TIP3    H234329   0.881   3.460  17.378  0.0198 -1.5047 -0.4521
 4280TIP3   OH234330   0.572   2.853   5.336 -0.8389 -0.1153 -0.0621
 4280TIP3    H134331   0.663   2.829   5.319 -1.2465 -1.5962 -0.2429
 4280TIP3    H234332   0.574   2.948   5.347  0.6327 -0.0609 -0.6415
 4281TIP3   OH234333   3.637   1.057   0.036  0.5652 -0.2392 -0.2495
 4281TIP3    H134334   3.675   1.113   0.104 -1.3009  0.7147  0.0722
 4281TIP3    H234335   3.676   0.971   0.052  1.5260  0.3711  0.8907
 4282TIP3   OH234336   0.178   2.965   4.784 -0.0547 -0.4949 -0.5531
 4282TIP3    H134337   0.219   3.039   4.740  0.7878 -0.4316  0.3136
 4282TIP3    H234338   0.088   2.993   4.800  0.2849  0.3867 -0.1397
 4283TIP3   OH234339   1.050   2.455   1.564 -0.6266  0.2058  0.0014
 4283TIP3    H134340   1.028   2.543   1.537  1.5976  0.3549 -1.6234
 4283TIP3    H234341   1.137   2.463   1.604  0.9153 -1.5061 -2.6418
 4284TIP3   OH234342   1.502   3.016  12.270  0.2284  0.5154  0.5504
 4284TIP3    H134343   1.575   2.958  12.293  1.3371  0.8903 -1.7236
 4284TIP3    H234344   1.543   3.097  12.242 -0.8384  0.1557 -2.5093
 4285TIP3   OH234345   3.085   6.024   2.051 -0.0459 -0.5011  0.2253
 4285TIP3    H134346   3.100   5.972   1.972  2.0944 -0.4735  0.5401
 4285TIP3    H234347   3.049   5.962   2.115 -0.2368 -0.9030 -0.2641
 4286TIP3   OH234348   3.328   1.404   1.378  0.6319  0.0923  0.0542
 4286TIP3    H134349   3.257   1.430   1.320  0.6049 -1.0883 -0.4628
 4286TIP3    H234350   3.291   1.335   1.433  1.2595 -0.2567  0.0479
 4287TIP3   OH234351   0.752   0.639   3.568 -0.2238 -0.0269  0.4819
 4287TIP3    H134352   0.682   0.647   3.633  1.0936  1.3702  1.8092
 4287TIP3    H234353   0.730   0.559   3.520 -1.2157 -1.1835  2.6988
 4288TIP3   OH234354   4.077   4.242   2.291  0.5321 -0.1211  0.1263
 4288TIP3    H134355   4.107   4.265   2.203  0.1724  0.7390  0.2185
 4288TIP3    H234356   3.981   4.250   2.286  0.6165  3.7040  1.5451
 4289TIP3   OH234357   3.052   5.916   0.962  0.4209 -0.1389 -0.1115
 4289TIP3    H134358   2.983   5.958   0.910 -0.0489 -0.9754 -0.1960
 4289TIP3    H234359   3.132   5.961   0.937  0.1786 -0.4013 -1.4346
 4290TIP3   OH234360   3.203   2.503  13.655 -0.1558  0.4797  0.3845
 4290TIP3    H134361   3.208   2.477  13.562 -1.2700  1.1656  0.1180
 4290TIP3    H234362   3.163   2.428  13.698  2.7211 -0.9704  0.8408
 4291TIP3   OH234363   0.834   1.925  16.054 -0.2001  0.0573 -0.1281
 4291TIP3    H134364   0.741   1.906  16.039 -0.1825  1.5167 -2.6857
 4291TIP3    H234365   0.880   1.872  15.989  0.6753  0.1501  0.4073
 4292TIP3   OH234366   0.139   1.655   3.632  0.1635 -0.4455  0.1538
 4292TIP3    H134367   0.065   1.640   3.573  0.6105 -0.7857 -0.3284
 4292TIP3    H234368   0.216   1.632   3.581  0.6673  0.5969  0.4118
 4293TIP3   OH234369   5.362   2.396  13.351  0.6614  0.5863  0.5477
 4293TIP3    H134370   5.316   2.471  13.389 -0.2243  0.0979  0.4631
 4293TIP3    H234371   5.433   2.435  13.300  0.5216  1.3439  0.9127
 4294TIP3   OH234372   2.462   1.286  12.195  0.1825 -0.7331 -0.2753
 4294TIP3    H134373   2.549   1.319  12.215 -1.1419  1.2785  3.0275
 4294TIP3    H234374   2.463   1.195  12.227  0.9919 -0.6540 -0.0534
 4295TIP3   OH234375   3.020   1.058  12.124 -0.3309  0.2801 -0.0429
 4295TIP3    H134376   3.082   1.070  12.196 -1.3713  2.3381  0.5829
 4295TIP3    H234377   2.956   0.994  12.157  0.3853 -0.4225  0.0092
 4296TIP3   OH234378   6.477   0.409   3.281  0.2304  0.1210  0.1356
 4296TIP3    H134379   6.414   0.374   3.217  1.5817  1.4193 -2.0447
 4296TIP3    H234380   6.525   0.332   3.312 -0.6788 -0.5838 -0.1522
 4297TIP3   OH234381   3.148   2.758  14.251  0.0352 -0.3978  0.3396
 4297TIP3    H134382   3.222   2.812  14.278  0.9639 -0.8711 -1.1536
 4297TIP3    H234383   3.158   2.677  14.300 -1.0560  0.5265  2.1760
 4298TIP3   OH234384   2.926   5.340   2.060 -1.0230 -0.6439  0.3282
 4298TIP3    H134385   2.877   5.264   2.030 -1.9795 -1.1334  2.8127
 4298TIP3    H234386   2.862   5.412   2.061 -1.4030 -0.9434  2.2214
 4299TIP3   OH234387   6.386   3.794   2.172 -0.6377 -0.0383 -0.4653
 4299TIP3    H134388   6.379   3.707   2.212 -0.4479 -0.3160 -1.0119
 4299TIP3    H234389   6.467   3.830   2.207 -0.8124 -0.0033 -0.0918
 4300TIP3   OH234390   2.536   0.675   1.927 -0.2733 -0.1772 -0.6446
 4300TIP3    H134391   2.491   0.591   1.916 -0.4538  0.1034 -2.2367
 4300TIP3    H234392   2.476   0.740   1.890 -0.2493  0.7140  0.7971
 4301TIP3   OH234393   4.939   1.550   5.920 -0.7318 -0.6186 -0.1608
 4301TIP3    H134394   4.996   1.583   5.850 -3.2323  1.2544 -1.4911
 4301TIP3    H234395   4.996   1.546   5.997  1.1108  1.5797 -1.2727
 4302TIP3   OH234396   4.823   4.112  16.638 -0.0713 -0.2675 -0.4972
 4302TIP3    H134397   4.864   4.141  16.719 -1.1355  0.4786 -0.2158
 4302TIP3    H234398   4.842   4.181  16.575 -1.5156  0.4605 -0.1631
 4303TIP3   OH234399   5.641   1.378   3.378  0.1543 -0.1338 -0.3057
 4303TIP3    H134400   5.623   1.364   3.284  0.5672  0.3548 -0.4581
 4303TIP3    H234401   5.579   1.446   3.404  0.5690  0.2962 -0.4178
 4304TIP3   OH234402   5.223   0.386   4.889  0.2075  0.1800 -0.6047
 4304TIP3    H134403   5.141   0.336   4.891  0.0952  0.3809 -0.0788
 4304TIP3    H234404   5.281   0.334   4.833  0.0354 -0.4554 -0.2017
 4305TIP3   OH234405   4.453   3.384   5.091  0.0228 -0.1088 -0.8711
 4305TIP3    H134406   4.478   3.464   5.137 -0.5325 -0.7030  0.5131
 4305TIP3    H234407   4.357   3.381   5.099  0.0784 -1.1880 -0.3927
 4306TIP3   OH234408   0.056   1.214  16.856 -0.1650  0.0216  0.2736
 4306TIP3    H134409   0.128   1.178  16.908  0.8459  1.1065 -0.3302
 4306TIP3    H234410  -0.023   1.193  16.906  0.6952  0.1968  1.7545
 4307TIP3   OH234411   5.764   0.106  15.243 -0.2049  0.2719 -0.3003
 4307TIP3    H134412   5.763   0.032  15.182 -0.6895 -0.1833  0.2482
 4307TIP3    H234413   5.677   0.106  15.282  0.2393  0.2750  0.7305
 4308TIP3   OH234414   3.581   4.187  16.027 -0.1100  0.7675  0.4136
 4308TIP3    H134415   3.533   4.264  15.997 -0.1594  0.8207  0.6254
 4308TIP3    H234416   3.539   4.163  16.110 -1.2769 -0.5793 -0.5173
 4309TIP3   OH234417   4.620   2.300   3.031  0.2943 -0.2061  0.1445
 4309TIP3    H134418   4.622   2.287   3.125 -0.4346 -2.2036 -0.0734
 4309TIP3    H234419   4.547   2.246   3.000  0.7157  0.1451 -1.6002
 4310TIP3   OH234420   0.701   4.569   2.805  0.2718  0.2919  1.0139
 4310TIP3    H134421   0.607   4.565   2.822  0.4674 -2.2602  1.8949
 4310TIP3    H234422   0.708   4.574   2.710 -0.7123  2.7357  0.9940
 4311TIP3   OH234423   4.154   0.727  12.609  0.1208 -0.4842  0.0482
 4311TIP3    H134424   4.182   0.811  12.572  0.4938 -0.8225 -0.4407
 4311TIP3    H234425   4.140   0.670  12.533 -1.2624 -0.5268  0.3135
 4312TIP3   OH234426   3.653   0.699  16.540  0.4107 -0.2164 -0.1407
 4312TIP3    H134427   3.662   0.764  16.470  0.2839 -1.3333 -1.2406
 4312TIP3    H234428   3.729   0.642  16.528 -0.2513 -1.1119 -0.1290
 4313TIP3   OH234429   2.492   5.668   4.602 -0.1458 -0.4891  0.3716
 4313TIP3    H134430   2.566   5.680   4.543  0.4395  0.4044  1.2545
 4313TIP3    H234431   2.458   5.756   4.617 -1.1442 -0.8544  0.2855
 4314TIP3   OH234432   2.408   4.615  10.749 -0.2431  0.4183 -0.2325
 4314TIP3    H134433   2.378   4.528  10.774 -3.3604  1.3400 -0.4282
 4314TIP3    H234434   2.401   4.667  10.829  0.9442  0.7025 -0.2834
 4315TIP3   OH234435   0.143   1.170  15.746 -0.0176 -0.2647 -0.0157
 4315TIP3    H134436   0.201   1.107  15.791  0.9832  0.3810 -0.3681
 4315TIP3    H234437   0.055   1.143  15.770  0.3933 -1.7695 -0.0912
 4316TIP3   OH234438   4.598   5.587  15.409 -0.1958  0.0644  1.2720
 4316TIP3    H134439   4.676   5.532  15.415 -0.0270 -0.2675 -2.2063
 4316TIP3    H234440   4.525   5.526  15.406  0.0142 -0.2437 -2.9888
 4317TIP3   OH234441   5.348   1.686  11.695  0.2160 -0.1738  0.1750
 4317TIP3    H134442   5.390   1.614  11.742  0.4070  0.0577  0.3665
 4317TIP3    H234443   5.257   1.659  11.684  0.0747 -0.0599  1.0345
 4318TIP3   OH234444   3.869   0.133   6.168 -0.1687  0.3341  0.3232
 4318TIP3    H134445   3.796   0.085   6.206  1.3563 -0.6157  2.2402
 4318TIP3    H234446   3.911   0.070   6.108 -1.2300  1.0925 -1.3023
 4319TIP3   OH234447   2.426   2.106  16.391  0.4939  0.1357 -1.0072
 4319TIP3    H134448   2.427   2.157  16.310  0.7226 -0.7265 -1.5597
 4319TIP3    H234449   2.516   2.110  16.424  0.5062  0.0970 -1.0373
 4320TIP3   OH234450   2.358   3.449  15.081 -0.5326 -0.0238  0.1219
 4320TIP3    H134451   2.432   3.392  15.104  0.5950  0.8094 -1.2085
 4320TIP3    H234452   2.382   3.535  15.115 -1.4651  0.0025  0.7254
 4321TIP3   OH234453   3.443   6.307   6.232 -0.3870 -0.1212 -0.0442
 4321TIP3    H134454   3.478   6.355   6.156 -1.1428  0.6304  0.0646
 4321TIP3    H234455   3.405   6.375   6.287  0.4860 -0.6231  1.2086
 4322TIP3   OH234456   6.186   3.143  13.239  0.2109 -0.2250  0.2213
 4322TIP3    H134457   6.236   3.101  13.169 -0.2225  1.2363 -1.0109
 4322TIP3    H234458   6.231   3.226  13.255  0.1260 -0.3980  1.4841
 4323TIP3   OH234459   2.725   3.762   4.279  0.2428  0.3030 -0.4117
 4323TIP3    H134460   2.644   3.814   4.282 -0.1563 -0.3274  1.7136
 4323TIP3    H234461   2.726   3.723   4.192 -1.7616  0.3569 -0.5058
 4324TIP3   OH234462   3.232   6.248   2.919  0.3367  0.4671  0.0975
 4324TIP3    H134463   3.206   6.265   2.829 -1.8750 -1.1790  0.3519
 4324TIP3    H234464   3.169   6.297   2.972 -0.9877 -1.7611  0.7231
 4325TIP3   OH234465   2.913   5.570   6.245  0.1920  0.3986 -0.5972
 4325TIP3    H134466   2.904   5.484   6.287  0.4630  0.8312  0.3679
 4325TIP3    H234467   2.996   5.604   6.278  0.0108  1.1074 -0.8561
 4326TIP3   OH234468   4.105   4.932  13.613 -0.4827  0.0754 -0.3603
 4326TIP3    H134469   4.199   4.952  13.621  0.2805 -2.7714 -0.8826
 4326TIP3    H234470   4.089   4.932  13.518 -0.9507  0.3366 -0.2798
 4327TIP3   OH234471   4.849   0.187   1.124  0.0230  0.1097  0.2021
 4327TIP3    H134472   4.920   0.182   1.188 -1.1205 -2.0164  1.4269
 4327TIP3    H234473   4.872   0.122   1.057  0.1812  0.8350 -0.4608
 4328TIP3   OH234474   4.676   0.060   5.444  0.3329  0.0466 -0.3869
 4328TIP3    H134475   4.704  -0.032   5.448  0.6785  0.1964  1.0803
 4328TIP3    H234476   4.610   0.061   5.374 -0.4768 -1.5396  0.2816
 4329TIP3   OH234477   2.670   0.279   5.970  0.0583  0.1738 -0.6618
 4329TIP3    H134478   2.757   0.316   5.984 -0.0223  0.6793 -1.4558
 4329TIP3    H234479   2.651   0.297   5.878 -0.4008 -0.9558 -0.8017
 4330TIP3   OH234480   6.738   5.631  13.549 -0.2507  0.2318  0.7383
 4330TIP3    H134481   6.688   5.702  13.589 -0.4333  0.5630 -0.0565
 4330TIP3    H234482   6.829   5.652  13.569 -0.0659  2.1499 -1.6843
 4331TIP3   OH234483   4.631   0.435   3.709  0.2496 -0.3294 -0.6791
 4331TIP3    H134484   4.583   0.500   3.658  0.3305 -1.3267 -2.1049
 4331TIP3    H234485   4.581   0.425   3.790 -0.6331  0.3606 -1.1254
 4332TIP3   OH234486   4.424   3.066  17.036  0.1576  0.7545  0.9340
 4332TIP3    H134487   4.369   3.049  17.112 -0.0297 -1.4187  0.3728
 4332TIP3    H234488   4.514   3.058  17.068  0.1521 -3.6276  0.4077
 4333TIP3   OH234489   3.987   6.730   2.941 -0.0589  0.3685 -0.4621
 4333TIP3    H134490   4.023   6.738   2.852  1.2827  0.0612  0.0321
 4333TIP3    H234491   3.963   6.638   2.949 -0.8410  0.5392 -0.7322
 4334TIP3   OH234492   0.329   5.267  14.873  0.1541  0.2549  0.0446
 4334TIP3    H134493   0.417   5.270  14.836  0.3435 -0.5064  0.4174
 4334TIP3    H234494   0.319   5.177  14.904 -0.9431  0.1821 -0.4514
 4335TIP3   OH234495   3.499   2.301  16.874  0.2871  0.2042 -0.0085
 4335TIP3    H134496   3.548   2.255  16.941  1.1359 -0.3226 -0.9736
 4335TIP3    H234497   3.410   2.265  16.880  0.8520 -1.3848 -0.5388
 4336TIP3   OH234498   5.412   1.856   3.231  0.4227 -0.2538 -0.3862
 4336TIP3    H134499   5.432   1.867   3.138  1.6204 -0.9522 -0.2367
 4336TIP3    H234500   5.492   1.819   3.268 -1.0829 -3.0885  0.3299
 4337TIP3   OH234501   5.159   2.674   1.433 -0.3410  0.2896 -0.2255
 4337TIP3    H134502   5.176   2.620   1.356 -1.1926  0.5208 -0.5817
 4337TIP3    H234503   5.232   2.736   1.435 -1.0316  1.2112 -1.6793
 4338TIP3   OH234504   4.541   1.260   1.565  0.4889 -0.1888  0.0035
 4338TIP3    H134505   4.585   1.184   1.601 -1.8450 -1.2201  0.8731
 4338TIP3    H234506   4.505   1.306   1.641  0.1798  0.6721 -0.6421
 4339TIP3   OH234507   1.389   5.823  14.389 -0.1183 -0.1483 -0.4879
 4339TIP3    H134508   1.417   5.775  14.467 -1.3059  0.3120  0.2385
 4339TIP3    H234509   1.342   5.758  14.337 -0.8162 -0.0304 -0.0048
 4340TIP3   OH234510   2.001   1.381   5.845  0.6317  0.3915  0.4297
 4340TIP3    H134511   2.016   1.306   5.903  0.5425  0.6428  0.7787
 4340TIP3    H234512   2.040   1.455   5.890  0.1909  0.6689  0.3632
 4341TIP3   OH234513   4.477   1.854   6.188 -0.5805 -0.1731  0.5785
 4341TIP3    H134514   4.565   1.887   6.204 -0.4426 -0.5973  0.7306
 4341TIP3    H234515   4.481   1.761   6.213 -0.5757 -0.6736 -1.1088
 4342TIP3   OH234516   3.518   1.996  16.819 -0.0685  0.4493  0.3846
 4342TIP3    H134517   3.455   2.017  16.750 -0.3775 -0.5910  0.3438
 4342TIP3    H234518   3.496   1.908  16.847  2.4421 -0.6660 -0.8141
 4343TIP3   OH234519   1.056   0.036   0.440 -0.3066  0.2963  0.0560
 4343TIP3    H134520   1.068   0.009   0.531  0.8815  1.3282  0.2395
 4343TIP3    H234521   1.141   0.021   0.399 -0.5174  0.8427 -0.6012
 4344TIP3   OH234522   5.519   5.356   4.194 -0.9910  0.1972 -0.3287
 4344TIP3    H134523   5.570   5.405   4.130 -1.5875  0.3526 -0.6955
 4344TIP3    H234524   5.431   5.393   4.187 -1.3840 -0.7202 -0.3983
 4345TIP3   OH234525   0.773   2.261  10.885 -0.2872  0.3773 -0.1187
 4345TIP3    H134526   0.716   2.224  10.953  0.2133  1.3383  0.8631
 4345TIP3    H234527   0.725   2.337  10.852 -0.7821 -0.4055 -1.2861
 4346TIP3   OH234528   5.427   3.325   3.535  0.7038 -0.1517  0.2310
 4346TIP3    H134529   5.346   3.293   3.496  1.4279  0.4938 -1.9220
 4346TIP3    H234530   5.479   3.357   3.461  2.8706 -0.4049  1.5479
 4347TIP3   OH234531   2.818   1.618   1.192  0.5002  0.1315  0.2557
 4347TIP3    H134532   2.739   1.640   1.240  0.6358 -1.0134  1.0357
 4347TIP3    H234533   2.800   1.531   1.154  1.3674 -0.1418  0.4437
 4348TIP3   OH234534   0.013   3.886   2.658 -0.4300  0.0852  0.7422
 4348TIP3    H134535   0.003   3.790   2.654  0.1233 -0.0507  2.0544
 4348TIP3    H234536   0.049   3.909   2.572  0.9305 -1.1037  0.9521
 4349TIP3   OH234537   4.279   4.206  15.916  0.0284  0.0154 -0.1920
 4349TIP3    H134538   4.319   4.251  15.991 -1.5627  1.5847 -0.2131
 4349TIP3    H234539   4.189   4.236  15.916 -0.5082 -1.4503 -1.6413
 4350TIP3   OH234540   6.159   5.567   4.286 -0.2488  0.2447 -0.0173
 4350TIP3    H134541   6.140   5.661   4.284 -1.2418  0.0539 -0.6440
 4350TIP3    H234542   6.086   5.528   4.237 -0.9635 -1.0517  1.9813
 4351TIP3   OH234543   1.533   2.747  15.097  0.2287  0.2517 -0.4407
 4351TIP3    H134544   1.610   2.736  15.042 -0.4153  1.7323 -1.6868
 4351TIP3    H234545   1.548   2.829  15.145  0.3924 -0.5780  1.0119
 4352TIP3   OH234546   4.915   3.406   5.681  0.1399 -0.2057 -0.3685
 4352TIP3    H134547   4.867   3.416   5.763  2.3758 -0.3292  1.0522
 4352TIP3    H234548   4.863   3.453   5.616 -2.9128 -2.0389  0.5510
 4353TIP3   OH234549   3.561   5.724  12.955  0.4468  0.0239 -0.2870
 4353TIP3    H134550   3.649   5.687  12.954  0.2815 -0.3664 -0.7217
 4353TIP3    H234551   3.574   5.817  12.935  0.9843  0.5016  2.0693
 4354TIP3   OH234552   1.196   2.742   6.687 -0.4498 -0.8420 -0.3588
 4354TIP3    H134553   1.185   2.667   6.746  0.8319 -0.8840 -0.1368
 4354TIP3    H234554   1.198   2.704   6.599 -1.0018 -0.9332 -0.3323
 4355TIP3   OH234555   4.365   5.485  17.108  0.3729 -0.1141  1.3499
 4355TIP3    H134556   4.419   5.509  17.034  2.0420 -0.3112  2.4536
 4355TIP3    H234557   4.303   5.421  17.073  1.4168 -0.5368  0.2247
 4356TIP3   OH234558   1.991   5.782   1.218 -0.0785  0.2028 -0.3318
 4356TIP3    H134559   2.038   5.729   1.283 -0.0534 -0.9754 -1.2598
 4356TIP3    H234560   2.054   5.849   1.192  0.2116  0.1567  0.2406
 4357TIP3   OH234561   5.070   1.374  11.140  0.0433 -0.2372 -0.5767
 4357TIP3    H134562   5.014   1.431  11.192  0.5902  0.9801 -1.2607
 4357TIP3    H234563   5.076   1.293  11.190 -3.2679 -0.9173 -1.0261
 4358TIP3   OH234564   4.756   5.495   0.143  0.3154  0.0468 -0.0257
 4358TIP3    H134565   4.742   5.533   0.056 -3.3592 -0.6309  0.0854
 4358TIP3    H234566   4.707   5.412   0.140  2.3716 -1.3308  1.8959
 4359TIP3   OH234567   1.458   0.275  17.241  0.2234 -0.6733  0.0938
 4359TIP3    H134568   1.522   0.297  17.309 -1.9130 -0.8522  2.2962
 4359TIP3    H234569   1.408   0.356  17.229  0.1946 -0.8210 -0.8720
 4360TIP3   OH234570   0.393   4.676  15.048  0.0898  0.2244 -0.2912
 4360TIP3    H134571   0.321   4.622  15.016 -1.0457  2.4718 -1.7683
 4360TIP3    H234572   0.470   4.643  15.002 -0.4388 -0.5796 -0.6264
 4361TIP3   OH234573   0.271   1.333  14.207 -0.4231 -0.5468 -0.6859
 4361TIP3    H134574   0.185   1.362  14.238  0.2051  0.2281  0.3994
 4361TIP3    H234575   0.333   1.392  14.251  0.8351 -2.7121  0.6091
 4362TIP3   OH234576   2.423   5.014  17.412 -0.1303 -0.6744 -0.0869
 4362TIP3    H134577   2.425   4.923  17.384  0.1367 -1.2829  1.8053
 4362TIP3    H234578   2.339   5.023  17.458  1.1480 -0.8968  2.4899
 4363TIP3   OH234579   1.404   5.050   0.969 -0.2321 -0.1444  0.1910
 4363TIP3    H134580   1.379   4.978   0.911  1.2669 -0.8375  0.3578
 4363TIP3    H234581   1.498   5.040   0.980  0.1721  2.3025 -0.3988
 4364TIP3   OH234582   3.495   6.350   2.950 -0.0057  0.2361 -0.5081
 4364TIP3    H134583   3.412   6.305   2.936 -0.9455  1.6472  0.2963
 4364TIP3    H234584   3.471   6.442   2.961  1.6495  0.6456 -0.0323
 4365TIP3   OH234585   0.040   5.818  10.928  0.1498 -0.2501 -0.3595
 4365TIP3    H134586  -0.038   5.776  10.966  0.3002 -1.7582 -1.5992
 4365TIP3    H234587   0.113   5.769  10.966  0.4641  0.5402  0.0725
 4366TIP3   OH234588   6.516   0.814  13.736  0.0769  0.3161  0.1994
 4366TIP3    H134589   6.544   0.728  13.767 -3.5044 -1.4034 -0.7435
 4366TIP3    H234590   6.548   0.818  13.646  0.7507  0.2326  0.4325
 4367TIP3   OH234591   3.707   2.724   2.463  0.2046 -0.0691  0.2564
 4367TIP3    H134592   3.696   2.630   2.475  2.0416 -0.1052  2.4512
 4367TIP3    H234593   3.618   2.758   2.453 -0.7019 -1.7815  1.9106
 4368TIP3   OH234594   2.258   5.877  16.339  0.2714  0.6227 -0.1757
 4368TIP3    H134595   2.241   5.940  16.409 -1.2297  1.1327 -0.9406
 4368TIP3    H234596   2.171   5.854  16.306  0.9236  0.3154 -1.7801
 4369TIP3   OH234597   4.867   1.014  17.344 -0.2426  0.4325  0.1132
 4369TIP3    H134598   4.876   0.919  17.343  0.2602  0.4743  0.1891
 4369TIP3    H234599   4.859   1.037  17.437  1.1993  0.5881  0.2216
 4370TIP3   OH234600   1.922   3.791   5.313  0.5751 -0.0834  0.2920
 4370TIP3    H134601   1.891   3.726   5.376 -1.7428  1.5150  0.9158
 4370TIP3    H234602   1.961   3.860   5.366 -0.0958  0.6059 -0.0753
 4371TIP3   OH234603   4.525   4.913   5.570 -0.2061  0.5679 -0.2437
 4371TIP3    H134604   4.589   4.850   5.538 -1.9793 -1.7736  0.5311
 4371TIP3    H234605   4.498   4.878   5.655 -0.8488  2.7229  0.4931
 4372TIP3   OH234606   3.621   1.898  11.197  0.3581  0.4727  0.8658
 4372TIP3    H134607   3.544   1.857  11.159 -1.6132  2.8299  2.0092
 4372TIP3    H234608   3.636   1.850  11.279  1.0789 -0.9304 -0.0490
 4373TIP3   OH234609   0.824   2.167   4.526  0.0893 -0.6371  0.6311
 4373TIP3    H134610   0.786   2.252   4.504 -0.3939 -0.9002  0.4271
 4373TIP3    H234611   0.844   2.173   4.619  1.6744  0.3112  0.2607
 4374TIP3   OH234612   5.716   2.608  14.000 -0.2415 -0.6583 -0.3271
 4374TIP3    H134613   5.760   2.683  14.040 -0.9004 -0.7780  0.6628
 4374TIP3    H234614   5.787   2.551  13.972  0.2597 -0.4833  0.5382
 4375TIP3   OH234615   6.284   1.982  13.151  0.3858  0.4496  0.0329
 4375TIP3    H134616   6.241   2.062  13.179  0.9504  0.7743 -0.0011
 4375TIP3    H234617   6.378   2.003  13.154  0.8800 -1.4135  3.8881
 4376TIP3   OH234618   3.511   2.555  15.202 -0.2673  0.5810  0.4501
 4376TIP3    H134619   3.491   2.462  15.192 -0.2386  0.7892 -1.9638
 4376TIP3    H234620   3.426   2.597  15.213 -0.5258  0.5341 -1.1771
 4377TIP3   OH234621   5.261   1.663  12.473  0.2969  0.2101 -0.5511
 4377TIP3    H134622   5.333   1.726  12.477  0.9595 -0.5894  0.6176
 4377TIP3    H234623   5.182   1.716  12.488  0.5909  1.1113 -1.9409
 4378TIP3   OH234624   3.257   0.158   0.331 -0.4484  0.3274  0.3970
 4378TIP3    H134625   3.275   0.192   0.243 -0.8242 -1.3019 -0.3477
 4378TIP3    H234626   3.338   0.176   0.380  0.8003 -1.0264 -1.0413
 4379TIP3   OH234627   3.703   6.292  16.372 -0.3805  0.1306 -0.0003
 4379TIP3    H134628   3.797   6.305  16.357 -0.1661 -1.0433  0.2628
 4379TIP3    H234629   3.682   6.355  16.440 -0.1242  1.4590 -1.0971
 4380TIP3   OH234630   4.702   0.864  15.812 -0.1162 -0.4380  0.3823
 4380TIP3    H134631   4.706   0.879  15.718  0.4203  0.3753  0.5251
 4380TIP3    H234632   4.610   0.876  15.835  0.1210  1.9873  0.3473
 4381TIP3   OH234633   4.224   2.802   1.218 -0.5157 -0.1078  0.0621
 4381TIP3    H134634   4.287   2.861   1.259  1.2481 -0.8006 -1.5297
 4381TIP3    H234635   4.227   2.824   1.125 -2.0304 -0.7202 -0.1654
 4382TIP3   OH234636   2.370   2.626  15.705 -0.5702  0.0489  0.0254
 4382TIP3    H134637   2.461   2.636  15.677 -0.9714  3.8564 -0.5009
 4382TIP3    H234638   2.368   2.659  15.795 -1.6331  1.6126 -0.5276
 4383TIP3   OH234639   6.541   1.670   3.604 -0.4909  0.2923 -0.2199
 4383TIP3    H134640   6.535   1.576   3.590 -1.0125  0.5628 -2.2000
 4383TIP3    H234641   6.451   1.697   3.621 -0.5238  0.5780 -0.8296
 4384TIP3   OH234642   1.720   3.715   3.692  0.2183  0.1431 -0.0423
 4384TIP3    H134643   1.713   3.679   3.781 -0.0358  1.5841  0.5511
 4384TIP3    H234644   1.636   3.760   3.678  0.2146 -0.1681 -1.0578
 4385TIP3   OH234645   5.424   0.257  12.786  0.9214 -0.2786  0.0938
 4385TIP3    H134646   5.445   0.290  12.873 -0.3083  1.6674 -0.2824
 4385TIP3    H234647   5.374   0.176  12.802  0.7287  0.0446  1.1901
 4386TIP3   OH234648   1.168   1.359   4.858  0.0167 -0.0897 -0.5400
 4386TIP3    H134649   1.250   1.322   4.890  0.6453  0.8949 -0.9597
 4386TIP3    H234650   1.153   1.437   4.912 -1.5225 -1.1263  0.6373
 4387TIP3   OH234651   4.733   6.598   1.250 -0.2763 -0.0812 -0.6605
 4387TIP3    H134652   4.723   6.637   1.337 -0.1144 -0.4400 -0.4780
 4387TIP3    H234653   4.796   6.527   1.263  2.1161  1.7329 -1.6491
 4388TIP3   OH234654   2.849   4.560   3.677 -0.7071 -0.0280  0.1237
 4388TIP3    H134655   2.865   4.652   3.657 -0.4808 -0.5942 -2.6269
 4388TIP3    H234656   2.917   4.537   3.741 -0.9149  1.7274  1.0386
 4389TIP3   OH234657   5.272   2.149   5.493  0.0634 -0.1856 -0.3809
 4389TIP3    H134658   5.275   2.191   5.580 -0.2548  0.2574 -0.5782
 4389TIP3    H234659   5.338   2.196   5.442 -0.3563  0.1438 -0.6288
 4390TIP3   OH234660   3.282   5.688   1.683  0.0569  0.6380 -0.0119
 4390TIP3    H134661   3.342   5.687   1.608 -0.1238  0.5382 -0.1567
 4390TIP3    H234662   3.197   5.711   1.645 -0.0270  0.6324  0.1710
 4391TIP3   OH234663   6.400   5.229  14.594  0.1915 -0.5068 -0.1697
 4391TIP3    H134664   6.335   5.295  14.616  1.1826  0.5400 -0.2922
 4391TIP3    H234665   6.352   5.147  14.593 -1.2535  0.3083 -0.8385
 4392TIP3   OH234666   6.139   3.077   1.383  0.2177 -0.2004 -0.1729
 4392TIP3    H134667   6.175   2.988   1.378 -0.1753 -0.3087 -1.2070
 4392TIP3    H234668   6.085   3.076   1.462 -1.1245 -1.4057 -1.0444
 4393TIP3   OH234669   5.953   3.532  14.099  0.7526  0.1967 -0.4652
 4393TIP3    H134670   5.941   3.525  14.004 -0.7434  1.4504 -0.4115
 4393TIP3    H234671   5.873   3.496  14.136  0.4418  1.5216  0.2334
 4394TIP3   OH234672   3.140   1.470  11.171 -0.7859 -0.0955  0.4251
 4394TIP3    H134673   3.188   1.507  11.097  1.5951 -2.5082  0.6379
 4394TIP3    H234674   3.048   1.481  11.148 -0.1895  2.7049 -1.0358
 4395TIP3   OH234675   3.233   3.620   0.573 -0.4465 -0.0573 -0.2421
 4395TIP3    H134676   3.235   3.707   0.613 -1.6937 -0.5716  1.0766
 4395TIP3    H234677   3.325   3.595   0.565 -0.0825  1.2060 -0.2405
 4396TIP3   OH234678   3.601   4.428   5.463  0.5489 -0.2330 -0.4339
 4396TIP3    H134679   3.553   4.503   5.497  0.3889 -0.3891 -0.3139
 4396TIP3    H234680   3.693   4.450   5.477  0.5021 -0.0560 -0.4052
 4397TIP3   OH234681   4.775   1.720  17.585 -0.1949  0.2388 -0.3008
 4397TIP3    H134682   4.799   1.660  17.656  1.3894  1.3769  0.1962
 4397TIP3    H234683   4.821   1.685  17.509  0.8531  0.8450  0.0217
 4398TIP3   OH234684   3.853   5.067   0.398 -0.3427 -0.3310  0.4888
 4398TIP3    H134685   3.943   5.082   0.371 -0.6816 -0.1383 -0.5853
 4398TIP3    H234686   3.832   4.979   0.364 -0.4347 -0.5449  1.0856
 4399TIP3   OH234687   6.676   1.808  15.221 -1.0605 -0.3580  0.1574
 4399TIP3    H134688   6.763   1.802  15.259 -0.6108  1.1483 -0.5266
 4399TIP3    H234689   6.654   1.719  15.195  1.5113 -0.4229 -2.2318
 4400TIP3   OH234690   1.372   0.606   3.981  0.2569  0.0660  0.2166
 4400TIP3    H134691   1.426   0.529   3.996 -0.2394 -0.1485  0.9193
 4400TIP3    H234692   1.370   0.651   4.066 -0.4483  0.2135  0.1255
 4401TIP3   OH234693   2.494   0.225   0.536  0.3644  0.8309 -0.5430
 4401TIP3    H134694   2.415   0.262   0.498 -0.1279  1.3955  0.9651
 4401TIP3    H234695   2.564   0.252   0.477 -0.6090 -0.1669 -2.2210
 4402TIP3   OH234696   2.366   4.076   4.951  0.6467  0.8774 -0.7374
 4402TIP3    H134697   2.377   3.993   4.997 -0.7166  1.5059  0.8400
 4402TIP3    H234698   2.331   4.136   5.017  1.4099  2.6721 -1.8723
 4403TIP3   OH234699   1.110   0.051   0.753  0.4148  0.3887 -0.0215
 4403TIP3    H134700   1.169   0.010   0.816  0.2568  0.5827  0.2510
 4403TIP3    H234701   1.034  -0.007   0.750  1.1121 -0.5123 -1.2625
 4404TIP3   OH234702   0.240   1.606  13.022 -0.2392 -0.3753 -0.1838
 4404TIP3    H134703   0.211   1.602  13.113 -0.2288  0.6494 -0.1213
 4404TIP3    H234704   0.298   1.682  13.018 -2.8218  1.7260 -1.7058
 4405TIP3   OH234705   3.885   5.244   2.464 -0.0577 -0.1346 -0.9445
 4405TIP3    H134706   3.952   5.288   2.517 -1.3344  0.7284  0.0029
 4405TIP3    H234707   3.839   5.315   2.419 -3.9570  0.0481  2.6874
 4406TIP3   OH234708   4.645   6.347   6.397 -0.0938  0.2641 -0.1019
 4406TIP3    H134709   4.719   6.302   6.356 -1.3584 -2.2999  0.2585
 4406TIP3    H234710   4.683   6.388   6.475  1.0314 -0.5995 -0.1675
 4407TIP3   OH234711   5.634   4.281  15.820 -0.5775  0.3386  0.1227
 4407TIP3    H134712   5.661   4.322  15.738  0.8567  0.8109  0.7940
 4407TIP3    H234713   5.596   4.352  15.871  0.2352  0.4686  0.5707
 4408TIP3   OH234714   0.787   5.194  11.509 -0.3895  0.4883  0.0220
 4408TIP3    H134715   0.808   5.214  11.600 -0.7705  4.0065 -0.4987
 4408TIP3    H234716   0.712   5.134  11.515  1.1775 -1.4342  1.9234
 4409TIP3   OH234717   5.680   4.215   3.395  0.0993 -0.4159 -0.1827
 4409TIP3    H134718   5.746   4.203   3.463 -1.3625 -1.3218  1.1488
 4409TIP3    H234719   5.727   4.204   3.313  1.5039 -1.4664  0.7262
 4410TIP3   OH234720   0.077   2.030   4.552  0.1964  0.2466 -0.3035
 4410TIP3    H134721   0.018   2.084   4.501  0.2845  1.2614  0.6248
 4410TIP3    H234722   0.117   2.091   4.615  0.8168 -0.7656  0.3125
 4411TIP3   OH234723   1.506   2.839   3.084 -0.5595  0.1421  0.0005
 4411TIP3    H134724   1.456   2.777   3.137 -2.7677  1.9006  0.0986
 4411TIP3    H234725   1.567   2.784   3.035 -1.6225 -1.9763  0.9176
 4412TIP3   OH234726   4.294   0.988  12.869 -0.3107 -0.1196 -0.2576
 4412TIP3    H134727   4.221   1.044  12.845  0.5899  0.1149 -2.8056
 4412TIP3    H234728   4.296   0.990  12.964  0.4555  5.3241 -0.0679
 4413TIP3   OH234729   4.070   1.647  17.026 -0.2394  0.4969 -0.2971
 4413TIP3    H134730   4.114   1.599  17.096 -1.1448  0.7276  0.4526
 4413TIP3    H234731   4.113   1.733  17.025 -1.4361  1.1618  1.2676
 4414TIP3   OH234732   1.239   1.916   2.230  0.4134 -0.1997  0.0145
 4414TIP3    H134733   1.270   1.855   2.163  0.9814  0.5424 -0.4211
 4414TIP3    H234734   1.279   1.885   2.311  3.7998  1.6496 -0.7554
 4415TIP3   OH234735   0.071   6.613   4.877  0.3525  0.1799  0.1774
 4415TIP3    H134736  -0.011   6.662   4.868  0.3814  0.0405 -0.9522
 4415TIP3    H234737   0.045   6.521   4.867  0.4479  0.0225  1.2721
 4416TIP3   OH234738   6.704   2.243  14.364 -0.1311 -0.4498 -0.5341
 4416TIP3    H134739   6.750   2.314  14.319  0.1672  1.6558  2.7611
 4416TIP3    H234740   6.615   2.276  14.377 -0.0231 -0.6901  0.9468
 4417TIP3   OH234741   2.476   5.739  12.476  0.1006  0.3533 -0.2420
 4417TIP3    H134742   2.553   5.698  12.437 -0.0305  1.0693 -1.2869
 4417TIP3    H234743   2.511   5.790  12.549  0.2732 -1.4909  1.0304
 4418TIP3   OH234744   4.255   2.906   0.958  0.0220  0.0294  0.0974
 4418TIP3    H134745   4.282   2.996   0.977 -3.1914  1.2243 -0.4593
 4418TIP3    H234746   4.313   2.879   0.887  0.7962  1.7801 -0.0050
 4419TIP3   OH234747   1.257   4.199   4.256  0.3613 -0.2240  0.5303
 4419TIP3    H134748   1.352   4.216   4.255  0.2925  0.1457  0.0152
 4419TIP3    H234749   1.247   4.117   4.209  0.3901 -0.0541  0.2230
 4420TIP3   OH234750   5.398   4.145  17.493 -0.0754 -0.7057 -0.2354
 4420TIP3    H134751   5.396   4.223  17.438  0.3192 -1.0858 -0.8038
 4420TIP3    H234752   5.326   4.157  17.555 -0.3183 -0.1168 -0.6250
 4421TIP3   OH234753   3.812   6.068   3.031 -0.1724  0.6294 -0.2987
 4421TIP3    H134754   3.799   5.973   3.038  0.4616  0.5785  0.3544
 4421TIP3    H234755   3.737   6.105   3.077  0.4251  0.3984  0.9144
 4422TIP3   OH234756   1.942   4.010  16.008 -0.0865 -0.6274 -0.6031
 4422TIP3    H134757   1.881   4.059  15.953 -1.1331  1.0699  1.8962
 4422TIP3    H234758   2.019   4.066  16.016 -0.1338 -0.6429  0.0065
 4423TIP3   OH234759   1.017   2.546   5.019 -0.2082  0.2144 -0.2437
 4423TIP3    H134760   1.081   2.518   5.084  1.1385  1.5626 -0.9090
 4423TIP3    H234761   0.936   2.558   5.068  0.6220  0.6445  1.0832
 4424TIP3   OH234762   6.635   6.337   0.294 -0.0456 -0.3839  0.6035
 4424TIP3    H134763   6.619   6.269   0.359  0.2836  0.0196  1.1203
 4424TIP3    H234764   6.618   6.295   0.210 -0.9359 -0.7768  0.9728
 4425TIP3   OH234765   1.805   1.017   5.632 -0.2905  0.4890 -0.5512
 4425TIP3    H134766   1.750   1.024   5.711  0.2313  0.4441 -0.1839
 4425TIP3    H234767   1.826   1.108   5.610  1.0900  0.4465  0.4453
 4426TIP3   OH234768   0.969   2.430  11.351 -0.9876 -0.1704 -0.0292
 4426TIP3    H134769   1.003   2.519  11.352  0.1716 -0.5901 -0.2951
 4426TIP3    H234770   0.983   2.399  11.262 -1.1484 -0.6940  0.1206
 4427TIP3   OH234771   2.925   2.697  11.843  0.0787 -0.4959 -0.2607
 4427TIP3    H134772   2.900   2.782  11.807  0.2873 -0.9698 -1.5706
 4427TIP3    H234773   2.963   2.649  11.769  0.3439 -1.5825  0.5467
 4428TIP3   OH234774   0.149   2.020   5.173 -0.5365  0.2348  0.0902
 4428TIP3    H134775   0.080   2.054   5.116 -0.5558  0.5368  0.2881
 4428TIP3    H234776   0.154   2.084   5.244  0.7335  0.8327 -0.5127
 4429TIP3   OH234777   1.957   1.608   3.151  0.5626 -0.2419 -0.1410
 4429TIP3    H134778   1.910   1.689   3.174  1.6066  0.9755 -1.9922
 4429TIP3    H234779   1.891   1.539   3.160 -0.7789  1.0088  0.1089
 4430TIP3   OH234780   1.067   0.484  12.701 -0.5068 -0.2178 -0.4203
 4430TIP3    H134781   1.003   0.470  12.631  0.1012 -0.1623 -0.9984
 4430TIP3    H234782   1.133   0.542  12.662 -1.7966  2.5224  1.1989
 4431TIP3   OH234783   3.303   1.514  11.644  0.4202 -0.5355 -0.0052
 4431TIP3    H134784   3.288   1.446  11.578 -0.6183 -0.0384 -0.3096
 4431TIP3    H234785   3.370   1.477  11.702 -0.2173 -1.8747 -0.0839
 4432TIP3   OH234786   1.956   5.863  13.780  0.0427  0.1705  0.0844
 4432TIP3    H134787   1.906   5.930  13.734 -1.7183 -0.9909  0.2018
 4432TIP3    H234788   1.895   5.789  13.789  1.9264 -1.5104 -0.1419
 4433TIP3   OH234789   4.895   2.840  12.359 -0.2393  0.4319  0.2063
 4433TIP3    H134790   4.899   2.801  12.446 -0.7368 -1.0552 -0.4000
 4433TIP3    H234791   4.801   2.848  12.341 -0.1878 -0.7462 -0.7791
 4434TIP3   OH234792   5.895   0.452  12.180 -0.1709 -0.0270 -0.2443
 4434TIP3    H134793   5.881   0.469  12.087  1.8136  1.0600 -0.4175
 4434TIP3    H234794   5.807   0.440  12.216 -1.0193  0.1202 -2.1427
 4435TIP3   OH234795   3.487   6.630   5.169 -0.6214 -0.1427  0.1938
 4435TIP3    H134796   3.496   6.637   5.264 -1.8655  0.7465  0.2746
 4435TIP3    H234797   3.497   6.719   5.137 -1.9356 -0.1581 -0.3195
 4436TIP3   OH234798   3.160   4.584  12.852  0.8171 -0.5608 -0.5378
 4436TIP3    H134799   3.224   4.543  12.911  0.8790  1.9920  1.3379
 4436TIP3    H234800   3.077   4.577  12.899  0.8367  1.3755 -0.1478
 4437TIP3   OH234801   3.867   0.655  13.743 -0.1657 -0.3233  0.0424
 4437TIP3    H134802   3.883   0.587  13.678 -1.2077  0.1849 -0.7791
 4437TIP3    H234803   3.929   0.724  13.721 -1.2073  0.2929 -1.1186
 4438TIP3   OH234804   6.349   4.510   3.329 -0.0637  0.1339 -0.3223
 4438TIP3    H134805   6.290   4.466   3.269  0.6142  0.1790 -1.0418
 4438TIP3    H234806   6.300   4.586   3.361  0.0168  0.8728 -1.8618
 4439TIP3   OH234807   2.128   1.991  16.239 -0.1722 -0.2370  0.7091
 4439TIP3    H134808   2.165   1.941  16.312  0.6727 -0.0311  0.4379
 4439TIP3    H234809   2.160   2.080  16.252 -0.7862  0.0072  0.5978
 4440TIP3   OH234810   5.576   1.863  11.122 -0.1776  0.6989 -0.2857
 4440TIP3    H134811   5.662   1.820  11.116 -0.7252 -0.4108 -0.5242
 4440TIP3    H234812   5.579   1.911  11.204  0.3731 -0.0267  0.1308
 4441TIP3   OH234813   3.020   1.384  13.725  0.2007  0.2078  0.0097
 4441TIP3    H134814   3.061   1.400  13.810  0.0523 -0.1595  0.1552
 4441TIP3    H234815   3.013   1.289  13.719  0.5129  0.2182 -0.5633
 4442TIP3   OH234816   3.393   3.095  11.022 -0.6521  0.1122 -0.0432
 4442TIP3    H134817   3.449   3.025  11.055  1.1390  1.5050  0.0421
 4442TIP3    H234818   3.388   3.080  10.928 -1.3449 -0.8132  0.1218
 4443TIP3   OH234819   1.490   5.604   4.941  0.0960 -0.6160 -0.2209
 4443TIP3    H134820   1.443   5.537   4.891  1.9925 -1.6620 -0.6635
 4443TIP3    H234821   1.543   5.651   4.876  1.2780 -0.8604  0.5414
 4444TIP3   OH234822   0.359   3.043   5.695 -0.0764 -0.4979 -0.1568
 4444TIP3    H134823   0.394   3.104   5.760  1.3547 -2.7080  1.3283
 4444TIP3    H234824   0.380   3.082   5.611  2.5951  0.1697  0.7220
 4445TIP3   OH234825   0.131   3.795   1.641 -0.2013 -0.0512  0.3235
 4445TIP3    H134826   0.196   3.782   1.710  0.3013 -0.4818 -0.2176
 4445TIP3    H234827   0.130   3.890   1.628 -1.4273  0.1988  1.9592
 4446TIP3   OH234828   3.149   4.889   1.966 -0.2462  0.0861 -0.3337
 4446TIP3    H134829   3.230   4.845   1.993  1.2172  3.3503  1.2933
 4446TIP3    H234830   3.176   4.944   1.893 -1.8756 -1.1823 -1.9670
 4447TIP3   OH234831   3.643   5.660   2.015 -0.3696 -0.4384  0.2025
 4447TIP3    H134832   3.592   5.596   1.966  0.5693 -0.2768 -1.0255
 4447TIP3    H234833   3.730   5.622   2.022 -0.4700 -0.4596  1.7842
 4448TIP3   OH234834   6.014   5.397  12.871  0.2337 -0.2073  0.6819
 4448TIP3    H134835   6.100   5.429  12.844 -0.5492  1.0468 -0.4452
 4448TIP3    H234836   5.962   5.476  12.885 -1.7876 -0.8493 -2.2628
 4449TIP3   OH234837   4.386   2.979   1.342  0.1378  0.0211 -0.1624
 4449TIP3    H134838   4.408   3.060   1.296 -1.4244 -0.3043 -1.5928
 4449TIP3    H234839   4.379   3.004   1.434  1.8837  1.0071 -0.2598
 4450TIP3   OH234840   1.370   1.481  16.988 -0.0100 -0.6616 -0.0723
 4450TIP3    H134841   1.411   1.487  17.074  0.2315  0.9743 -0.2878
 4450TIP3    H234842   1.333   1.568  16.972  1.6119 -0.3139 -2.4498
 4451TIP3   OH234843   3.924   4.009  11.688  0.2751  0.1550  0.3855
 4451TIP3    H134844   3.937   3.926  11.732 -0.8629 -0.4220 -0.3273
 4451TIP3    H234845   3.853   3.993  11.626 -0.8935  2.0038  1.1710
 4452TIP3   OH234846   3.929   5.129   5.542  0.2833 -0.2689  0.2672
 4452TIP3    H134847   3.934   5.179   5.460 -2.8593  0.7702  0.5854
 4452TIP3    H234848   3.958   5.190   5.610 -0.2649 -0.0357  0.2898
 4453TIP3   OH234849   4.790   1.370   1.455 -0.1248  0.0355 -0.1206
 4453TIP3    H134850   4.824   1.424   1.526  0.1475  0.7780 -0.7977
 4453TIP3    H234851   4.699   1.353   1.479 -0.5447  1.7119 -0.4070
 4454TIP3   OH234852   3.749   2.887   4.954  0.2260  0.7924  0.1836
 4454TIP3    H134853   3.810   2.932   4.895 -0.4649 -1.1914 -2.2131
 4454TIP3    H234854   3.777   2.796   4.953 -0.1020  0.6015  2.6654
 4455TIP3   OH234855   4.102   1.385  15.016  0.0578 -0.2350 -0.7599
 4455TIP3    H134856   4.125   1.475  14.995  0.4136 -0.4995 -1.5778
 4455TIP3    H234857   4.185   1.338  15.013  0.2309 -0.2134  1.9099
 4456TIP3   OH234858   4.912   1.828  14.220  0.0708  0.0908 -0.1837
 4456TIP3    H134859   4.826   1.787  14.221  1.3403 -2.8694  1.3361
 4456TIP3    H234860   4.948   1.807  14.134  0.6060 -1.9355  0.4851
 4457TIP3   OH234861   2.563   6.386   5.665 -0.2769  0.3445 -0.2749
 4457TIP3    H134862   2.535   6.452   5.601  2.4024  1.3383 -0.5391
 4457TIP3    H234863   2.628   6.431   5.719 -1.6340 -0.8079  2.4950
 4458TIP3   OH234864   6.385   5.398  15.477  0.1159 -0.6699 -0.3765
 4458TIP3    H134865   6.304   5.421  15.523 -0.1515  0.4435 -1.3420
 4458TIP3    H234866   6.427   5.334  15.533 -2.5553 -3.1170 -0.9485
 4459TIP3   OH234867   1.657   5.096   4.576 -0.6632 -0.3525 -0.1388
 4459TIP3    H134868   1.606   5.031   4.528  0.2497 -1.5936  0.5116
 4459TIP3    H234869   1.687   5.050   4.654  1.2295  0.3802 -0.3700
 4460TIP3   OH234870   0.015   3.497  15.215 -0.1163 -0.5383 -0.6540
 4460TIP3    H134871  -0.035   3.577  15.231  0.2255 -0.2791 -0.8680
 4460TIP3    H234872  -0.028   3.431  15.269 -0.9711 -0.4301 -1.1911
 4461TIP3   OH234873   5.616   1.262   6.496  0.5050  0.0609  0.3020
 4461TIP3    H134874   5.710   1.251   6.487  0.3295 -0.6887 -1.0197
 4461TIP3    H234875   5.603   1.357   6.503  1.4078  0.1091  1.5264
 4462TIP3   OH234876   2.080   0.361   3.071 -0.1482 -0.4271  0.1659
 4462TIP3    H134877   2.001   0.348   3.124  0.0344  0.5804  0.7141
 4462TIP3    H234878   2.149   0.380   3.135 -0.0818  1.5474 -0.4418
 4463TIP3   OH234879   5.712   3.905  17.163  0.0187  0.3425 -0.4170
 4463TIP3    H134880   5.663   3.856  17.229 -0.5183  0.0580 -1.0217
 4463TIP3    H234881   5.693   3.861  17.081 -1.2349  2.1284 -1.1366
 4464TIP3   OH234882   3.612   4.860  12.594 -0.0239 -0.2596 -0.7126
 4464TIP3    H134883   3.679   4.869  12.526 -0.2589 -0.8725 -1.0384
 4464TIP3    H234884   3.558   4.938  12.585  2.1078  1.5777  1.2308
 4465TIP3   OH234885   0.984   1.941   2.319 -0.3930 -0.4415  0.1311
 4465TIP3    H134886   0.938   1.860   2.337 -0.9007 -0.8144 -2.4168
 4465TIP3    H234887   1.067   1.914   2.280 -0.3904  0.2518 -0.3726
 4466TIP3   OH234888   4.689   3.101   5.786  0.1298 -0.1369  0.3647
 4466TIP3    H134889   4.698   3.178   5.841 -0.8336 -0.0933  0.4813
 4466TIP3    H234890   4.595   3.081   5.788  0.2990 -1.0230 -0.0504
 4467TIP3   OH234891   1.200   4.668  17.290  0.1679  0.0887 -0.2170
 4467TIP3    H134892   1.282   4.665  17.340 -0.4048 -2.3267  0.7323
 4467TIP3    H234893   1.131   4.665  17.357 -0.6446 -1.1433 -1.0622
 4468TIP3   OH234894   5.606   2.600  16.974  0.5907  0.3008  0.4590
 4468TIP3    H134895   5.531   2.629  17.028  1.0459  1.2617  0.6057
 4468TIP3    H234896   5.659   2.548  17.034  0.7256  0.7569  0.7414
 4469TIP3   OH234897   1.679   3.450   3.170 -0.2440 -0.1675 -0.0347
 4469TIP3    H134898   1.713   3.530   3.130  0.0748 -0.1475  0.2772
 4469TIP3    H234899   1.751   3.388   3.167  0.3161  0.3194  1.9094
 4470TIP3   OH234900   3.012   4.558  11.629 -0.2787  0.5743 -0.0632
 4470TIP3    H134901   3.059   4.633  11.592  0.8178  0.5344  1.1580
 4470TIP3    H234902   3.059   4.482  11.596 -1.1661  0.4086 -1.0026
 4471TIP3   OH234903   2.949   3.074  15.621  0.1558 -0.4791 -0.4731
 4471TIP3    H134904   2.885   3.013  15.583 -1.1949  0.6182 -0.0497
 4471TIP3    H234905   2.995   3.110  15.545  0.7077 -1.7097 -0.7503
 4472TIP3   OH234906   2.745   2.649   2.083 -0.5262 -0.6521  0.0616
 4472TIP3    H134907   2.727   2.588   2.155  3.0371 -3.9175 -1.4588
 4472TIP3    H234908   2.713   2.604   2.005 -2.4545  1.8966 -0.7637
 4473TIP3   OH234909   4.409   2.919   4.635  0.7257  0.9454 -0.1841
 4473TIP3    H134910   4.377   2.869   4.560 -1.5507 -0.0465  1.3417
 4473TIP3    H234911   4.330   2.947   4.681  1.9733 -0.0372  2.8305
 4474TIP3   OH234912   3.953   5.569  11.931 -0.5133  0.4214  0.2258
 4474TIP3    H134913   3.911   5.508  11.992 -1.6477  0.4467 -0.4909
 4474TIP3    H234914   3.916   5.654  11.954  1.0814  0.8752  1.2385
 4475TIP3   OH234915   5.611   3.238  12.551  0.1603  0.1100 -0.1141
 4475TIP3    H134916   5.568   3.156  12.528  0.6155 -0.3644  0.6624
 4475TIP3    H234917   5.543   3.290  12.594 -0.1671  0.2122 -0.7363
 4476TIP3   OH234918   1.577   6.441   3.489  0.3203 -0.1580 -0.5245
 4476TIP3    H134919   1.498   6.425   3.438 -0.7685  1.1586  0.6889
 4476TIP3    H234920   1.564   6.526   3.529  2.2675 -0.0088 -0.0945
 4477TIP3   OH234921   4.104   3.083  14.387 -0.2494 -0.1552 -0.3842
 4477TIP3    H134922   4.065   3.003  14.350 -1.0073  0.4816 -0.9928
 4477TIP3    H234923   4.146   3.125  14.312 -1.0664  0.7202 -0.3672
 4478TIP3   OH234924   0.203   3.645   5.918  0.1928  0.4896 -0.0065
 4478TIP3    H134925   0.187   3.573   5.979  0.2156 -0.7074 -1.3537
 4478TIP3    H234926   0.284   3.621   5.873 -0.3801  0.8011 -1.2506
 4479TIP3   OH234927   2.868   1.841  16.291 -0.3550  0.1459  0.2395
 4479TIP3    H134928   2.846   1.784  16.364 -0.8933  2.6071  2.1331
 4479TIP3    H234929   2.926   1.908  16.329 -2.3011  2.7276 -0.9922
 4480TIP3   OH234930   0.063   5.973  11.680  0.7689  0.3946 -0.0056
 4480TIP3    H134931  -0.017   6.009  11.719  1.0264  1.2510 -0.2358
 4480TIP3    H234932   0.133   6.029  11.714  1.4716 -1.2710  1.3996
 4481TIP3   OH234933   2.540   1.869   0.198 -0.0418 -0.0637  0.0827
 4481TIP3    H134934   2.465   1.813   0.180 -0.2565 -0.0308  0.8716
 4481TIP3    H234935   2.612   1.808   0.213  0.8189 -0.1329 -3.4085
 4482TIP3   OH234936   1.385   6.509  12.621  0.9854 -0.4640  0.7163
 4482TIP3    H134937   1.323   6.540  12.555  2.2433  0.6755  0.0278
 4482TIP3    H234938   1.439   6.445  12.575  0.6634 -1.0746  1.1750
 4483TIP3   OH234939   2.573   1.281  11.443  0.3417 -0.1253 -0.1011
 4483TIP3    H134940   2.497   1.224  11.452  1.5725 -1.6565  1.2248
 4483TIP3    H234941   2.642   1.223  11.409  1.5334  0.6518  0.9247
 4484TIP3   OH234942   4.008   3.209   2.438 -0.2805 -0.6225 -0.3465
 4484TIP3    H134943   3.951   3.285   2.447  0.2233 -0.3174  0.4289
 4484TIP3    H234944   3.963   3.151   2.376 -1.5443 -0.5140  0.4411
 4485TIP3   OH234945   0.030   6.071  10.840  0.2542  0.1899 -0.0268
 4485TIP3    H134946  -0.065   6.065  10.826 -0.2133  1.3491  2.1946
 4485TIP3    H234947   0.054   5.987  10.877  0.1108 -0.1027 -0.5813
 4486TIP3   OH234948   5.826   1.049  11.000 -0.0945  0.1038 -0.0055
 4486TIP3    H134949   5.739   1.077  11.031  0.3360  3.4005 -1.2876
 4486TIP3    H234950   5.822   0.954  10.998 -2.7888  0.0440  2.4219
 4487TIP3   OH234951   5.183   3.425   1.590  0.1690 -0.5562  0.3677
 4487TIP3    H134952   5.268   3.469   1.590 -0.1104  0.0014 -0.5740
 4487TIP3    H234953   5.156   3.424   1.498 -0.8245 -0.7536  0.6489
 4488TIP3   OH234954   4.843   5.064  15.633  0.4992 -0.1677  0.5984
 4488TIP3    H134955   4.786   5.133  15.666  0.4655 -0.1660  0.5368
 4488TIP3    H234956   4.916   5.110  15.591  0.4059 -0.1681  0.4348
 4489TIP3   OH234957   5.088   3.578   4.453 -0.0511  0.0696 -0.0886
 4489TIP3    H134958   5.136   3.598   4.534 -0.6985 -0.3332  0.3993
 4489TIP3    H234959   5.024   3.650   4.445  1.4814  1.3638 -1.4593
 4490TIP3   OH234960   2.449   6.012   5.281  0.2094 -0.1826 -0.5258
 4490TIP3    H134961   2.475   5.932   5.235  0.7419 -0.1446 -0.3016
 4490TIP3    H234962   2.515   6.023   5.348 -0.5110 -0.1865  0.1994
 4491TIP3   OH234963   3.217   4.845  16.135 -0.2893  0.4641  1.2003
 4491TIP3    H134964   3.230   4.891  16.218 -0.0480  0.6152  1.0787
 4491TIP3    H234965   3.156   4.901  16.086  0.4419  0.9479  0.8246
 4492TIP3   OH234966   1.118   1.737   2.528 -0.0482 -0.1210  0.3615
 4492TIP3    H134967   1.166   1.656   2.510  3.3333  1.7382  0.2422
 4492TIP3    H234968   1.051   1.741   2.460  0.1735 -2.4139 -0.0819
 4493TIP3   OH234969   1.816   6.252   4.549 -0.0631  0.2693 -0.5171
 4493TIP3    H134970   1.752   6.181   4.547 -0.8245  0.8270  1.4257
 4493TIP3    H234971   1.793   6.308   4.476 -0.3568 -0.7205 -1.1970
 4494TIP3   OH234972   5.061   2.346  11.973  0.5720 -0.0403 -0.3154
 4494TIP3    H134973   5.146   2.352  11.931  0.8688  0.8333  0.3719
 4494TIP3    H234974   4.999   2.375  11.906  0.6647 -1.8156 -1.2089
 4495TIP3   OH234975   1.417   5.698   3.545 -0.4207  0.8038 -0.5112
 4495TIP3    H134976   1.347   5.732   3.489 -0.5625  1.7015  0.1928
 4495TIP3    H234977   1.478   5.771   3.554 -1.1264  1.1999  1.6783
 4496TIP3   OH234978   6.428   1.254  14.233 -0.1716 -0.6946 -0.1244
 4496TIP3    H134979   6.489   1.200  14.183 -2.7121 -3.4363 -0.5369
 4496TIP3    H234980   6.436   1.224  14.323 -0.9865 -1.1824 -0.2080
 4497TIP3   OH234981   4.095   2.709   0.308  0.4893  0.0610  0.0193
 4497TIP3    H134982   4.122   2.654   0.382  0.0826  0.9449  0.8332
 4497TIP3    H234983   4.102   2.651   0.232 -1.2179 -1.5656  1.0084
 4498TIP3   OH234984   4.989   0.454   1.221 -0.0732  0.6996 -0.1494
 4498TIP3    H134985   5.002   0.395   1.295 -1.2362  0.9313  0.2641
 4498TIP3    H234986   5.071   0.503   1.214  0.5103 -0.2169  0.1702
 4499TIP3   OH234987   2.835   0.040   3.644  0.0697 -0.0521 -0.2833
 4499TIP3    H134988   2.840   0.031   3.549  3.0572 -0.8719 -0.1588
 4499TIP3    H234989   2.877  -0.039   3.678 -0.1585  0.6148  1.6990
 4500TIP3   OH234990   0.115   0.175  15.171  0.0135 -0.3409  0.1497
 4500TIP3    H134991   0.160   0.147  15.250 -0.5877  0.0554  0.6449
 4500TIP3    H234992   0.082   0.262  15.192  2.2671  1.0441 -1.5054
 4501TIP3   OH234993   1.267   6.519  14.231 -0.4223  0.8048 -0.0194
 4501TIP3    H134994   1.322   6.571  14.290 -0.0030 -0.4077  0.7288
 4501TIP3    H234995   1.186   6.507  14.280 -0.2292  0.1453  0.1554
 4502TIP3   OH234996   3.954   6.108  17.681  0.1477  0.0692  0.4153
 4502TIP3    H134997   3.973   6.040  17.617  0.4552  0.6672 -0.1308
 4502TIP3    H234998   3.872   6.080  17.723 -0.1771 -0.2083 -0.3988
 4503TIP3   OH234999   2.326   2.644   4.764 -0.0293 -0.2079 -0.3888
 4503TIP3    H135000   2.298   2.735   4.756 -1.1374 -0.5970 -1.1571
 4503TIP3    H235001   2.354   2.620   4.675 -0.0875 -0.7259 -0.2705
 4504TIP3   OH235002   1.588   2.047   1.443 -0.3227 -0.8178  0.1409
 4504TIP3    H135003   1.568   2.138   1.420 -0.7424 -0.0011  3.2777
 4504TIP3    H235004   1.669   2.028   1.395  0.7354  1.8265  0.6710
 4505TIP3   OH235005   3.983   4.408   2.657  0.0670 -0.1424 -0.3976
 4505TIP3    H135006   4.046   4.464   2.610 -1.9478 -0.7844 -4.2673
 4505TIP3    H235007   4.024   4.322   2.658 -0.5996 -0.5803 -2.9861
 4506TIP3   OH235008   6.613   0.127   3.403  0.1385 -0.0123 -0.2293
 4506TIP3    H135009   6.669   0.050   3.392 -1.8199 -1.1882 -3.3570
 4506TIP3    H235010   6.524   0.092   3.403 -0.7590  2.1218  0.3717
 4507TIP3   OH235011   5.311   1.189  12.524 -0.1018 -0.0784  0.6933
 4507TIP3    H135012   5.288   1.232  12.606  0.2962 -2.7121  2.2722
 4507TIP3    H235013   5.394   1.146  12.541 -0.1031 -0.8600 -1.0456
 4508TIP3   OH235014   1.307   5.481  13.739 -0.3305 -0.1554  0.1899
 4508TIP3    H135015   1.305   5.552  13.674 -1.1880 -1.3184 -1.1027
 4508TIP3    H235016   1.221   5.440  13.732 -0.3511 -0.4890  1.9023
 4509TIP3   OH235017   3.024   0.036   1.082  0.2192 -0.6933  0.2241
 4509TIP3    H135018   3.085   0.092   1.034 -0.6641  0.1676  0.0850
 4509TIP3    H235019   3.079  -0.008   1.147  1.0244 -0.0664 -0.0127
 4510TIP3   OH235020   3.353   5.697  15.125  0.1638  0.2230 -0.4901
 4510TIP3    H135021   3.332   5.621  15.071  1.4751  0.7871 -1.8414
 4510TIP3    H235022   3.438   5.675  15.165  0.7557  1.1134 -1.2144
 4511TIP3   OH235023   0.197   0.862  11.319  0.0619 -0.5190  0.4206
 4511TIP3    H135024   0.232   0.842  11.405 -0.1983  2.6002  1.3837
 4511TIP3    H235025   0.262   0.921  11.280 -2.0286  2.1244  0.6155
 4512TIP3   OH235026   5.412   6.100  15.878  0.2121 -0.3081  0.7650
 4512TIP3    H135027   5.429   6.010  15.849  0.0825 -0.5888  1.5272
 4512TIP3    H235028   5.445   6.155  15.807  1.9600 -0.9083  1.0624
 4513TIP3   OH235029   5.917   0.719   3.952 -0.3523  0.4293 -0.0927
 4513TIP3    H135030   5.906   0.688   3.862  2.8072 -1.6414  0.0628
 4513TIP3    H235031   5.924   0.814   3.944 -0.9845  0.3608 -1.9009
 4514TIP3   OH235032   0.520   0.743   4.822 -0.2808 -0.2985  0.2595
 4514TIP3    H135033   0.477   0.660   4.841  1.5603 -0.9770  1.8799
 4514TIP3    H235034   0.519   0.791   4.905 -1.8909  1.6412 -0.8068
 4515TIP3   OH235035   1.847   5.089  13.751 -0.0248 -0.7385  0.3542
 4515TIP3    H135036   1.872   5.025  13.817 -1.2800 -0.7351  0.8682
 4515TIP3    H235037   1.771   5.050  13.707 -0.2931  0.0310  0.1112
 4516TIP3   OH235038   0.145   1.598  12.046 -0.3616  0.3377  0.1321
 4516TIP3    H135039   0.138   1.503  12.055 -0.7285  0.2093 -1.2374
 4516TIP3    H235040   0.231   1.619  12.083  0.1945 -0.6667 -0.5328
 4517TIP3   OH235041   4.356   1.994   2.679  0.2618  0.5510 -0.1435
 4517TIP3    H135042   4.444   2.011   2.645  0.5666  1.3201  0.9828
 4517TIP3    H235043   4.304   2.068   2.648 -0.1455 -0.1801 -1.2744
 4518TIP3   OH235044   1.710   2.225   4.683 -0.4229  0.2902 -0.0703
 4518TIP3    H135045   1.734   2.315   4.705 -1.6873  0.7219 -0.3630
 4518TIP3    H235046   1.666   2.192   4.762  0.9707 -0.4594  0.4305
 4519TIP3   OH235047   4.203   5.841  12.055  0.2728  0.5983 -0.2721
 4519TIP3    H135048   4.200   5.845  11.960  0.1014  2.3213 -0.2292
 4519TIP3    H235049   4.259   5.914  12.081 -0.5728  0.8528  0.9727
 4520TIP3   OH235050   3.644   1.485   3.462  0.0909  0.2337  0.1018
 4520TIP3    H135051   3.681   1.398   3.442  1.6187  1.0189 -0.6637
 4520TIP3    H235052   3.583   1.501   3.390 -0.1012 -0.1586  0.1746
 4521TIP3   OH235053   2.652   4.618  16.577 -0.1955  0.0130 -0.7649
 4521TIP3    H135054   2.571   4.568  16.590 -2.0538  2.3075 -2.3891
 4521TIP3    H235055   2.688   4.630  16.665 -2.8388  0.6871  0.3277
 4522TIP3   OH235056   2.012   1.853  11.722  0.4529  0.2885  0.1610
 4522TIP3    H135057   1.983   1.801  11.797  0.2555  1.7745  1.1590
 4522TIP3    H235058   2.064   1.924  11.761  0.5324  0.9606 -1.1252
 4523TIP3   OH235059   1.908   4.717  12.621 -0.1641  0.0698  0.1090
 4523TIP3    H135060   1.921   4.763  12.704 -2.4618 -0.9800  1.1218
 4523TIP3    H235061   1.957   4.635  12.631 -1.2280 -0.4880  0.8413
 4524TIP3   OH235062   0.020   0.575   1.799 -0.0038  0.4042 -0.3991
 4524TIP3    H135063  -0.068   0.605   1.776 -0.1078 -0.7702 -1.6542
 4524TIP3    H235064   0.015   0.479   1.792  1.0505  0.2377  0.7463
 4525TIP3   OH235065   4.685   0.448  13.496 -0.0099 -0.6245 -0.2603
 4525TIP3    H135066   4.741   0.525  13.482  1.2240 -1.6805 -1.4197
 4525TIP3    H235067   4.599   0.485  13.518  0.6244  1.0741 -0.4600
 4526TIP3   OH235068   0.482   2.995   2.296 -0.2129  0.5519  0.2479
 4526TIP3    H135069   0.456   2.906   2.319 -0.9726  0.5906 -0.4128
 4526TIP3    H235070   0.547   2.984   2.226 -1.7740  0.5301 -1.2593
 4527TIP3   OH235071   5.647   5.318   1.992  0.0829  0.1863 -0.4466
 4527TIP3    H135072   5.731   5.361   1.972  1.1086 -0.8745  1.3286
 4527TIP3    H235073   5.587   5.351   1.925  1.5917  1.9414 -1.0307
 4528TIP3   OH235074   2.083   4.622  13.600 -0.0832  0.7645 -0.3581
 4528TIP3    H135075   2.168   4.595  13.565 -0.0428 -0.2366  0.4723
 4528TIP3    H235076   2.103   4.697  13.657  0.5949 -0.7661  1.5358
 4529TIP3   OH235077   1.947   3.976   3.229  0.0256 -0.1464  0.1201
 4529TIP3    H135078   2.037   4.004   3.243 -0.3300 -0.1122  3.0332
 4529TIP3    H235079   1.906   3.983   3.315 -2.8790  0.1375 -1.1525
 4530TIP3   OH235080   0.886   5.256   2.334  0.8068  0.2675  0.1187
 4530TIP3    H135081   0.950   5.186   2.348  0.2131 -0.1966  0.6104
 4530TIP3    H235082   0.808   5.226   2.381 -0.1437  0.2971 -1.3732
 4531TIP3   OH235083   6.454   2.363  14.398 -0.1298  0.3857 -0.0055
 4531TIP3    H135084   6.384   2.304  14.425  0.4398 -1.2959 -1.9042
 4531TIP3    H235085   6.456   2.432  14.465 -2.5742 -0.3156  0.8868
 4532TIP3   OH235086   1.351   1.095  17.571 -0.1631  0.1536  0.2327
 4532TIP3    H135087   1.382   1.005  17.565 -0.4453 -0.0081  1.0367
 4532TIP3    H235088   1.411   1.145  17.516  0.9050 -0.3068  0.9395
 4533TIP3   OH235089   6.290   6.048  16.062  0.1823 -0.1658 -0.4516
 4533TIP3    H135090   6.368   6.028  16.009  0.1603  2.5710 -1.6657
 4533TIP3    H235091   6.256   6.129  16.025 -3.1638 -1.1196  0.2029
 4534TIP3   OH235092   2.183   6.135  16.184  0.5526 -0.0746  0.3062
 4534TIP3    H135093   2.099   6.147  16.139  0.8468  1.1141  0.0239
 4534TIP3    H235094   2.161   6.126  16.276  0.0635 -0.6290  0.1387
 4535TIP3   OH235095   5.021   3.547  14.839  0.9112  0.3595 -0.1606
 4535TIP3    H135096   5.038   3.599  14.761  2.6872  2.8744  1.7260
 4535TIP3    H235097   4.927   3.555  14.855  0.5177 -0.2344 -1.9772
 4536TIP3   OH235098   5.289   1.471  13.052 -0.2583  0.7102 -0.1029
 4536TIP3    H135099   5.357   1.505  12.994 -1.6443  3.3254 -0.3385
 4536TIP3    H235100   5.311   1.506  13.139 -1.1969  1.4657 -0.1552
 4537TIP3   OH235101   2.855   4.941  17.068  0.0399 -0.2642  0.1542
 4537TIP3    H135102   2.919   4.935  16.997 -0.2183  0.3997 -0.1471
 4537TIP3    H235103   2.824   5.032  17.064 -1.9678 -0.9322 -0.6276
 4538TIP3   OH235104   1.969   2.177   3.787 -0.2160 -0.0481 -0.0976
 4538TIP3    H135105   1.929   2.263   3.786 -1.2722 -0.5168 -1.3119
 4538TIP3    H235106   2.061   2.193   3.809  0.1392  1.6566 -2.4193
 4539TIP3   OH235107   5.586   4.703   3.517 -0.3713  0.1241 -0.1085
 4539TIP3    H135108   5.627   4.777   3.562 -0.0138 -0.0678 -0.1180
 4539TIP3    H235109   5.649   4.632   3.525 -0.7583 -0.2118 -0.0117
 4540TIP3   OH235110   2.748   2.055   4.203  0.5808  0.4835 -0.2141
 4540TIP3    H135111   2.782   2.001   4.275  1.0413  2.5041  1.1964
 4540TIP3    H235112   2.687   2.115   4.246  0.0917  1.0817 -1.7052
 4541TIP3   OH235113   6.668   3.562  13.197 -0.3108  0.1573 -0.2341
 4541TIP3    H135114   6.736   3.579  13.262  0.4859  0.3941 -1.1071
 4541TIP3    H235115   6.711   3.578  13.113 -0.2544 -3.4850 -1.0542
 4542TIP3   OH235116   3.411   4.655  16.512 -0.1570 -0.5277  0.1606
 4542TIP3    H135117   3.477   4.707  16.466 -0.4877 -1.3498 -1.2950
 4542TIP3    H235118   3.336   4.715  16.521 -0.9591 -1.0096 -2.5255
 4543TIP3   OH235119   1.109   2.462   2.872  0.4125 -0.4424 -0.0946
 4543TIP3    H135120   1.064   2.525   2.929  0.5071 -0.3674 -0.1032
 4543TIP3    H235121   1.123   2.386   2.928  0.1534 -0.5175 -0.1306
 4544TIP3   OH235122   0.598   3.085  17.134  0.1514 -0.5689 -0.3985
 4544TIP3    H135123   0.635   3.102  17.221 -1.8550  0.9426  0.2330
 4544TIP3    H235124   0.539   3.011  17.146  1.2836 -1.6042 -0.9445
 4545TIP3   OH235125   6.393   4.266   5.860 -0.2448  0.2157 -0.0831
 4545TIP3    H135126   6.384   4.209   5.937 -1.5635 -0.8152 -0.9622
 4545TIP3    H235127   6.377   4.209   5.786  0.0017  1.4173 -1.0936
 4546TIP3   OH235128   4.325   1.006  13.142  0.1156  0.3755  0.3458
 4546TIP3    H135129   4.412   0.979  13.172  1.5053  3.3182 -0.6741
 4546TIP3    H235130   4.280   1.034  13.222  0.0162 -1.2054  0.8889
 4547TIP3   OH235131   5.308   1.857   7.044  0.1863 -0.2458  0.1141
 4547TIP3    H135132   5.226   1.810   7.055  0.9668 -1.5266  0.6898
 4547TIP3    H235133   5.303   1.894   6.955 -0.9193 -0.4404  0.0843
 4548TIP3   OH235134   6.258   2.398  14.023 -0.1435 -0.8487  0.1745
 4548TIP3    H135135   6.221   2.383  14.110 -0.8349 -2.2893 -0.3400
 4548TIP3    H235136   6.239   2.318  13.974 -0.1523  0.0885 -1.4394
 4549TIP3   OH235137   3.207   4.727  11.207  0.0192  0.5864 -0.6104
 4549TIP3    H135138   3.285   4.671  11.203  1.0756  1.9841 -0.3608
 4549TIP3    H235139   3.213   4.780  11.127 -1.5382 -0.3331 -1.3864
 4550TIP3   OH235140   5.268   0.324   3.562 -0.4449 -0.9811 -0.2777
 4550TIP3    H135141   5.315   0.306   3.480 -2.4978  0.0706 -1.7763
 4550TIP3    H235142   5.190   0.372   3.535  0.0250  1.6906  2.5522
 4551TIP3   OH235143   3.733   1.822   2.884 -0.6849  0.2608 -0.0224
 4551TIP3    H135144   3.715   1.857   2.797 -0.7127 -3.7867 -1.8506
 4551TIP3    H235145   3.828   1.829   2.893 -0.8062  1.8970  0.2607
 4552TIP3   OH235146   1.117   1.819   1.445  0.3104  0.2164  0.2625
 4552TIP3    H135147   1.190   1.877   1.466  0.1567  1.1221 -1.5078
 4552TIP3    H235148   1.158   1.735   1.427  1.0169  0.8149 -1.1187
 4553TIP3   OH235149   0.343   3.774   1.353 -0.9227 -0.1948  0.0951
 4553TIP3    H135150   0.290   3.853   1.357  1.0533  1.1932  0.3337
 4553TIP3    H235151   0.338   3.738   1.442  0.8271  1.5879  1.0117
 4554TIP3   OH235152   0.861   2.618   3.874  0.2118 -0.1139 -0.4463
 4554TIP3    H135153   0.916   2.638   3.950 -1.2323  0.6053  0.4530
 4554TIP3    H235154   0.881   2.527   3.853 -0.1292 -0.6927  1.5042
 4555TIP3   OH235155   4.259   5.220  13.049 -0.1597  0.0102  0.0783
 4555TIP3    H135156   4.248   5.211  13.143 -3.4058  0.4687 -0.1275
 4555TIP3    H235157   4.302   5.304  13.037 -0.9467  0.5893  1.1657
 4556TIP3   OH235158   3.863   4.480  12.231  0.3426  0.2884  0.8015
 4556TIP3    H135159   3.945   4.436  12.253 -0.1857 -1.3248 -0.3042
 4556TIP3    H235160   3.868   4.495  12.136 -0.0790  1.4256  0.9377
 4557TIP3   OH235161   0.066   4.538   0.933 -0.3099  0.4690 -0.4498
 4557TIP3    H135162   0.153   4.508   0.907 -0.5171  0.5569 -1.2658
 4557TIP3    H235163   0.006   4.487   0.880 -0.6741  2.2703 -1.8693
 4558TIP3   OH235164   5.025   5.848   1.932  0.6712  0.4712 -0.5110
 4558TIP3    H135165   5.018   5.929   1.881 -0.6539  1.5217  1.2023
 4558TIP3    H235166   4.947   5.798   1.909  1.1813 -0.0641 -1.1130
 4559TIP3   OH235167   1.155   5.026   5.649 -0.4057 -0.2423  0.3032
 4559TIP3    H135168   1.144   4.964   5.577 -0.5972 -0.9240  0.9063
 4559TIP3    H235169   1.155   5.112   5.607  0.9047 -0.6839 -0.6660
 4560TIP3   OH235170   2.673   1.805  15.796 -0.2088  0.4353 -1.1651
 4560TIP3    H135171   2.719   1.731  15.758  0.8323 -1.1026  2.6053
 4560TIP3    H235172   2.742   1.869  15.816  0.0996 -0.7024  1.9630
 4561TIP3   OH235173   6.007   6.024   2.786 -0.3881 -0.4584 -0.0319
 4561TIP3    H135174   5.942   5.955   2.786 -0.4108 -0.4555 -1.1718
 4561TIP3    H235175   6.051   6.016   2.871  0.4704 -2.6742 -0.6332
 4562TIP3   OH235176   1.415   2.286  14.128  0.3289  1.0857  0.0575
 4562TIP3    H135177   1.445   2.198  14.151  1.1651  1.8394  2.0599
 4562TIP3    H235178   1.322   2.286  14.147 -0.1101  0.1016 -1.8218
 4563TIP3   OH235179   5.101   6.019   3.995 -1.0700 -0.3333 -0.0281
 4563TIP3    H135180   5.098   5.935   3.949 -2.9986  0.1206 -0.8434
 4563TIP3    H235181   5.139   5.999   4.080  1.0137 -1.5192 -1.1588
 4564TIP3   OH235182   1.494   0.885  13.633  0.7045  0.0908  0.3256
 4564TIP3    H135183   1.567   0.946  13.639  1.3797 -0.7720  0.9499
 4564TIP3    H235184   1.516   0.814  13.692  0.7545 -1.6409 -1.6415
 4565TIP3   OH235185   1.845   6.170  16.326 -0.1646 -0.2024 -0.1715
 4565TIP3    H135186   1.868   6.126  16.244 -0.6331 -0.3125 -0.2503
 4565TIP3    H235187   1.784   6.110  16.368 -0.5810  0.2377 -0.1416
 4566TIP3   OH235188   1.785   3.711  11.271 -0.7629  0.1438  0.3011
 4566TIP3    H135189   1.731   3.672  11.340  1.8416 -1.4088  1.6218
 4566TIP3    H235190   1.758   3.665  11.192 -0.9048 -1.1240  1.0523
 4567TIP3   OH235191   4.201   3.913   4.238  0.3204  0.2293  0.4579
 4567TIP3    H135192   4.136   3.975   4.204 -0.5104 -0.9421 -0.1688
 4567TIP3    H235193   4.195   3.922   4.333  0.3418  1.2239  0.3777
 4568TIP3   OH235194   5.845   1.148   0.129  1.0344 -0.0716 -0.5523
 4568TIP3    H135195   5.750   1.153   0.117  0.5625 -0.1535  2.4210
 4568TIP3    H235196   5.878   1.116   0.045 -1.5304  0.1216 -1.7278
 4569TIP3   OH235197   2.157   5.018   1.950 -0.2114  0.4163  0.0276
 4569TIP3    H135198   2.217   5.076   1.903  0.0827 -0.3279 -0.5248
 4569TIP3    H235199   2.191   5.016   2.040  0.3942  0.2755 -0.2002
 4570TIP3   OH235200   1.144   5.462  13.348 -0.1973 -0.2851  0.1255
 4570TIP3    H135201   1.174   5.544  13.387 -1.4248 -0.6999  2.0509
 4570TIP3    H235202   1.170   5.395  13.411 -2.3073 -0.9786  0.3238
 4571TIP3   OH235203   2.022   4.729   3.494  0.3585  0.3116 -0.3492
 4571TIP3    H135204   2.017   4.663   3.564  1.2322 -0.3457 -0.8894
 4571TIP3    H235205   2.111   4.762   3.500  0.3992  0.3333 -1.0849
 4572TIP3   OH235206   4.484   3.485  15.684  0.0397 -0.1463  0.7261
 4572TIP3    H135207   4.533   3.485  15.602  1.1564 -0.3478  1.3802
 4572TIP3    H235208   4.489   3.575  15.716 -1.6140  0.2907 -0.1006
 4573TIP3   OH235209   5.166   6.560  14.019  0.2187  0.6999  0.7111
 4573TIP3    H135210   5.255   6.595  14.018  0.5797 -0.1669 -1.1518
 4573TIP3    H235211   5.172   6.480  14.072  0.7720  0.1434 -0.1693
 4574TIP3   OH235212   0.736   4.125   6.648  0.3904 -0.1742  0.0366
 4574TIP3    H135213   0.766   4.164   6.566  1.0964 -1.6681 -0.4565
 4574TIP3    H235214   0.763   4.033   6.642  1.4324 -0.0808  2.4254
 4575TIP3   OH235215   1.767   4.538   1.421  0.5169 -0.4373  0.0149
 4575TIP3    H135216   1.696   4.597   1.446  0.2195 -1.2502  1.1709
 4575TIP3    H235217   1.800   4.574   1.339 -2.1453 -0.8179 -1.3137
 4576TIP3   OH235218   2.538   1.774  13.577  0.4944  0.2372 -0.1633
 4576TIP3    H135219   2.479   1.699  13.571 -0.0707  0.7339 -1.0610
 4576TIP3    H235220   2.504   1.824  13.651  1.5105 -0.9037  1.1200
 4577TIP3   OH235221   4.558   5.972  10.955  0.3776 -0.1889 -0.0451
 4577TIP3    H135222   4.474   5.987  10.997 -1.1504 -0.2992 -2.8013
 4577TIP3    H235223   4.623   5.992  11.022 -1.8116  1.4071  1.7422
 4578TIP3   OH235224   5.210   5.851  14.359 -0.7052  0.3463  0.6857
 4578TIP3    H135225   5.138   5.845  14.423 -0.8709 -0.9684  0.3999
 4578TIP3    H235226   5.212   5.765  14.317  1.3474  0.1915  1.0169
 4579TIP3   OH235227   0.941   2.037   1.353  0.6702  0.4759 -0.2641
 4579TIP3    H135228   0.849   2.026   1.377  0.4223  0.4582 -1.1864
 4579TIP3    H235229   0.981   1.952   1.372  0.3616  0.2919 -0.4397
 4580TIP3   OH235230   3.010   4.444   2.904  0.0272 -0.1265 -0.1420
 4580TIP3    H135231   3.052   4.456   2.990  0.8084 -1.6589 -0.2897
 4580TIP3    H235232   3.078   4.405   2.849 -0.8047 -0.1835 -1.1517
 4581TIP3   OH235233   0.208   3.299  17.164  0.1905  0.3617 -0.3478
 4581TIP3    H135234   0.254   3.228  17.208 -1.0863 -0.4700 -0.2793
 4581TIP3    H235235   0.120   3.264  17.148 -0.1387  1.5421 -1.3068
 4582TIP3   OH235236   4.511   2.636   5.311  0.1492 -0.4184 -0.3615
 4582TIP3    H135237   4.440   2.666   5.255  0.4888  2.8312  0.6930
 4582TIP3    H235238   4.588   2.635   5.255  0.2730  1.7192 -0.3252
 4583TIP3   OH235239   4.515   4.940  11.046  0.1956  0.0942 -0.3145
 4583TIP3    H135240   4.545   4.902  11.128 -1.7837 -1.5031 -0.2536
 4583TIP3    H235241   4.431   4.982  11.067 -0.3656 -0.3735 -1.4973
 4584TIP3   OH235242   4.563   3.327   3.105 -0.1197 -0.2228 -0.3067
 4584TIP3    H135243   4.486   3.292   3.149 -0.8554  0.2740 -1.1354
 4584TIP3    H235244   4.596   3.255   3.052  0.1865 -0.5313  0.2948
 4585TIP3   OH235245   3.665   1.933   0.597  0.0822 -0.0554  0.4707
 4585TIP3    H135246   3.753   1.906   0.570 -0.2367 -2.7672  1.7706
 4585TIP3    H235247   3.609   1.913   0.522  0.4533  1.0034 -0.0977
 4586TIP3   OH235248   1.467   0.723   4.517 -0.1091 -1.2136 -0.1145
 4586TIP3    H135249   1.382   0.740   4.477 -0.3827 -2.1296  0.0595
 4586TIP3    H235250   1.458   0.752   4.607  0.7369  1.5635 -0.7992
 4587TIP3   OH235251   6.160   3.479   5.429 -0.3774  0.6075  0.0363
 4587TIP3    H135252   6.234   3.480   5.490 -0.5373 -0.5402  0.2635
 4587TIP3    H235253   6.186   3.541   5.360  0.0553  1.4785  0.9506
 4588TIP3   OH235254   5.990   5.527  16.533 -0.3040 -0.1940  0.2364
 4588TIP3    H135255   5.918   5.505  16.592 -1.9037  1.0943 -1.1520
 4588TIP3    H235256   6.026   5.608  16.569 -2.1994  1.3925 -1.2152
 4589TIP3   OH235257   0.496   0.312  12.374  0.0910 -0.3848  0.1107
 4589TIP3    H135258   0.590   0.319  12.361 -0.1075 -2.2445 -4.2862
 4589TIP3    H235259   0.460   0.391  12.333 -0.3260 -0.0750  1.0428
 4590TIP3   OH235260   3.469   2.911  15.234 -0.5181 -0.4132 -0.0789
 4590TIP3    H135261   3.515   2.938  15.312  1.2885 -2.1772 -0.4448
 4590TIP3    H235262   3.398   2.855  15.266 -1.3889  0.9109  0.3876
 4591TIP3   OH235263   4.206   1.080  14.491 -0.0424 -0.0109  0.1216
 4591TIP3    H135264   4.287   1.107  14.448  0.3247 -0.1091  0.7410
 4591TIP3    H235265   4.167   1.162  14.522 -0.2774  0.0539 -0.3216
 4592TIP3   OH235266   0.409   5.168  12.371 -0.0893 -0.3521  0.6659
 4592TIP3    H135267   0.416   5.133  12.460  0.4969 -0.3792  0.6069
 4592TIP3    H235268   0.315   5.160  12.351 -0.4861  0.9309  1.8018
 4593TIP3   OH235269   1.327   2.924  15.834 -0.1377  0.8754 -0.0110
 4593TIP3    H135270   1.244   2.876  15.828  0.4225 -0.1549  0.2579
 4593TIP3    H235271   1.328   2.979  15.756 -1.1089  0.9699  0.0200
 4594TIP3   OH235272   4.104   0.010   6.572  0.7148  0.1489 -0.3908
 4594TIP3    H135273   4.009   0.011   6.557  0.7776 -0.7082 -0.8445
 4594TIP3    H235274   4.137  -0.061   6.518  1.4653 -0.3594  0.6995
 4595TIP3   OH235275   1.577   5.806  16.268  0.1866 -0.2539  0.0059
 4595TIP3    H135276   1.550   5.855  16.190  0.0204 -0.6866 -0.2081
 4595TIP3    H235277   1.608   5.874  16.329  0.4031  0.0784 -0.4660
 4596TIP3   OH235278   4.326   0.678   1.317  0.2332  0.1392 -0.2190
 4596TIP3    H135279   4.366   0.750   1.267  0.4998  1.0449  1.2274
 4596TIP3    H235280   4.389   0.606   1.309  0.9720  0.7436  0.0019
 4597TIP3   OH235281   3.837   4.044  14.619  0.0218  0.0221 -0.0616
 4597TIP3    H135282   3.769   4.112  14.616  1.5766  1.6672  0.1284
 4597TIP3    H235283   3.890   4.060  14.541  1.7517  0.5217  1.1689
 4598TIP3   OH235284   1.686   6.212   5.108 -0.5884 -0.6125  0.3186
 4598TIP3    H135285   1.691   6.307   5.097 -0.4960 -0.4006  1.9915
 4598TIP3    H235286   1.593   6.196   5.126 -0.4882 -0.7520  0.7136
 4599TIP3   OH235287   3.682   3.169   1.950 -0.5290  0.4762  0.0557
 4599TIP3    H135288   3.777   3.168   1.956 -0.4991 -1.3803  0.0368
 4599TIP3    H235289   3.654   3.240   2.008  0.8596  1.1973 -0.1183
 4600TIP3   OH235290   5.229   3.474   5.244 -0.1489  0.3957  0.0527
 4600TIP3    H135291   5.308   3.525   5.225 -0.2805  1.3008  1.7801
 4600TIP3    H235292   5.261   3.385   5.257  0.4373  0.5392 -0.3650
 4601TIP3   OH235293   6.702   2.556   6.041  0.5825  0.1859 -0.8727
 4601TIP3    H135294   6.763   2.618   6.001  1.1619 -0.6851 -1.3752
 4601TIP3    H235295   6.630   2.549   5.978 -0.6115  2.0039  0.1815
 4602TIP3   OH235296   6.321   0.108  16.218 -0.2386  0.3312  0.1047
 4602TIP3    H135297   6.350   0.193  16.252 -1.0342  0.5242  0.3214
 4602TIP3    H235298   6.259   0.076  16.283 -0.2005 -0.2672 -0.1414
 4603TIP3   OH235299   1.581   2.610   3.412 -0.2043  0.1196 -0.0804
 4603TIP3    H135300   1.619   2.667   3.479  1.7394 -3.1048  1.8616
 4603TIP3    H235301   1.650   2.601   3.346 -1.9522  2.9217 -2.5525
 4604TIP3   OH235302   1.255   6.578  12.379 -0.0794 -0.1453  0.3736
 4604TIP3    H135303   1.291   6.626  12.304  3.0419 -0.0604  1.7837
 4604TIP3    H235304   1.237   6.490  12.345  0.2814  0.1897 -0.7219
 4605TIP3   OH235305   1.864   0.591   4.997  0.0443  0.3318  0.0629
 4605TIP3    H135306   1.892   0.623   4.911 -2.2460  0.9742 -0.4918
 4605TIP3    H235307   1.854   0.496   4.985 -2.7116  0.6975 -1.1961
 4606TIP3   OH235308   5.919   2.070  14.510  0.4152  0.5287 -0.2424
 4606TIP3    H135309   6.008   2.103  14.520  0.8898 -1.1084  1.8578
 4606TIP3    H235310   5.876   2.094  14.592 -0.6438  0.0932 -0.6551
 4607TIP3   OH235311   1.389   3.553   7.039  0.8955 -0.4441 -0.3249
 4607TIP3    H135312   1.358   3.631   7.086  1.7761 -0.5180  0.4033
 4607TIP3    H235313   1.484   3.554   7.051  1.0167 -1.1018 -1.1422
 4608TIP3   OH235314   4.436   3.270  16.435 -0.3371  0.0172 -0.4314
 4608TIP3    H135315   4.447   3.355  16.392  2.6432 -0.3722 -0.6680
 4608TIP3    H235316   4.362   3.230  16.389  0.6642  0.9392 -3.0744
 4609TIP3   OH235317   5.989   3.136  14.211 -0.5535  0.0482  0.4695
 4609TIP3    H135318   6.024   3.225  14.214  0.7318 -0.2378 -2.4487
 4609TIP3    H235319   6.006   3.101  14.298  0.1718  2.1883  1.2716
 4610TIP3   OH235320   4.586   6.471   2.947  0.1031 -0.0318 -0.1855
 4610TIP3    H135321   4.585   6.403   3.014  1.8829  0.6211  0.5623
 4610TIP3    H235322   4.633   6.431   2.874  0.5627  0.1677  0.0002
 4611TIP3   OH235323   3.418   6.598   0.826 -0.0489 -0.5191  0.3000
 4611TIP3    H135324   3.509   6.587   0.799  0.1108 -1.8594  1.3015
 4611TIP3    H235325   3.417   6.577   0.919 -1.4685 -1.0275  0.2020
 4612TIP3   OH235326   3.824   0.992  12.019 -0.2473  0.1500 -0.0495
 4612TIP3    H135327   3.857   1.036  12.098 -0.5240  0.5108 -0.1325
 4612TIP3    H235328   3.731   1.012  12.018 -0.2950 -0.0931 -0.3174
 4613TIP3   OH235329   3.784   2.967  16.269  0.3328  0.1133 -0.0581
 4613TIP3    H135330   3.732   2.890  16.292  0.6026 -0.3274 -0.8873
 4613TIP3    H235331   3.783   3.021  16.348 -0.2695 -0.5102  0.3716
 4614TIP3   OH235332   1.093   6.527   5.092 -0.4688 -0.1542  0.2929
 4614TIP3    H135333   1.058   6.442   5.121 -0.5326  0.0125  0.6995
 4614TIP3    H235334   1.015   6.575   5.063 -0.4621 -0.1339  0.3097
 4615TIP3   OH235335   3.413   4.243   4.821 -0.1509  0.0542  0.5519
 4615TIP3    H135336   3.486   4.228   4.760 -1.7665 -0.3910 -1.4002
 4615TIP3    H235337   3.437   4.323   4.867  0.5382  1.3131 -1.7975
 4616TIP3   OH235338   1.015   1.071  16.278  0.4026 -0.3353  0.2149
 4616TIP3    H135339   1.038   1.085  16.370  0.4377  2.7477 -0.1487
 4616TIP3    H235340   1.093   1.034  16.239  1.6862  1.5801  0.8084
 4617TIP3   OH235341   6.318   5.182   2.252  0.3120 -0.1196  0.2239
 4617TIP3    H135342   6.263   5.260   2.262 -1.0430 -0.7132 -1.9002
 4617TIP3    H235343   6.261   5.118   2.209  2.0427 -1.5442 -0.0535
 4618TIP3   OH235344   3.934   1.838   1.944  0.2913  0.0348  0.2822
 4618TIP3    H135345   3.902   1.858   2.032 -1.6036  0.4983 -0.4760
 4618TIP3    H235346   3.916   1.918   1.893  1.3959 -0.2082 -0.5333
 4619TIP3   OH235347   0.360   5.925   2.975  0.0191  0.0222 -0.4995
 4619TIP3    H135348   0.383   5.999   3.031  0.5763  0.2671 -1.0505
 4619TIP3    H235349   0.289   5.881   3.023  0.2516  0.4205  0.2336
 4620TIP3   OH235350   6.474   2.845  14.498 -0.0987 -0.2522  0.1032
 4620TIP3    H135351   6.448   2.825  14.408  1.5310 -0.7328 -0.2816
 4620TIP3    H235352   6.391   2.865  14.542 -0.9619 -0.3066 -1.4123
 4621TIP3   OH235353   2.606   3.673  16.287  0.9854 -0.0312  0.2557
 4621TIP3    H135354   2.614   3.583  16.316  0.2882 -0.6662 -1.3980
 4621TIP3    H235355   2.593   3.724  16.367 -1.5150 -1.7428  1.0313
 4622TIP3   OH235356   1.881   2.637  12.464  0.1993 -0.3993 -0.2906
 4622TIP3    H135357   1.962   2.613  12.418 -0.5012 -2.3889 -0.5578
 4622TIP3    H235358   1.893   2.604  12.553 -1.4632 -3.5351 -1.1109
 4623TIP3   OH235359   1.887   4.464   4.714  0.3497  0.2353 -0.5864
 4623TIP3    H135360   1.950   4.393   4.700 -0.0157 -0.2066 -0.0322
 4623TIP3    H235361   1.941   4.542   4.726  0.7817 -0.0800 -0.4480
 4624TIP3   OH235362   0.490   3.516   1.500  0.2389  0.2786 -0.1813
 4624TIP3    H135363   0.463   3.492   1.588  0.9600 -0.6111 -0.1896
 4624TIP3    H235364   0.535   3.600   1.511 -0.4653  0.6134  0.1610
 4625TIP3   OH235365   3.541   1.513  12.057 -0.3747  0.8920  0.4845
 4625TIP3    H135366   3.565   1.428  12.021 -2.7129  0.8612 -1.2786
 4625TIP3    H235367   3.584   1.577  12.000 -0.0653  0.8744  0.6994
 4626TIP3   OH235368   0.549   3.429  15.838  0.5819  0.1642 -0.2284
 4626TIP3    H135369   0.524   3.417  15.930  0.1365  1.2038 -0.2061
 4626TIP3    H235370   0.466   3.439  15.792  0.8449  0.5747 -0.6119
 4627TIP3   OH235371   4.036   5.865   4.112 -0.7057 -0.2845  0.2451
 4627TIP3    H135372   4.090   5.851   4.190  0.6315 -0.8944 -0.7670
 4627TIP3    H235373   4.036   5.781   4.067 -0.2515  0.4413 -1.1620
 4628TIP3   OH235374   0.271   3.692  16.668 -0.1641  0.2487 -0.0138
 4628TIP3    H135375   0.361   3.669  16.645 -0.6271  0.8751 -2.7832
 4628TIP3    H235376   0.234   3.610  16.701  0.2021 -1.3020 -3.0990
 4629TIP3   OH235377   6.541   1.710  17.112  0.0202  0.2972  0.3003
 4629TIP3    H135378   6.570   1.656  17.039  0.3790 -0.2103  0.8164
 4629TIP3    H235379   6.445   1.709  17.105 -0.0229 -1.1083  0.7963
 4630TIP3   OH235380   1.661   2.322   0.176  0.3457 -0.1949  0.1822
 4630TIP3    H135381   1.714   2.400   0.192  2.0591 -1.3245  0.3696
 4630TIP3    H235382   1.724   2.249   0.181 -0.9181 -1.4796 -1.3275
 4631TIP3   OH235383   1.727   4.196   0.046  0.1231 -0.7939  0.1458
 4631TIP3    H135384   1.686   4.125  -0.003 -0.4966  0.1671 -0.7700
 4631TIP3    H235385   1.712   4.173   0.138 -0.3681 -1.6615 -0.1364
 4632TIP3   OH235386   2.210   3.609  14.761  0.2693 -0.3610 -0.0917
 4632TIP3    H135387   2.268   3.535  14.779  1.1655  0.4051  0.1990
 4632TIP3    H235388   2.242   3.645  14.678  0.3081  0.1546  0.1443
 4633TIP3   OH235389   0.974   6.391   1.505 -0.1248 -0.3660 -0.7990
 4633TIP3    H135390   1.070   6.386   1.506 -0.0352  0.7355 -1.8577
 4633TIP3    H235391   0.947   6.340   1.581  1.4580  2.1351  1.6584
 4634TIP3   OH235392   2.407   3.506   3.647 -0.4310  0.3573  0.0305
 4634TIP3    H135393   2.379   3.517   3.556 -2.8117 -2.1487  0.3511
 4634TIP3    H235394   2.494   3.466   3.641 -0.1476  1.0969 -1.0972
 4635TIP3   OH235395   4.880   5.541   2.467 -0.1223  0.5183  0.2103
 4635TIP3    H135396   4.880   5.567   2.375  0.3742  1.0193  0.3433
 4635TIP3    H235397   4.966   5.502   2.482 -0.4391 -0.1604  0.3069
 4636TIP3   OH235398   5.975   6.553  10.915  0.0648 -0.4502  0.6230
 4636TIP3    H135399   5.972   6.630  10.858  0.3154 -0.6301  0.3648
 4636TIP3    H235400   5.982   6.589  11.003  0.5800 -0.1805  0.4746
 4637TIP3   OH235401   4.406   3.760   0.810 -0.1297 -0.0485  0.3802
 4637TIP3    H135402   4.336   3.753   0.745  0.0976 -2.2713  0.2951
 4637TIP3    H235403   4.410   3.673   0.851  4.1155 -0.9048 -1.3005
 4638TIP3   OH235404   6.271   2.814   4.968  0.1032 -0.2272  0.4306
 4638TIP3    H135405   6.223   2.837   4.888 -0.8288 -0.3187  0.9428
 4638TIP3    H235406   6.272   2.719   4.968  1.9049 -0.2459 -0.4953
 4639TIP3   OH235407   5.207   1.337  16.820 -0.3941  0.0461 -0.3344
 4639TIP3    H135408   5.117   1.313  16.840  0.1910 -2.3423 -0.1838
 4639TIP3    H235409   5.250   1.343  16.905  0.1496 -1.5212 -0.4592
 4640TIP3   OH235410   2.370   4.011  12.149  0.0897 -0.3880  0.1010
 4640TIP3    H135411   2.334   4.080  12.095  0.1352 -0.7402 -0.3816
 4640TIP3    H235412   2.387   3.938  12.089 -1.4274 -1.4043  0.8350
 4641TIP3   OH235413   4.772   3.743   5.540  0.2081 -0.5601  0.1568
 4641TIP3    H135414   4.834   3.735   5.613  1.5242 -0.8922 -0.9606
 4641TIP3    H235415   4.795   3.671   5.482 -0.0216  0.3990 -1.1576
 4642TIP3   OH235416   2.194   4.298  14.796  0.1388  0.2315 -0.0218
 4642TIP3    H135417   2.288   4.284  14.792  0.0373 -1.1285  1.7407
 4642TIP3    H235418   2.168   4.311  14.704  1.7718 -1.0665 -0.7046
 4643TIP3   OH235419   3.958   0.188   2.443 -0.3839  0.1352  0.5750
 4643TIP3    H135420   4.018   0.175   2.370  0.6716  2.3564  0.9494
 4643TIP3    H235421   3.991   0.266   2.487 -0.7686 -1.2835  3.6542
 4644TIP3   OH235422   2.912   4.061  12.828  0.7316 -0.9311  0.6065
 4644TIP3    H135423   2.853   4.111  12.772  0.0312 -1.1613  1.1232
 4644TIP3    H235424   2.998   4.068  12.786  1.0880  2.2177  1.5671
 4645TIP3   OH235425   4.615   0.304  15.408 -0.0328  0.2918 -0.4015
 4645TIP3    H135426   4.550   0.341  15.348  0.3945  2.6105  0.4755
 4645TIP3    H235427   4.565   0.282  15.487 -0.3060 -1.2423 -0.9585
 4646TIP3   OH235428   1.495   4.662   6.440  0.4994  0.1000 -0.0430
 4646TIP3    H135429   1.584   4.679   6.409  0.3790  0.6010 -0.1287
 4646TIP3    H235430   1.500   4.678   6.535 -0.1362  3.0690 -0.4045
 4647TIP3   OH235431   6.171   1.100   3.510  0.4361 -0.5069  0.1365
 4647TIP3    H135432   6.189   1.118   3.418  0.6841 -1.0811  0.0636
 4647TIP3    H235433   6.250   1.054   3.541  0.3496 -0.3341  0.6302
 4648TIP3   OH235434   1.789   2.769   6.019 -0.0696  0.1972  0.0329
 4648TIP3    H135435   1.785   2.707   6.091 -0.7480  2.1242  1.7643
 4648TIP3    H235436   1.699   2.804   6.013  0.8000  2.8813  0.9605
 4649TIP3   OH235437   2.712   5.791  16.589  0.4987  1.1028  0.1329
 4649TIP3    H135438   2.630   5.839  16.580 -0.0477  0.4697  1.5387
 4649TIP3    H235439   2.724   5.747  16.504 -0.9354  0.7053  0.1162
 4650TIP3   OH235440   0.512   0.485   2.794 -0.1130  0.0944  0.7467
 4650TIP3    H135441   0.455   0.409   2.801 -1.6038  1.0406 -0.3485
 4650TIP3    H235442   0.462   0.548   2.742  2.5644  0.3517 -1.8611
 4651TIP3   OH235443   4.650   1.664   2.649  0.6304  0.1250 -0.4179
 4651TIP3    H135444   4.638   1.569   2.654  1.3463  0.0975  2.3435
 4651TIP3    H235445   4.577   1.695   2.595  0.6803 -2.0102 -1.8190
 4652TIP3   OH235446   1.501   1.221   2.676  0.0757 -0.1924  0.2919
 4652TIP3    H135447   1.541   1.307   2.662  2.2278 -1.0651  0.8309
 4652TIP3    H235448   1.497   1.212   2.771 -2.0773  0.1134  0.2916
 4653TIP3   OH235449   2.486   1.757   3.704  0.5824  0.3915  0.2187
 4653TIP3    H135450   2.527   1.727   3.623  1.4868 -0.7869  1.0866
 4653TIP3    H235451   2.498   1.685   3.766  0.4086  1.4809  1.5707
 4654TIP3   OH235452   2.913   2.989  12.569 -0.5963 -0.0897  0.2966
 4654TIP3    H135453   2.874   3.077  12.575 -1.1189 -0.3716  1.0969
 4654TIP3    H235454   2.961   2.991  12.486  1.0500  1.6143  1.1926
 4655TIP3   OH235455   3.575   5.997  16.812 -0.2190 -0.0693  0.8986
 4655TIP3    H135456   3.561   6.012  16.905 -0.3423  0.5372  0.7840
 4655TIP3    H235457   3.630   6.069  16.784 -1.6022  0.7284  0.1363
 4656TIP3   OH235458   3.258   5.316  12.882  0.6373  0.2315  0.0977
 4656TIP3    H135459   3.280   5.391  12.938  1.1589  0.7906 -0.8297
 4656TIP3    H235460   3.259   5.351  12.793 -1.9385 -0.2243 -0.1839
 4657TIP3   OH235461   4.331   5.767  12.444 -0.2342  0.1927 -0.4928
 4657TIP3    H135462   4.342   5.820  12.523 -0.3417 -1.1984  0.4974
 4657TIP3    H235463   4.416   5.768  12.401  0.0065  0.4439 -0.0115
 4658TIP3   OH235464   4.648   1.878  16.017 -0.6898 -0.3425  0.1080
 4658TIP3    H135465   4.694   1.916  16.091 -0.9001  0.5089 -0.1910
 4658TIP3    H235466   4.683   1.789  16.010  1.7559  0.6246 -0.8146
 4659TIP3   OH235467   3.914   2.845   0.456  0.4051 -0.2003  0.0376
 4659TIP3    H135468   3.974   2.808   0.391  0.9152 -0.9349  0.8989
 4659TIP3    H235469   3.891   2.931   0.421  0.8037 -0.5081 -1.0255
 4660TIP3   OH235470   3.313   3.731   1.843 -0.1028 -0.1610  0.1182
 4660TIP3    H135471   3.384   3.787   1.811 -0.8063  1.5264  1.3599
 4660TIP3    H235472   3.238   3.753   1.787 -0.2328 -0.2445  0.2581
 4661TIP3   OH235473   6.444   6.710   2.440  0.2635 -0.0699  0.0441
 4661TIP3    H135474   6.525   6.662   2.421 -0.2684 -0.5892 -1.0428
 4661TIP3    H235475   6.428   6.761   2.360  0.7799  1.9095  1.1405
 4662TIP3   OH235476   1.902   4.972   2.683 -0.0892  0.2088  0.3881
 4662TIP3    H135477   1.995   4.952   2.694 -0.1749  0.0863  0.9372
 4662TIP3    H235478   1.867   4.900   2.631  0.4952  1.2045 -1.4711
 4663TIP3   OH235479   3.325   5.025  13.900  0.0574  0.2130  0.0261
 4663TIP3    H135480   3.276   5.085  13.957  0.8100  0.6343  0.2485
 4663TIP3    H235481   3.389   5.081  13.855  1.3239 -0.5097  0.8457
 4664TIP3   OH235482   2.824   0.938   1.619  0.2452  0.7565  0.1123
 4664TIP3    H135483   2.851   0.954   1.710 -0.4299 -0.1226  0.4799
 4664TIP3    H235484   2.892   0.882   1.583 -0.4972 -0.5823  0.7156
 4665TIP3   OH235485   0.603   4.766  12.654 -0.4074 -0.0977  0.4885
 4665TIP3    H135486   0.691   4.800  12.672 -1.3485  3.6861 -1.1432
 4665TIP3    H235487   0.614   4.713  12.575  0.4041  0.4172  0.2421
 4666TIP3   OH235488   1.601   6.067  13.410  0.1471  0.3160  0.2696
 4666TIP3    H135489   1.555   6.048  13.329 -0.4805  0.4432  0.5904
 4666TIP3    H235490   1.637   6.155  13.398  0.1380  0.2951  0.0967
 4667TIP3   OH235491   2.202   3.385   5.755  1.2066 -0.3868 -0.4513
 4667TIP3    H135492   2.238   3.438   5.826 -1.4457 -1.0249  1.5402
 4667TIP3    H235493   2.174   3.449   5.689  3.5348  0.2275 -0.9117
 4668TIP3   OH235494   5.894   2.252  14.009  0.1387 -0.4707 -0.2677
 4668TIP3    H135495   5.914   2.188  14.078 -0.5293  0.0094  0.3842
 4668TIP3    H235496   5.823   2.212  13.959 -0.7099  0.0255  0.5261
 4669TIP3   OH235497   4.204   4.510   2.900  0.3727  0.8137 -0.2831
 4669TIP3    H135498   4.147   4.444   2.939  0.9987 -0.0437 -0.7930
 4669TIP3    H235499   4.151   4.589   2.898 -0.5656  0.2033 -0.1205
 4670TIP3   OH235500   4.688   5.369  14.809  0.2990  0.3605 -0.1488
 4670TIP3    H135501   4.636   5.402  14.735  1.4488  0.6342 -0.8558
 4670TIP3    H235502   4.645   5.287  14.833  0.2761 -0.0663 -1.5538
 4671TIP3   OH235503   6.642   5.822   6.790  0.5145  0.1441 -0.4774
 4671TIP3    H135504   6.662   5.729   6.787 -0.5829 -0.1242  0.2300
 4671TIP3    H235505   6.728   5.865   6.787  1.1203 -0.9153  0.8322
 4672TIP3   OH235506   3.239   2.090   3.490 -0.2112  0.8028 -0.2956
 4672TIP3    H135507   3.331   2.110   3.474 -0.4478  4.0620  1.6104
 4672TIP3    H235508   3.241   2.006   3.536  1.7718  0.6384 -0.5909
 4673TIP3   OH235509   0.810   1.349  15.493  0.0451  0.0923 -0.5816
 4673TIP3    H135510   0.772   1.299  15.421  2.0738 -0.7407 -1.1475
 4673TIP3    H235511   0.744   1.344  15.562 -0.5132 -2.0891 -1.1722
 4674TIP3   OH235512   0.956   3.926   1.997 -0.1428 -0.7143 -0.4773
 4674TIP3    H135513   0.917   3.944   2.083 -1.7713 -1.5420 -1.0034
 4674TIP3    H235514   0.990   4.010   1.968  2.1456 -0.7270  1.7438
 4675TIP3   OH235515   2.131   1.064  16.164 -0.2054  0.3657  0.2237
 4675TIP3    H135516   2.196   1.122  16.203  0.4584 -0.6192  0.6348
 4675TIP3    H235517   2.171   0.977  16.169 -0.6978  0.0158 -1.3939
 4676TIP3   OH235518   1.216   2.490   3.923  0.7986  0.3026 -0.7498
 4676TIP3    H135519   1.296   2.520   3.966 -0.5199  1.7132  0.8667
 4676TIP3    H235520   1.166   2.570   3.907 -0.1037 -0.5054 -2.1566
 4677TIP3   OH235521   3.946   2.311   2.881 -0.4966 -0.3161 -0.2200
 4677TIP3    H135522   3.858   2.349   2.887 -0.7826 -1.0358  0.4649
 4677TIP3    H235523   3.938   2.227   2.926  0.8665  0.1660  0.9949
 4678TIP3   OH235524   2.703   1.964  13.240  0.1428 -0.0947  0.3021
 4678TIP3    H135525   2.616   1.936  13.211  0.8547 -0.0912 -2.0814
 4678TIP3    H235526   2.687   2.028  13.309 -1.7553  0.1383 -0.3170
 4679TIP3   OH235527   0.419   1.796  17.413 -0.1640  0.8581  0.3831
 4679TIP3    H135528   0.463   1.864  17.463  0.8947  1.2258 -0.9714
 4679TIP3    H235529   0.393   1.839  17.331 -2.3769  0.4365  0.7857
 4680TIP3   OH235530   3.181   4.622   1.774  0.9212  0.1177  0.3624
 4680TIP3    H135531   3.128   4.552   1.811  1.9546 -0.0277  1.6475
 4680TIP3    H235532   3.214   4.586   1.691  0.0266 -0.2373  0.1499
 4681TIP3   OH235533   1.837   0.351  14.566 -0.1017 -0.5930 -0.1595
 4681TIP3    H135534   1.889   0.394  14.634 -2.8649 -0.1008  1.8318
 4681TIP3    H235535   1.805   0.271  14.607 -3.0518  0.4333 -0.2007
 4682TIP3   OH235536   1.626   4.733  13.067 -0.3599 -0.0820  0.6830
 4682TIP3    H135537   1.710   4.688  13.076 -0.2468  0.1461  0.7662
 4682TIP3    H235538   1.611   4.738  12.973  0.2584  0.8706  0.6195
 4683TIP3   OH235539   2.636   3.937  12.485  0.5542 -0.0015 -0.1734
 4683TIP3    H135540   2.633   3.866  12.549  1.7706  1.9920  2.3004
 4683TIP3    H235541   2.661   4.014  12.537  0.4891  1.9940 -2.9062
 4684TIP3   OH235542   3.736   6.118   0.447 -0.3962  0.1939 -0.5791
 4684TIP3    H135543   3.734   6.042   0.388  1.7426 -0.5104  0.1626
 4684TIP3    H235544   3.770   6.084   0.530 -3.1319  1.2019  1.0815
 4685TIP3   OH235545   1.160   3.990   2.683  0.0350 -0.0914 -0.4217
 4685TIP3    H135546   1.223   4.061   2.696 -0.3215  0.3894 -1.2570
 4685TIP3    H235547   1.075   4.030   2.700 -0.2171 -0.1620 -1.4446
 4686TIP3   OH235548   3.724   6.180   3.945 -0.3596  0.1249 -0.2572
 4686TIP3    H135549   3.678   6.259   3.918 -0.5618  0.8389  2.0353
 4686TIP3    H235550   3.691   6.160   4.032  0.9767 -1.4858 -0.0505
 4687TIP3   OH235551   4.179   5.824  12.915 -0.4020 -0.5752 -0.1972
 4687TIP3    H135552   4.259   5.812  12.864 -0.3335  0.6204 -0.3938
 4687TIP3    H235553   4.160   5.917  12.908 -1.3495 -0.6997  0.5498
 4688TIP3   OH235554   6.147   3.809   4.383  0.3035 -0.5208  0.0523
 4688TIP3    H135555   6.106   3.797   4.297 -0.7988 -0.6172  0.5706
 4688TIP3    H235556   6.109   3.890   4.416  1.3886 -0.0164  0.0928
 4689TIP3   OH235557   4.236   5.584  13.930 -0.1987 -0.1060 -0.2099
 4689TIP3    H135558   4.325   5.566  13.961  0.3792  1.8121 -0.6629
 4689TIP3    H235559   4.189   5.611  14.009 -0.4284 -1.1863  0.0423
 4690TIP3   OH235560   5.890   6.009   3.993 -0.4814  0.1225 -0.0623
 4690TIP3    H135561   5.917   6.032   3.904  0.4872 -0.3861  0.0815
 4690TIP3    H235562   5.907   5.915   3.999  0.6708  0.3806  1.0665
 4691TIP3   OH235563   4.357   5.423  17.418 -0.4206  0.4161 -0.1229
 4691TIP3    H135564   4.386   5.332  17.419 -3.0462 -0.5306  1.2879
 4691TIP3    H235565   4.307   5.431  17.337  1.0069  1.0880 -0.9684
 4692TIP3   OH235566   1.776   0.571  11.553  0.1341  0.1708 -0.0969
 4692TIP3    H135567   1.796   0.640  11.490  1.6153  0.4019  0.5922
 4692TIP3    H235568   1.824   0.495  11.521 -0.7975 -0.3154 -0.3770
 4693TIP3   OH235569   0.967   4.794   6.250  1.1601 -0.3805  0.2737
 4693TIP3    H135570   1.013   4.719   6.212  3.2041 -0.2604  2.2933
 4693TIP3    H235571   0.922   4.759   6.327 -0.3031 -0.0248 -0.3727
 4694TIP3   OH235572   1.443   5.585  16.352  0.2555 -0.1106 -0.2399
 4694TIP3    H135573   1.494   5.520  16.303 -0.0314  0.0366 -0.7375
 4694TIP3    H235574   1.487   5.668  16.333 -1.1721  0.2697 -2.0750
 4695TIP3   OH235575   3.888   6.398  15.475  0.7596  0.0905  0.3108
 4695TIP3    H135576   3.905   6.304  15.481 -0.3145 -0.0749  0.9305
 4695TIP3    H235577   3.905   6.431  15.564 -0.1362  0.2565  0.4238
 4696TIP3   OH235578   1.246   3.655   4.351  0.1379  0.2088  0.3425
 4696TIP3    H135579   1.304   3.580   4.359  0.1727  0.0098 -1.4304
 4696TIP3    H235580   1.203   3.661   4.436  1.3500 -0.7856  1.0644
 4697TIP3   OH235581   3.504   6.069   2.285  0.1659  0.1175 -0.0465
 4697TIP3    H135582   3.505   5.975   2.266 -0.8053 -0.4175  2.2678
 4697TIP3    H235583   3.430   6.103   2.235  0.7733 -0.2215 -1.2307
 4698TIP3   OH235584   1.153   4.464   1.231  0.4742 -0.0819 -0.1777
 4698TIP3    H135585   1.093   4.485   1.303 -0.5001 -2.9625 -0.0180
 4698TIP3    H235586   1.234   4.437   1.274  0.4518 -0.1955 -0.2045
 4699TIP3   OH235587   2.793   4.060   1.668 -0.4306  0.1867 -0.0871
 4699TIP3    H135588   2.771   3.967   1.660 -3.1489  0.8016 -0.6794
 4699TIP3    H235589   2.889   4.062   1.662 -0.3782 -2.3870 -2.1883
 4700TIP3   OH235590   1.079   0.882  12.510 -0.5350 -0.3425  0.6884
 4700TIP3    H135591   1.158   0.935  12.522 -0.3778 -0.3199 -0.3401
 4700TIP3    H235592   1.050   0.903  12.421 -1.3536 -0.8198  0.8370
 4701TIP3   OH235593   1.661   3.653   2.476 -0.1020  0.4318  0.3104
 4701TIP3    H135594   1.677   3.733   2.526  1.1211 -0.4963  1.5037
 4701TIP3    H235595   1.578   3.620   2.510  1.0843 -0.6028  2.4350
 4702TIP3   OH235596   6.414   1.821  15.447  0.2693 -0.2487 -0.4358
 4702TIP3    H135597   6.490   1.855  15.400  0.2409 -1.2764 -1.2753
 4702TIP3    H235598   6.353   1.894  15.451  1.2463  0.5486  0.1352
 4703TIP3   OH235599   4.305   4.102   4.672  0.7754 -0.2452  0.3594
 4703TIP3    H135600   4.285   4.167   4.739 -0.1393 -0.1112 -0.0268
 4703TIP3    H235601   4.388   4.131   4.634  0.7050  0.3333  0.6405
 4704TIP3   OH235602   3.051   4.159   2.298 -0.3803  0.6637 -0.1540
 4704TIP3    H135603   2.977   4.108   2.331 -1.0061  2.6020  1.7311
 4704TIP3    H235604   3.119   4.146   2.364  0.4931 -0.0074 -1.1658
 4705TIP3   OH235605   4.687   4.148  15.540 -0.0394 -0.2222 -0.4965
 4705TIP3    H135606   4.635   4.165  15.619 -1.2083 -1.8692 -0.8733
 4705TIP3    H235607   4.668   4.223  15.483  0.7159  0.9189  0.7024
 4706TIP3   OH235608   5.756   6.575  13.521 -0.4446 -0.1122  0.0549
 4706TIP3    H135609   5.727   6.539  13.605  0.6268  0.1434  0.5512
 4706TIP3    H235610   5.723   6.513  13.456  0.7749 -1.6565  0.8351
 4707TIP3   OH235611   4.614   5.237  13.043 -0.0124 -0.4099 -0.0332
 4707TIP3    H135612   4.592   5.177  13.114 -0.6703 -1.2304 -0.8984
 4707TIP3    H235613   4.536   5.238  12.987  0.7328 -0.3168 -1.0993
 4708TIP3   OH235614   5.036   0.227  14.532  0.0977 -0.9853  0.3375
 4708TIP3    H135615   5.069   0.140  14.557  0.5216 -0.7826  0.5031
 4708TIP3    H235616   4.965   0.209  14.471 -0.2353 -1.4673  0.8471
 4709TIP3   OH235617   1.915   0.044  12.765  0.1246  0.8439  0.1253
 4709TIP3    H135618   1.945   0.081  12.848  1.1343  1.0797 -0.3330
 4709TIP3    H235619   1.972  -0.032  12.751 -0.3274  0.5543 -0.1457
 4710TIP3   OH235620   3.988   0.105  17.121 -0.5044  0.2662  0.2024
 4710TIP3    H135621   3.895   0.102  17.098 -0.5934  1.1079  0.3856
 4710TIP3    H235622   3.997   0.187  17.170  0.5494  0.7622 -0.7769
 4711TIP3   OH235623   6.730   6.132   4.698  0.1752  0.4598  0.2471
 4711TIP3    H135624   6.688   6.055   4.736  1.3571  0.5631  1.8910
 4711TIP3    H235625   6.823   6.109   4.695  0.1700  0.5463 -2.4973
 4712TIP3   OH235626   1.416   2.514   0.016  0.0616 -0.1813 -0.3422
 4712TIP3    H135627   1.489   2.458   0.040 -0.2259 -0.6501 -0.5411
 4712TIP3    H235628   1.407   2.502  -0.079 -0.8484 -0.8302 -0.1822
 4713TIP3   OH235629   2.864   5.111   4.725 -0.4127 -0.1725  0.4989
 4713TIP3    H135630   2.952   5.074   4.732 -0.7254 -1.0162  0.0846
 4713TIP3    H235631   2.871   5.178   4.657  0.6778  2.1617  2.7428
 4714TIP3   OH235632   0.751   3.720   2.237 -0.4308  0.5322  0.5219
 4714TIP3    H135633   0.714   3.668   2.308  0.9854 -0.7957  0.3413
 4714TIP3    H235634   0.701   3.801   2.238 -1.2551  0.0460  2.2289
 4715TIP3   OH235635   2.297   3.100   4.438 -0.2754 -0.2619  0.5283
 4715TIP3    H135636   2.294   3.028   4.500  1.9804  0.3109  1.3799
 4715TIP3    H235637   2.348   3.067   4.364  0.0922  0.2138  0.5676
 4716TIP3   OH235638   3.973   1.793  14.774 -0.5104 -0.0233  0.3075
 4716TIP3    H135639   4.066   1.782  14.753 -0.7122  0.0046 -0.6397
 4716TIP3    H235640   3.941   1.854  14.707 -1.5624 -1.2469 -0.3434
 4717TIP3   OH235641   6.266   5.250  13.885 -0.7696  0.3793 -0.6850
 4717TIP3    H135642   6.178   5.244  13.924  0.0688  1.2062  1.4815
 4717TIP3    H235643   6.316   5.183  13.932  0.4998  2.0117  0.3973
 4718TIP3   OH235644   2.590   5.621  13.521  0.0130  0.2757  0.1893
 4718TIP3    H135645   2.671   5.586  13.484  0.4874  0.6988  0.8095
 4718TIP3    H235646   2.602   5.716  13.516 -0.6003  0.3426 -0.0407
 4719TIP3   OH235647   3.130   3.769  12.754 -0.7086  0.2932  0.3728
 4719TIP3    H135648   3.072   3.820  12.698 -1.1855  0.5534  1.0947
 4719TIP3    H235649   3.185   3.719  12.693 -1.3602  0.4082 -0.3156
 4720TIP3   OH235650   1.702   4.139   4.887  0.2447 -0.3806  0.2848
 4720TIP3    H135651   1.663   4.217   4.848  0.9826 -0.1152  0.0702
 4720TIP3    H235652   1.788   4.167   4.918  0.8005 -1.2433 -0.3814
 4721TIP3   OH235653   2.499   3.049  13.311 -0.4483 -0.4060  0.1525
 4721TIP3    H135654   2.507   3.065  13.405 -2.6638 -3.0426  0.9204
 4721TIP3    H235655   2.424   3.103  13.284  0.0628  0.1957 -0.1041
 4722TIP3   OH235656   1.003   3.872   3.073  0.0870 -0.4972 -0.1702
 4722TIP3    H135657   0.977   3.933   3.142  0.7186 -0.9818  0.5153
 4722TIP3    H235658   0.950   3.794   3.090 -0.7493 -0.1478 -1.0692
 4723TIP3   OH235659   3.777   6.625  17.115  0.0233  0.2280  0.4824
 4723TIP3    H135660   3.756   6.578  17.195 -1.3035 -0.8883 -0.4635
 4723TIP3    H235661   3.706   6.688  17.104  0.8968  1.2922  0.8584
 4724TIP3   OH235662   6.270   2.128  15.699  0.1342  0.2184 -0.3270
 4724TIP3    H135663   6.245   2.058  15.758  1.0242 -1.1137 -1.4772
 4724TIP3    H235664   6.239   2.208  15.743 -0.1507 -0.7879  1.4155
 4725TIP3   OH235665   0.845   2.407   2.495  0.9109  0.2746  0.1247
 4725TIP3    H135666   0.839   2.319   2.457 -2.3010 -1.0133  3.0838
 4725TIP3    H235667   0.937   2.415   2.521  1.6518 -1.4925 -1.6315
 4726TIP3   OH235668   6.168   5.612  17.239  0.0186 -0.2256  0.7394
 4726TIP3    H135669   6.177   5.599  17.333 -1.2190 -3.1259  0.5605
 4726TIP3    H235670   6.177   5.524  17.201  0.9890  0.9038 -1.9276
 4727TIP3   OH235671   1.319   5.862   2.771  0.0508  0.0439  0.0884
 4727TIP3    H135672   1.299   5.771   2.794 -0.3569  0.1126  0.0122
 4727TIP3    H235673   1.388   5.888   2.833  1.1591 -0.7504 -0.7564
 4728TIP3   OH235674   3.654   1.033   3.677 -0.6689  0.0953 -0.1048
 4728TIP3    H135675   3.656   0.988   3.762  0.4800 -0.6259 -0.4847
 4728TIP3    H235676   3.590   1.103   3.688 -2.7211 -1.7661  0.4391
 4729TIP3   OH235677   4.843   3.161  15.769 -0.1153  0.0267  0.2270
 4729TIP3    H135678   4.886   3.158  15.855 -0.8832 -1.4171  0.6050
 4729TIP3    H235679   4.763   3.109  15.781 -0.1650 -0.3169 -1.3957
 4730TIP3   OH235680   3.760   6.597   4.013 -0.5354 -0.2193 -0.8889
 4730TIP3    H135681   3.769   6.523   4.073 -2.7769  0.1489 -0.0167
 4730TIP3    H235682   3.667   6.616   4.011 -0.0971  2.2407 -1.5239
 4731TIP3   OH235683   5.612   0.440   3.633 -0.0339 -0.4967  0.3389
 4731TIP3    H135684   5.573   0.527   3.647  0.3680 -0.1623 -0.5428
 4731TIP3    H235685   5.643   0.442   3.543 -0.4086 -1.7231  0.1599
 4732TIP3   OH235686   6.008   4.765   2.277  0.8126  0.1915 -0.3323
 4732TIP3    H135687   6.060   4.690   2.247  1.9275  1.2518 -1.1920
 4732TIP3    H235688   5.933   4.767   2.217  1.3764  0.4089 -1.0573
 4733TIP3   OH235689   6.009   2.837   3.167 -0.0923  0.2761  0.3401
 4733TIP3    H135690   6.059   2.911   3.131  0.8865 -0.5086  0.0287
 4733TIP3    H235691   5.960   2.875   3.240 -1.8763  1.8308 -1.5553
 4734TIP3   OH235692   1.627   4.830   1.962  0.5362 -0.1670  0.8246
 4734TIP3    H135693   1.612   4.739   1.986 -1.1600 -0.2890 -0.5016
 4734TIP3    H235694   1.700   4.826   1.900  2.0377 -0.3119  2.5322
 4735TIP3   OH235695   4.013   0.901   0.220 -0.0472 -0.2968  0.6233
 4735TIP3    H135696   4.038   0.989   0.193 -3.2391  0.6898  0.5569
 4735TIP3    H235697   3.926   0.911   0.258 -1.5643 -3.6819 -1.4546
 4736TIP3   OH235698   5.023   6.609  11.660 -0.3994 -0.5264  0.7784
 4736TIP3    H135699   4.953   6.641  11.602 -0.3134 -2.4149 -0.4642
 4736TIP3    H235700   4.976   6.575  11.736 -0.8894 -1.9280 -0.1167
 4737TIP3   OH235701   2.832   4.775  16.417  0.1222  0.1866 -0.1825
 4737TIP3    H135702   2.778   4.718  16.472 -0.8160  0.6526 -0.5841
 4737TIP3    H235703   2.780   4.855  16.409  1.0484  0.7912 -0.2974
 4738TIP3   OH235704   4.500   6.023  13.812  0.1018  0.5412  0.1341
 4738TIP3    H135705   4.493   6.109  13.771 -0.9532 -0.0990 -1.0904
 4738TIP3    H235706   4.548   5.970  13.748 -1.0777 -0.3246 -0.0484
 4739TIP3   OH235707   5.416   4.998   2.750  0.3112  0.3957  0.0469
 4739TIP3    H135708   5.381   4.931   2.808 -1.8618  0.2710 -1.2821
 4739TIP3    H235709   5.339   5.047   2.720  1.3501  0.7069 -2.3830
 4740TIP3   OH235710   3.950   2.669  17.521  0.1756 -0.1774  0.6667
 4740TIP3    H135711   3.971   2.648  17.430 -1.6795 -0.0572  0.1689
 4740TIP3    H235712   3.880   2.607  17.544 -1.3895  1.6284  1.0374
 4741TIP3   OH235713   2.114   5.306  16.502  0.2056 -0.1195 -0.5087
 4741TIP3    H135714   2.113   5.221  16.459 -0.1793 -0.1214 -0.5000
 4741TIP3    H235715   2.022   5.333  16.503  0.1291 -0.3864  0.8513
 4742TIP3   OH235716   4.576   6.177   6.146  0.2970 -0.2765  0.2066
 4742TIP3    H135717   4.574   6.089   6.185 -2.5799  0.5895  2.3110
 4742TIP3    H235718   4.574   6.237   6.221 -2.0498  1.5087 -1.1472
 4743TIP3   OH235719   1.305   4.789  14.325 -0.2494  0.2247 -0.2302
 4743TIP3    H135720   1.398   4.764  14.319  0.8076  3.5958 -0.3517
 4743TIP3    H235721   1.276   4.792  14.234  0.3343  1.4960 -0.4114
 4744TIP3   OH235722   5.478   5.274   2.834  0.1000 -0.1168  0.2627
 4744TIP3    H135723   5.468   5.188   2.792  1.1325  0.1932 -0.6479
 4744TIP3    H235724   5.572   5.291   2.832  0.2067 -0.0550  2.6946
 4745TIP3   OH235725   4.904   2.091   1.465 -0.1419 -0.1321  0.1073
 4745TIP3    H135726   4.888   1.997   1.473  1.7615 -0.4548  0.8262
 4745TIP3    H235727   4.970   2.098   1.396 -0.2670  0.6677  0.0634
 4746TIP3   OH235728   1.074   3.361  12.991 -0.1555  0.1356 -0.6366
 4746TIP3    H135729   1.098   3.269  12.998  0.3094  0.2447 -0.7360
 4746TIP3    H235730   1.017   3.365  12.915 -0.0663 -0.0511 -0.7152
 4747TIP3   OH235731   1.108   1.663   3.832  0.1942  0.3626  0.2803
 4747TIP3    H135732   1.148   1.602   3.770 -1.3677 -1.3255  0.8107
 4747TIP3    H235733   1.044   1.711   3.780 -0.5059 -0.4410  0.3671
 4748TIP3   OH235734   2.993   3.944  14.763 -0.4515  1.1310  0.1326
 4748TIP3    H135735   2.928   3.992  14.815 -0.1128  2.3984 -0.5676
 4748TIP3    H235736   3.007   3.999  14.686 -0.3799 -0.3335 -0.9377
 4749TIP3   OH235737   4.867   3.191  16.828 -1.1555  0.1979  0.0296
 4749TIP3    H135738   4.938   3.225  16.773  0.2098 -0.0776  1.5220
 4749TIP3    H235739   4.794   3.178  16.768  1.1073 -2.9219 -2.4512
 4750TIP3   OH235740   5.929   0.079  17.050  0.2517 -0.3182  0.0385
 4750TIP3    H135741   5.992   0.149  17.064  2.3982 -2.3524  1.2447
 4750TIP3    H235742   5.961   0.031  16.974  0.5757 -1.7516  1.0379
 4751TIP3   OH235743   5.878   5.989  14.598  0.0379  0.1615  0.1894
 4751TIP3    H135744   5.877   5.898  14.567  2.3303  0.5334 -1.2455
 4751TIP3    H235745   5.951   5.992  14.660 -1.2818  0.6201  1.7853
 4752TIP3   OH235746   4.553   5.111  14.838 -0.1822 -0.2848 -0.6055
 4752TIP3    H135747   4.597   5.028  14.821  0.6295 -0.2833  1.2797
 4752TIP3    H235748   4.460   5.087  14.846 -0.1321 -0.7862 -1.4028
 4753TIP3   OH235749   1.842   3.896   3.485 -0.7735  0.5678 -0.5478
 4753TIP3    H135750   1.887   3.973   3.520  0.1419 -0.6326  1.0961
 4753TIP3    H235751   1.814   3.847   3.563 -0.4915 -1.2193 -1.5122
 4754TIP3   OH235752   4.591   5.864   2.629  0.1258 -0.7288 -0.4784
 4754TIP3    H135753   4.613   5.922   2.701 -1.9091 -0.7431  0.2150
 4754TIP3    H235754   4.542   5.919   2.567  1.4835 -0.8161 -1.6663
 4755TIP3   OH235755   3.047   5.803  15.254 -0.3811  0.0820  0.7068
 4755TIP3    H135756   3.116   5.767  15.310 -0.7432  1.1590  1.8798
 4755TIP3    H235757   3.094   5.851  15.186  0.1107 -2.2908 -0.7640
 4756TIP3   OH235758   6.028   6.709  14.646  0.2493  0.2560  0.2747
 4756TIP3    H135759   6.059   6.620  14.630 -2.6591 -0.8110  0.0182
 4756TIP3    H235760   6.040   6.722  14.740  0.8262 -0.3629  0.2950
 4757TIP3   OH235761   3.471   5.065   0.371 -0.3070 -0.2966  0.4112
 4757TIP3    H135762   3.522   5.134   0.329 -1.2546  0.3842  0.3461
 4757TIP3    H235763   3.380   5.087   0.352 -0.7315 -0.4132  2.1569
 4758TIP3   OH235764   6.474   1.671   2.874  0.6860 -0.1156 -0.1665
 4758TIP3    H135765   6.557   1.634   2.904  0.4087 -1.7693 -1.2854
 4758TIP3    H235766   6.412   1.650   2.944  0.9659  0.0897  0.1468
 4759TIP3   OH235767   2.459   5.876  15.726  0.1795 -0.4214 -0.6295
 4759TIP3    H135768   2.454   5.898  15.819 -2.5222 -0.6870 -0.6239
 4759TIP3    H235769   2.541   5.916  15.696  2.2130 -2.0134  2.2236
 4760TIP3   OH235770   6.345   5.447   2.084  0.1418  0.5733 -0.0363
 4760TIP3    H135771   6.400   5.384   2.037  0.5448  0.4760  0.5533
 4760TIP3    H235772   6.331   5.518   2.022 -0.7196 -0.3038 -0.8889
 4761TIP3   OH235773   1.294   3.163   1.282 -0.4627 -0.0178  0.0944
 4761TIP3    H135774   1.243   3.093   1.243  1.8564 -1.0093 -1.3636
 4761TIP3    H235775   1.261   3.243   1.241 -0.0166 -0.7633 -1.8101
 4762TIP3   OH235776   2.039   2.811  12.097  0.3041 -0.5312 -0.5224
 4762TIP3    H135777   1.970   2.763  12.052 -0.1400 -1.5519  1.1523
 4762TIP3    H235778   2.120   2.787  12.051 -0.2045 -0.9734 -1.1975
 4763TIP3   OH235779   0.387   0.999  17.378 -0.1246  0.5727 -0.4046
 4763TIP3    H135780   0.309   1.037  17.420 -1.2426  0.2293 -2.0559
 4763TIP3    H235781   0.461   1.044  17.418 -1.2759  2.4251 -0.2596
 4764TIP3   OH235782   3.184   5.324   2.002 -0.7234 -0.0375  0.0377
 4764TIP3    H135783   3.089   5.329   2.015 -0.9361 -0.6226 -1.1578
 4764TIP3    H235784   3.218   5.406   2.036 -1.7009  0.3259  0.1585
 4765TIP3   OH235785   3.333   6.333  11.401  0.4773 -0.7595 -0.2124
 4765TIP3    H135786   3.297   6.406  11.351 -0.0488 -0.7571  0.1551
 4765TIP3    H235787   3.281   6.331  11.482  0.6200 -1.4089 -0.1254
 4766TIP3   OH235788   6.255   0.249  15.494 -0.1205 -0.1578 -0.4511
 4766TIP3    H135789   6.295   0.246  15.581 -0.9680 -0.5676 -0.0604
 4766TIP3    H235790   6.232   0.158  15.475 -0.8662  0.0654 -0.6514
 4767TIP3   OH235791   2.868   2.334   1.221  0.0731  0.0972  0.1860
 4767TIP3    H135792   2.790   2.312   1.171 -0.2214 -1.2722  1.1901
 4767TIP3    H235793   2.841   2.407   1.277  0.4714  1.8016 -1.7125
 4768TIP3   OH235794   4.117   3.966  16.247 -0.2160 -0.0300 -0.4604
 4768TIP3    H135795   4.098   3.933  16.159  1.8225 -0.2752 -0.8471
 4768TIP3    H235796   4.168   4.046  16.232 -0.1135  0.0930  0.5029
 4769TIP3   OH235797   3.004   0.148  17.565 -0.2737 -0.0276 -0.0669
 4769TIP3    H135798   3.050   0.064  17.570 -0.7903 -0.2841  0.5683
 4769TIP3    H235799   3.073   0.214  17.559  0.1268 -0.5126 -0.8364
 4770TIP3   OH235800   2.279   6.461   0.404 -0.0096  0.6844 -0.3512
 4770TIP3    H135801   2.310   6.527   0.466  1.1104 -0.0509 -0.1017
 4770TIP3    H235802   2.358   6.431   0.359 -0.0737 -2.0995  1.1188
 4771TIP3   OH235803   3.892   1.399   1.702 -0.0430  0.6198  0.4841
 4771TIP3    H135804   3.850   1.481   1.676  2.1055  1.5307 -0.4069
 4771TIP3    H235805   3.926   1.416   1.790  0.3433  0.6881  0.3262
 4772TIP3   OH235806   0.781   1.902  16.363 -0.1390 -0.2638 -0.1036
 4772TIP3    H135807   0.736   1.818  16.360  0.0469 -0.3555 -0.4068
 4772TIP3    H235808   0.772   1.937  16.274 -0.0313 -0.0601 -0.0357
 4773TIP3   OH235809   1.278   4.872  16.550  0.2668  0.1251  0.5344
 4773TIP3    H135810   1.338   4.804  16.522  0.8822  1.1062 -0.6388
 4773TIP3    H235811   1.269   4.929  16.473 -0.5563  1.1309  1.3441
 4774TIP3   OH235812   4.462   4.445   2.375  0.0496 -0.4815  0.2359
 4774TIP3    H135813   4.474   4.453   2.470 -0.2253  0.3093  0.2126
 4774TIP3    H235814   4.400   4.372   2.365 -0.3856 -0.1824  0.6956
 4775TIP3   OH235815   5.336   0.001   3.063 -0.0867  0.2346  0.0311
 4775TIP3    H135816   5.334  -0.057   2.987 -0.8913 -0.8694  0.8678
 4775TIP3    H235817   5.349   0.089   3.026 -1.0983 -0.1969 -1.4168
 4776TIP3   OH235818   4.189   2.729   4.576 -0.0270 -0.3006  0.4890
 4776TIP3    H135819   4.119   2.753   4.516  1.5871  1.5156 -0.8071
 4776TIP3    H235820   4.145   2.710   4.659 -2.1591 -1.0782 -0.7368
 4777TIP3   OH235821   1.022   4.686  16.052  0.0588 -0.2459 -0.4102
 4777TIP3    H135822   0.950   4.747  16.037  0.0074 -0.4033 -0.8248
 4777TIP3    H235823   1.021   4.629  15.975 -0.7138 -1.5824  0.5411
 4778TIP3   OH235824   1.005   0.208   1.319 -0.2823  0.0430 -0.4207
 4778TIP3    H135825   1.084   0.193   1.266 -0.4308 -0.2717 -0.5559
 4778TIP3    H235826   1.036   0.256   1.395  0.0529 -0.1330 -0.4433
 4779TIP3   OH235827   5.118   0.741   0.129  0.3722 -0.1611 -0.7503
 4779TIP3    H135828   5.062   0.673   0.091  1.1298 -1.0362 -0.3604
 4779TIP3    H235829   5.078   0.823   0.102 -2.0345 -0.7002  0.8573
 4780TIP3   OH235830   4.896   0.566   4.544 -0.0785 -0.2603 -0.1728
 4780TIP3    H135831   4.954   0.565   4.468 -0.1189  2.4452 -0.3327
 4780TIP3    H235832   4.955   0.566   4.620  0.0117 -1.1122 -0.2385
 4781TIP3   OH235833   2.294   6.334  13.342  0.0284  0.4816 -0.1478
 4781TIP3    H135834   2.223   6.272  13.360  0.8176 -0.6794 -0.8486
 4781TIP3    H235835   2.363   6.310  13.405  0.2743  0.7738 -0.3004
 4782TIP3   OH235836   5.697   5.829  12.964  0.5627 -0.0702 -0.3661
 4782TIP3    H135837   5.692   5.764  12.894 -1.1765 -0.5564  0.1601
 4782TIP3    H235838   5.761   5.793  13.025  0.7213 -0.5566 -0.8065
 4783TIP3   OH235839   2.761   3.968  12.061  0.1235 -0.2283  1.0928
 4783TIP3    H135840   2.749   4.022  12.140  1.0147 -1.2154  1.9310
 4783TIP3    H235841   2.744   3.878  12.091  2.5934 -0.8822  0.6922
 4784TIP3   OH235842   1.572   1.434   4.373  0.0483 -0.2040  0.5597
 4784TIP3    H135843   1.477   1.447   4.382  0.0333 -0.4190  0.7159
 4784TIP3    H235844   1.589   1.351   4.417  0.4035  0.1236  1.0492
 4785TIP3   OH235845   6.449   2.894  15.339 -0.1124 -0.0432 -0.1145
 4785TIP3    H135846   6.393   2.817  15.347  0.4555 -0.6313 -1.4589
 4785TIP3    H235847   6.443   2.918  15.246  1.7884 -0.0861 -0.2760
 4786TIP3   OH235848   4.088   2.253   4.779 -0.5152 -0.0079 -0.6032
 4786TIP3    H135849   4.097   2.158   4.770 -0.0822 -0.1656  1.0587
 4786TIP3    H235850   4.027   2.265   4.851  0.0321  0.9660 -0.2759
 4787TIP3   OH235851   1.509   2.435   3.814  0.6335  0.5467 -0.4689
 4787TIP3    H135852   1.464   2.509   3.774 -0.6006 -0.4952 -1.1028
 4787TIP3    H235853   1.586   2.473   3.855 -0.6498  2.3978  0.3992
 4788TIP3   OH235854   5.945   6.502   0.526  0.2293 -0.2794  0.3210
 4788TIP3    H135855   5.897   6.511   0.443 -1.2718 -3.9273  0.6080
 4788TIP3    H235856   6.035   6.486   0.499 -0.4293 -2.5399 -0.7667
 4789TIP3   OH235857   1.811   2.484  13.736  0.3340 -0.7896  0.3095
 4789TIP3    H135858   1.874   2.411  13.729  1.4870  0.2664 -1.0997
 4789TIP3    H235859   1.802   2.499  13.830 -0.2364 -2.9674  0.6651
 4790TIP3   OH235860   6.391   2.188  16.482  0.2288  0.2360  0.3961
 4790TIP3    H135861   6.404   2.248  16.409 -1.0789 -0.0386 -0.1055
 4790TIP3    H235862   6.299   2.200  16.507 -0.0178 -1.3699  0.4071
 4791TIP3   OH235863   4.737   1.986  15.244 -0.3984  0.2197  0.3039
 4791TIP3    H135864   4.811   1.945  15.289 -0.1776 -0.5304 -0.6955
 4791TIP3    H235865   4.691   2.034  15.312  0.3889 -0.2017  1.1588
 4792TIP3   OH235866   1.988   0.898   3.999  0.3568  0.4805  0.3972
 4792TIP3    H135867   1.893   0.900   4.016 -0.0794 -1.3898 -1.4449
 4792TIP3    H235868   1.995   0.885   3.905  2.5331  2.5819  0.1826
 4793TIP3   OH235869   2.292   2.642   6.463  0.1388 -0.3299 -0.1245
 4793TIP3    H135870   2.295   2.547   6.474  2.2913 -0.5157 -1.5374
 4793TIP3    H235871   2.334   2.677   6.541  0.9531 -0.6763 -0.3944
 4794TIP3   OH235872   4.753   5.206   2.409  0.5814  0.2348  0.0379
 4794TIP3    H135873   4.690   5.251   2.465  0.1874  0.0409 -0.2469
 4794TIP3    H235874   4.735   5.238   2.321  0.3106 -0.4446 -0.1658
 4795TIP3   OH235875   5.474   4.332  17.275  0.2703  0.2922 -0.3184
 4795TIP3    H135876   5.550   4.371  17.231 -1.6638  2.7826 -1.7283
 4795TIP3    H235877   5.418   4.302  17.203 -0.0516 -1.6243  0.6893
 4796TIP3   OH235878   3.763   2.514  15.918 -0.0019 -0.5583  0.0736
 4796TIP3    H135879   3.676   2.498  15.953  0.5551 -0.6159  1.5042
 4796TIP3    H235880   3.783   2.604  15.944  0.8844 -0.9930  0.9759
 4797TIP3   OH235881   1.652   0.211   2.907 -0.9664 -0.2337 -0.2184
 4797TIP3    H135882   1.619   0.288   2.861 -1.6833 -0.2419  0.2676
 4797TIP3    H235883   1.698   0.160   2.840 -0.0961  0.8241 -0.4625
 4798TIP3   OH235884   5.605   4.479  11.586 -0.2687  0.2326 -0.0648
 4798TIP3    H135885   5.569   4.503  11.671 -2.0302  2.2813 -1.2959
 4798TIP3    H235886   5.645   4.560  11.553  2.3085 -1.0518 -0.3549
 4799TIP3   OH235887   5.585   6.674   1.590  0.0678 -0.2438 -0.7736
 4799TIP3    H135888   5.577   6.580   1.573  0.0333 -0.3627 -0.1032
 4799TIP3    H235889   5.637   6.680   1.669  1.0989  0.3458 -1.4809
 4800TIP3   OH235890   3.661   4.783  11.942  0.6616 -0.1493 -0.3103
 4800TIP3    H135891   3.743   4.831  11.948 -1.2134  3.3026  0.1515
 4800TIP3    H235892   3.613   4.827  11.871 -1.3075 -1.2037  0.2992
 4801TIP3   OH235893   3.554   5.691  10.772 -0.8551  0.1022 -0.1026
 4801TIP3    H135894   3.584   5.781  10.763 -1.3381  0.2630 -0.1507
 4801TIP3    H235895   3.537   5.680  10.866  0.2950 -0.3018  0.0690
 4802TIP3   OH235896   5.061   3.439  11.750 -0.4398  0.3135  0.1568
 4802TIP3    H135897   5.078   3.459  11.841 -1.5885 -0.3237  0.5359
 4802TIP3    H235898   5.084   3.519  11.703  0.3759  0.5680  0.9706
 4803TIP3   OH235899   3.843   4.940  12.446  0.3389 -0.0728  0.6702
 4803TIP3    H135900   3.861   4.885  12.370 -1.3755 -0.1210  0.2623
 4803TIP3    H235901   3.871   5.027  12.419 -0.4959 -0.0389 -0.1409
 4804TIP3   OH235902   1.074   5.617   4.195  0.0976  0.5981 -0.2386
 4804TIP3    H135903   1.070   5.712   4.180 -0.8754  0.9761  2.0460
 4804TIP3    H235904   0.994   5.583   4.154 -0.1535  0.9358 -0.0334
 4805TIP3   OH235905   3.736   5.735  15.821  0.0199  0.5465  0.4027
 4805TIP3    H135906   3.649   5.768  15.799 -0.1231 -1.1367 -1.8895
 4805TIP3    H235907   3.720   5.660  15.878  0.0927  1.3063  1.4468
 4806TIP3   OH235908   1.394   1.951   5.500 -0.1149  0.0576 -0.0191
 4806TIP3    H135909   1.333   1.940   5.572  0.1942 -1.1989  0.0729
 4806TIP3    H235910   1.453   2.022   5.528  1.0893 -1.5611  1.7504
 4807TIP3   OH235911   6.333   1.731  12.339  0.0890 -0.1725  0.1996
 4807TIP3    H135912   6.312   1.815  12.298  1.6432  0.1940  0.0983
 4807TIP3    H235913   6.249   1.687  12.349 -0.5777  0.7188 -1.2371
 4808TIP3   OH235914   0.475   6.714   0.883  0.2344  0.4371 -0.0014
 4808TIP3    H135915   0.561   6.716   0.927  0.4300  0.7387 -0.3939
 4808TIP3    H235916   0.494   6.736   0.792 -0.4649  2.3074  0.2563
 4809TIP3   OH235917   3.474   2.294  12.881  0.6718 -0.4074  0.1238
 4809TIP3    H135918   3.551   2.240  12.896  0.8119 -0.1578  0.3135
 4809TIP3    H235919   3.475   2.312  12.787  0.6040 -0.7590  0.0528
 4810TIP3   OH235920   3.375   4.007  14.727 -0.0835 -0.6433  0.6646
 4810TIP3    H135921   3.348   3.922  14.693 -2.0871 -0.2754  1.1622
 4810TIP3    H235922   3.336   4.071  14.667  1.4654 -0.0554  0.2466
 4811TIP3   OH235923   0.845   4.372  12.246 -0.0267 -0.2981 -0.2793
 4811TIP3    H135924   0.751   4.375  12.226 -0.1388 -1.2233  0.0781
 4811TIP3    H235925   0.869   4.280  12.239  0.4373 -0.3645  1.4777
 4812TIP3   OH235926   2.743   4.586  14.986  0.0712  0.3151 -0.1441
 4812TIP3    H135927   2.658   4.552  15.013  0.7936 -0.5032  1.1748
 4812TIP3    H235928   2.763   4.654  15.050  0.6595  0.1273 -0.1274
 4813TIP3   OH235929   6.437   4.591   4.336  0.1270  0.0654 -0.0929
 4813TIP3    H135930   6.490   4.513   4.351  0.4901  0.7450  2.6106
 4813TIP3    H235931   6.442   4.640   4.418 -1.1521  2.3080 -1.2532
 4814TIP3   OH235932   6.201   2.333   3.468  0.0329  0.2942 -0.5040
 4814TIP3    H135933   6.167   2.420   3.446  0.5262  0.3852 -0.9186
 4814TIP3    H235934   6.227   2.295   3.384  1.1784  0.3258 -0.1852
 4815TIP3   OH235935   4.456   5.159  11.680 -0.0597 -0.4224  0.3147
 4815TIP3    H135936   4.375   5.211  11.682 -0.4737 -1.0710  0.6513
 4815TIP3    H235937   4.430   5.075  11.645  0.7436 -0.2027 -0.8558
 4816TIP3   OH235938   6.691   5.860   0.522 -0.2900  0.9582 -0.0872
 4816TIP3    H135939   6.775   5.839   0.563 -0.2713  0.2821 -0.4561
 4816TIP3    H235940   6.628   5.803   0.566 -0.2012 -0.0796 -1.2641
 4817TIP3   OH235941   4.049   3.552  11.943  0.5678  0.6915 -0.6235
 4817TIP3    H135942   4.102   3.476  11.968 -0.3229  0.2715  0.0613
 4817TIP3    H235943   4.072   3.620  12.006 -0.7180  0.0487  0.6052
 4818TIP3   OH235944   5.786   0.532   4.820  0.0989  0.1636 -0.0395
 4818TIP3    H135945   5.788   0.627   4.830 -1.1839  0.2667 -0.5731
 4818TIP3    H235946   5.743   0.517   4.736  2.4056 -0.8673 -1.1422
 4819TIP3   OH235947   6.474   0.321   3.690 -0.2216  0.0284  0.2965
 4819TIP3    H135948   6.547   0.317   3.629 -1.0068 -1.0635 -0.5991
 4819TIP3    H235949   6.492   0.399   3.743  0.8072  0.6298 -0.8850
 4820TIP3   OH235950   5.017   2.191  13.019 -0.5315  0.0806 -0.1307
 4820TIP3    H135951   5.003   2.285  13.004  1.6235  0.7667  1.5465
 4820TIP3    H235952   4.966   2.172  13.098 -0.2091  0.1048  0.0877
 4821TIP3   OH235953   3.112   3.858   4.626 -0.2664  0.3933  0.0109
 4821TIP3    H135954   3.151   3.946   4.632  0.0002  0.3567 -0.9211
 4821TIP3    H235955   3.040   3.869   4.563 -0.2309 -0.0556 -0.1068
 4822TIP3   OH235956   5.656   0.169  13.374 -0.2661 -0.1351  0.2297
 4822TIP3    H135957   5.580   0.156  13.430 -0.8191 -0.9412 -0.6851
 4822TIP3    H235958   5.650   0.099  13.308  0.6297  0.4937 -0.5436
 4823TIP3   OH235959   1.969   4.792  17.557  0.0500  0.6938  0.5397
 4823TIP3    H135960   2.019   4.714  17.534 -0.2853  0.3570  0.9393
 4823TIP3    H235961   1.877   4.765  17.548 -0.0677  1.0265  0.7183
 4824TIP3   OH235962   6.177   4.953   7.202 -0.2365  0.4242 -0.0150
 4824TIP3    H135963   6.159   4.863   7.178 -0.9581  0.4219  0.5054
 4824TIP3    H235964   6.131   5.006   7.137 -0.4807  0.4185  0.1539
 4825TIP3   OH235965   0.035   2.070   6.126  0.2151  0.2950 -0.1457
 4825TIP3    H135966   0.074   2.064   6.039  0.3736  0.1035 -0.0607
 4825TIP3    H235967   0.012   2.162   6.135 -0.8474  0.1263 -0.8509
 4826TIP3   OH235968   6.382   0.856   5.644 -0.5292 -0.4746 -0.6953
 4826TIP3    H135969   6.302   0.897   5.611 -1.5822 -2.2681 -0.4663
 4826TIP3    H235970   6.439   0.850   5.567 -1.0748 -0.2900 -1.1195
 4827TIP3   OH235971   1.701   0.242  12.932  0.3961 -0.4427 -0.1750
 4827TIP3    H135972   1.694   0.147  12.931 -1.2885 -0.3281 -0.5881
 4827TIP3    H235973   1.783   0.259  12.980  0.1490 -2.0572  0.8836
 4828TIP3   OH235974   1.890   1.100   2.224 -0.5108 -0.3796 -0.0955
 4828TIP3    H135975   1.809   1.051   2.236  0.0621 -0.9265  1.8491
 4828TIP3    H235976   1.862   1.191   2.213 -1.3672 -0.3276  2.1228
 4829TIP3   OH235977   2.008   0.875  15.823  0.4829  0.3024  0.1670
 4829TIP3    H135978   2.083   0.818  15.803  0.2567 -0.0265  0.2508
 4829TIP3    H235979   2.046   0.962  15.832  0.9365  0.0513  0.7352
 4830TIP3   OH235980   4.309   0.904   2.974 -0.1876 -0.3959  0.1514
 4830TIP3    H135981   4.337   0.960   3.047  0.6705 -1.1505  0.4173
 4830TIP3    H235982   4.373   0.833   2.972  0.2285 -0.0324 -1.7853
 4831TIP3   OH235983   5.056   3.698  16.078  0.1645 -0.3372  0.6737
 4831TIP3    H135984   5.003   3.636  16.129 -0.6415 -1.5596 -1.5222
 4831TIP3    H235985   5.125   3.644  16.040 -0.4924  0.0688 -1.2049
 4832TIP3   OH235986   2.572   2.265  13.722 -0.3303 -0.0432  0.9163
 4832TIP3    H135987   2.586   2.203  13.793 -0.1892  0.3460  1.2315
 4832TIP3    H235988   2.514   2.331  13.759  0.4062  0.6086  0.9319
 4833TIP3   OH235989   0.310   4.226   6.448  0.4445 -0.0946 -0.0384
 4833TIP3    H135990   0.320   4.158   6.381  0.8421 -0.2771  0.2047
 4833TIP3    H235991   0.382   4.286   6.432 -0.8240  1.1748 -1.2842
 4834TIP3   OH235992   5.449   5.864   4.540 -0.2148 -0.0525  0.3238
 4834TIP3    H135993   5.444   5.960   4.540 -0.4103 -0.0517  1.3898
 4834TIP3    H235994   5.541   5.845   4.557 -0.3014 -0.0450  0.8222
 4835TIP3   OH235995   4.916   1.446  14.993 -0.0181 -0.1942  0.3429
 4835TIP3    H135996   4.972   1.460  14.917  1.5856 -2.0236  1.1075
 4835TIP3    H235997   4.927   1.353  15.013 -0.2751  0.2764  2.8955
 4836TIP3   OH235998   1.262   3.334   4.196  0.0763 -0.1837  0.0409
 4836TIP3    H135999   1.331   3.286   4.241 -0.1670  0.4131  1.0979
 4836TIP3    H236000   1.199   3.355   4.265 -0.8170 -0.1170 -0.7748
 4837TIP3   OH236001   5.149   0.001  14.633 -0.3600  0.3743  0.2870
 4837TIP3    H136002   5.234   0.038  14.657  1.2981 -2.6564 -0.3998
 4837TIP3    H236003   5.140  -0.076  14.690  0.2683 -2.7495 -3.4452
 4838TIP3   OH236004   0.962   2.443   5.546  0.1467 -0.1823 -0.3902
 4838TIP3    H136005   0.937   2.506   5.614  0.6983  0.3515 -0.6753
 4838TIP3    H236006   1.050   2.414   5.571 -1.2877 -3.3866  1.5867
 4839TIP3   OH236007   3.916   6.536   1.130  0.8610 -0.0315  0.1851
 4839TIP3    H136008   4.001   6.571   1.158  1.0963  0.2506 -0.8564
 4839TIP3    H236009   3.937   6.456   1.084  0.4237 -0.8095  1.2961
 4840TIP3   OH236010   2.782   0.630   3.694 -0.5501  0.8856 -0.6256
 4840TIP3    H136011   2.690   0.626   3.717 -0.3849 -0.3248 -0.0861
 4840TIP3    H236012   2.812   0.539   3.699  1.5541  1.5767  2.8903
 4841TIP3   OH236013   4.614   2.722   0.416 -0.1871  0.2133 -0.0700
 4841TIP3    H136014   4.523   2.695   0.420 -0.1488 -0.0095 -0.6652
 4841TIP3    H236015   4.611   2.814   0.390 -0.3828  1.2940  3.2704
 4842TIP3   OH236016   3.914   6.472   2.175 -0.4637 -0.2747  0.2593
 4842TIP3    H136017   4.005   6.443   2.180 -0.5962 -0.8684 -0.5786
 4842TIP3    H236018   3.896   6.480   2.082 -1.2069  0.0535  0.4180
 4843TIP3   OH236019   4.533   4.994  11.368  0.5256  0.1474  0.2850
 4843TIP3    H136020   4.615   5.020  11.409  0.4546 -0.2455  0.6838
 4843TIP3    H236021   4.486   5.077  11.355 -0.3014  0.1824  2.8532
 4844TIP3   OH236022   0.532   4.821   0.909  0.3493  0.1220 -0.7801
 4844TIP3    H136023   0.470   4.795   0.840  1.1389 -1.3763 -0.9740
 4844TIP3    H236024   0.478   4.828   0.988 -0.1267 -1.0363 -0.9708
 4845TIP3   OH236025   0.697   5.752   6.668  0.0371  0.0255  0.4434
 4845TIP3    H136026   0.633   5.822   6.652 -0.3610 -0.4069  0.1087
 4845TIP3    H236027   0.771   5.774   6.612  0.1221  0.4436  0.7120
 4846TIP3   OH236028   0.603   5.749  11.079  0.1417 -0.0206  0.7464
 4846TIP3    H136029   0.662   5.678  11.054 -0.8428 -0.1972 -1.3408
 4846TIP3    H236030   0.650   5.829  11.056  0.1935 -0.1082  0.5460
 4847TIP3   OH236031   1.192   0.181  13.145  0.4778 -0.8384 -0.2163
 4847TIP3    H136032   1.244   0.216  13.074 -0.0095 -0.7095 -0.5107
 4847TIP3    H236033   1.220   0.230  13.222 -0.3870  0.4169 -0.6634
 4848TIP3   OH236034   1.713   0.031   3.110 -0.3370 -0.4165  0.0463
 4848TIP3    H136035   1.675   0.090   3.045 -0.3923 -2.0794 -1.5273
 4848TIP3    H236036   1.799   0.008   3.074 -0.3860 -1.4194  0.5211
 4849TIP3   OH236037   3.735   3.696   1.617 -0.5253 -0.7381  0.2578
 4849TIP3    H136038   3.763   3.607   1.595  0.5145  0.0249 -1.7866
 4849TIP3    H236039   3.785   3.718   1.696 -1.4489 -2.2322  1.3150
 4850TIP3   OH236040   6.596   1.838   3.900  0.3656  0.2362  0.0803
 4850TIP3    H136041   6.636   1.925   3.897  1.4177 -0.2453 -0.8573
 4850TIP3    H236042   6.506   1.852   3.872  0.8001  0.9126 -1.0979
 4851TIP3   OH236043   1.185   1.651  13.136 -0.2292  0.6633  0.1603
 4851TIP3    H136044   1.277   1.625  13.130 -0.2761  0.2869  0.8853
 4851TIP3    H236045   1.158   1.623  13.224 -1.1814  0.2993 -0.2300
 4852TIP3   OH236046   5.455   4.282  16.862 -0.2593 -0.2647 -0.6639
 4852TIP3    H136047   5.539   4.236  16.863  0.6813  1.3519  1.0562
 4852TIP3    H236048   5.479   4.375  16.870 -2.2159  0.2417 -0.1879
 4853TIP3   OH236049   4.102   0.626   1.435 -0.4982 -0.2591  0.5624
 4853TIP3    H136050   4.183   0.645   1.388 -0.2237 -1.1264  0.6682
 4853TIP3    H236051   4.047   0.582   1.371 -1.0999  0.7992  0.3382
 4854TIP3   OH236052   0.385   2.348   3.904  0.0324  0.5781  0.1003
 4854TIP3    H136053   0.334   2.278   3.864  0.2770  0.6256 -0.3076
 4854TIP3    H236054   0.360   2.347   3.996 -0.1226  0.0950  0.0562
 4855TIP3   OH236055   4.053   3.674   0.246 -0.4101  0.5319 -0.3971
 4855TIP3    H136056   4.024   3.759   0.212  0.9453  1.5939  0.9392
 4855TIP3    H236057   4.145   3.689   0.270  0.4265 -1.8463 -1.8156
 4856TIP3   OH236058   0.138   1.106   1.802 -0.0542 -0.1768  0.0027
 4856TIP3    H136059   0.092   1.165   1.861  1.6302  1.4718 -0.2283
 4856TIP3    H236060   0.176   1.163   1.736  0.1475 -1.7334 -1.3036
 4857TIP3   OH236061   6.197   4.025  14.914  0.1408 -0.6664 -0.5937
 4857TIP3    H136062   6.121   3.971  14.936  0.5662 -0.6580  1.0746
 4857TIP3    H236063   6.159   4.107  14.881 -0.6786 -0.0985  1.5557
 4858TIP3   OH236064   3.443   5.750  16.286 -0.2384  0.0144  0.3597
 4858TIP3    H136065   3.351   5.767  16.270 -0.2191  1.2175  1.3516
 4858TIP3    H236066   3.484   5.754  16.199 -1.2471 -1.6772 -0.2358
 4859TIP3   OH236067   2.884   0.418   2.945 -0.4571 -0.0113  0.9077
 4859TIP3    H136068   2.795   0.405   2.913 -0.6752  0.3065  1.3580
 4859TIP3    H236069   2.936   0.350   2.903 -0.5297  0.9842 -0.8728
 4860TIP3   OH236070   2.532   0.122   4.291  0.0991 -0.5243  0.4627
 4860TIP3    H136071   2.564   0.186   4.355 -0.2045  0.6819 -0.5602
 4860TIP3    H236072   2.500   0.049   4.344 -0.5799  0.6429  1.7042
 4861TIP3   OH236073   6.285   0.665   4.410  0.1931 -0.2264  0.4775
 4861TIP3    H136074   6.250   0.630   4.492  0.1837 -1.0478  0.1309
 4861TIP3    H236075   6.277   0.593   4.347  1.1817  0.0423  0.0193
 4862TIP3   OH236076   0.464   6.041   7.352 -0.5690 -0.0274 -0.2716
 4862TIP3    H136077   0.431   5.968   7.300 -0.3270  0.0815 -0.5747
 4862TIP3    H236078   0.413   6.117   7.323  0.6946  0.3717 -1.5396
 4863TIP3   OH236079   4.257   5.124   4.320  0.6709 -0.4816 -0.0544
 4863TIP3    H136080   4.317   5.068   4.370  1.5036 -0.7454 -1.3093
 4863TIP3    H236081   4.174   5.119   4.368  1.3861 -0.8557  1.1976
 4864TIP3   OH236082   0.986   2.422  14.047 -0.6221  0.1951  0.5046
 4864TIP3    H136083   1.013   2.437  14.137  0.4204 -0.9217  0.4093
 4864TIP3    H236084   1.067   2.428  13.996 -1.2177  0.9664 -0.3897
 4865TIP3   OH236085   1.757   0.237  17.062 -0.3579  0.3161  0.1866
 4865TIP3    H136086   1.676   0.263  17.020  0.1625  0.8702 -0.4964
 4865TIP3    H236087   1.780   0.311  17.118 -0.9759 -0.3610  1.3728
 4866TIP3   OH236088   0.112   2.799   4.037  0.4695 -0.1319 -0.2963
 4866TIP3    H136089   0.205   2.790   4.060  0.4489  0.3780  0.0155
 4866TIP3    H236090   0.102   2.893   4.021 -0.4217  0.1386  1.5672
 4867TIP3   OH236091   0.520   4.182  15.545  0.2822  1.1829  0.1183
 4867TIP3    H136092   0.586   4.203  15.480 -0.8437 -0.4810 -1.6407
 4867TIP3    H236093   0.449   4.140  15.496  0.0563 -1.6625  2.5800
 4868TIP3   OH236094   5.282   6.344  13.805  0.0819 -0.3036  0.5230
 4868TIP3    H136095   5.319   6.263  13.840  0.2106  0.2125  1.6262
 4868TIP3    H236096   5.239   6.385  13.880 -1.5191 -0.1924 -0.4219
 4869TIP3   OH236097   3.949   5.461  13.275  0.1177 -0.2718  0.0842
 4869TIP3    H136098   3.941   5.366  13.270 -3.0555 -0.0715 -0.8866
 4869TIP3    H236099   4.009   5.476  13.348 -0.4366 -3.0042  1.2434
 4870TIP3   OH236100   1.441   5.325  16.970 -0.1042 -0.5526 -0.5095
 4870TIP3    H136101   1.406   5.410  17.000  3.0039  1.2244 -1.4242
 4870TIP3    H236102   1.404   5.313  16.883  2.2959  1.9563 -2.0256
 4871TIP3   OH236103   3.027   5.934   3.534 -0.2585  0.6193  0.0522
 4871TIP3    H136104   2.936   5.921   3.508 -0.4344  0.4071  0.7672
 4871TIP3    H236105   3.057   5.847   3.560  1.0357  0.0729 -2.8910
 4872TIP3   OH236106   4.101   0.990   1.544  0.0055 -0.2298 -0.1050
 4872TIP3    H136107   4.051   0.910   1.525 -1.1076  0.2574  0.6817
 4872TIP3    H236108   4.036   1.060   1.539  0.5145  0.3805  1.3068
 4873TIP3   OH236109   0.703   2.097   6.016 -0.4213 -0.2917  0.3744
 4873TIP3    H136110   0.740   2.072   6.101  0.9309 -1.0817 -0.3972
 4873TIP3    H236111   0.635   2.160   6.037  0.8197  0.6120  1.9610
 4874TIP3   OH236112   3.817   1.265  17.096  0.0805  0.0630 -0.2876
 4874TIP3    H136113   3.874   1.253  17.020  0.0886 -0.6525 -0.1794
 4874TIP3    H236114   3.847   1.347  17.136  1.0733 -0.3201 -0.2078
 4875TIP3   OH236115   4.778   5.861   0.634  0.1532  0.3047 -0.0303
 4875TIP3    H136116   4.836   5.802   0.682 -0.2133  0.9130  1.2305
 4875TIP3    H236117   4.823   5.878   0.552  1.1997 -0.1635  0.4301
 4876TIP3   OH236118   5.254   2.615  15.640  0.5290  0.1257  0.0402
 4876TIP3    H136119   5.260   2.522  15.618  0.6462 -0.4123  2.2150
 4876TIP3    H236120   5.234   2.657  15.556  0.1465 -1.8710 -0.9426
 4877TIP3   OH236121   2.237   3.968  11.602 -0.3449 -0.3011  0.2292
 4877TIP3    H136122   2.190   3.936  11.525  1.1559 -3.6918  0.5370
 4877TIP3    H236123   2.307   3.904  11.615  1.9064  2.3395  2.1120
 4878TIP3   OH236124   5.183   0.408  13.972  0.2022 -0.5146  0.2003
 4878TIP3    H136125   5.263   0.360  13.950  1.2346  0.6587  1.2010
 4878TIP3    H236126   5.169   0.466  13.898  0.7331 -0.1758  0.3616
 4879TIP3   OH236127   6.551   5.269  11.234 -0.5129  0.1998  0.6642
 4879TIP3    H136128   6.459   5.252  11.256 -0.2040 -0.9935  1.1468
 4879TIP3    H236129   6.569   5.211  11.160  0.0163 -0.0658  0.9900
 4880TIP3   OH236130   2.844   1.540   4.845 -0.4379  0.1671 -0.2004
 4880TIP3    H136131   2.805   1.519   4.930  0.5312  1.3875  0.5740
 4880TIP3    H236132   2.834   1.460   4.793 -0.6030 -0.7579  1.2212
 4881TIP3   OH236133   4.130   2.295  12.881  0.5725  0.6214  0.9148
 4881TIP3    H136134   4.168   2.250  12.806 -0.4901 -0.8425  1.2131
 4881TIP3    H236135   4.046   2.329  12.849 -0.4152 -0.9756  1.6727
 4882TIP3   OH236136   4.044   4.069   1.414 -0.6038  0.2955 -0.1160
 4882TIP3    H136137   4.089   3.990   1.445  0.9362  1.6801  1.3451
 4882TIP3    H236138   3.961   4.070   1.463  0.4853  0.8670  1.8109
 4883TIP3   OH236139   5.496   4.564  16.761  0.1198  0.0597  0.2582
 4883TIP3    H136140   5.546   4.568  16.680 -1.0706  0.1530 -0.4988
 4883TIP3    H236141   5.562   4.563  16.830  1.1567  2.0810 -0.6034
 4884TIP3   OH236142   5.720   3.392   1.133 -0.0656  0.3744  0.6981
 4884TIP3    H136143   5.729   3.381   1.038  1.0911 -0.5903  0.8931
 4884TIP3    H236144   5.810   3.407   1.163 -0.5525  1.8999  1.5176
 4885TIP3   OH236145   3.487   1.470  13.643 -0.0536 -0.0852  0.8599
 4885TIP3    H136146   3.415   1.411  13.620 -0.7840  1.3469 -0.6939
 4885TIP3    H236147   3.444   1.543  13.688  0.3563  0.9254 -0.3414
 4886TIP3   OH236148   1.292   5.917  11.919  1.1299  0.0833 -0.8438
 4886TIP3    H136149   1.388   5.915  11.914  1.1261 -0.7391 -0.8015
 4886TIP3    H236150   1.264   5.847  11.860  0.5903 -0.4031 -0.0256
 4887TIP3   OH236151   2.395   4.089   1.306 -0.4832  0.1486 -0.1851
 4887TIP3    H136152   2.422   4.024   1.242  0.1512  0.5089 -0.2952
 4887TIP3    H236153   2.477   4.118   1.346 -0.9045 -0.4605  1.1739
 4888TIP3   OH236154   0.272   5.577  17.405  0.2443 -0.2901  0.0221
 4888TIP3    H136155   0.183   5.550  17.383 -0.9316  1.2872  2.4096
 4888TIP3    H236156   0.306   5.617  17.325 -2.1297  1.2521 -0.3022
 4889TIP3   OH236157   3.688   2.837  16.934 -0.0019  0.0378 -0.3181
 4889TIP3    H136158   3.699   2.777  16.861  0.2773  2.0782 -2.0309
 4889TIP3    H236159   3.655   2.782  17.005 -1.9332 -1.7446 -2.4424
 4890TIP3   OH236160   5.007   2.910   3.485 -0.4349 -0.2327 -0.6226
 4890TIP3    H136161   4.928   2.910   3.431 -0.8109  2.9078 -0.2605
 4890TIP3    H236162   4.998   2.988   3.540  1.7096 -1.2441  1.3169
 4891TIP3   OH236163   4.716   2.115   4.892  0.0810  0.3081 -0.0504
 4891TIP3    H136164   4.778   2.134   4.822  2.3985 -0.4786  1.6547
 4891TIP3    H236165   4.686   2.201   4.922  0.8961  0.7430 -0.4619
 4892TIP3   OH236166   5.612   5.718   2.434  0.7205 -0.2247  0.1303
 4892TIP3    H136167   5.539   5.741   2.491  2.4687  1.8183  1.7054
 4892TIP3    H236168   5.608   5.622   2.428 -2.5046 -0.1487 -0.5376
 4893TIP3   OH236169   6.099   6.218  17.649  0.0438 -0.1558  0.2821
 4893TIP3    H136170   6.102   6.308  17.614  0.5484 -0.1261  0.3976
 4893TIP3    H236171   6.009   6.209  17.682  0.2847  0.6854  1.2484
 4894TIP3   OH236172   0.850   3.839   4.209 -0.1115 -0.4305  0.6074
 4894TIP3    H136173   0.866   3.848   4.115 -2.2085 -0.6552  0.1890
 4894TIP3    H236174   0.830   3.928   4.238  0.7163 -0.3312  0.8966
 4895TIP3   OH236175   6.334   3.205   5.325 -0.2421  0.8102  0.3398
 4895TIP3    H136176   6.287   3.289   5.320  2.4486  2.3696 -0.4794
 4895TIP3    H236177   6.319   3.176   5.415 -1.7902  1.7980  0.4498
 4896TIP3   OH236178   3.871   2.286  12.240  0.0432  0.2617  0.4586
 4896TIP3    H136179   3.887   2.209  12.185 -0.8462 -1.0358  1.9117
 4896TIP3    H236180   3.849   2.355  12.178  1.2878 -0.5168 -0.9231
 4897TIP3   OH236181   1.709   6.558  11.561  0.2470  0.4272 -0.5672
 4897TIP3    H136182   1.692   6.650  11.582  1.0207  0.5965 -0.6393
 4897TIP3    H236183   1.795   6.559  11.518 -0.3657 -0.1611 -1.8429
 4898TIP3   OH236184   5.248   1.491   3.072  0.1131 -0.2169  0.0161
 4898TIP3    H136185   5.278   1.526   3.156  1.5229 -2.8416  0.7213
 4898TIP3    H236186   5.164   1.450   3.092  0.0545 -0.1246 -0.0417
 4899TIP3   OH236187   3.735   6.243  12.422  0.1407 -0.4784 -0.2965
 4899TIP3    H136188   3.805   6.199  12.374  1.2510  0.2837  0.5612
 4899TIP3    H236189   3.666   6.256  12.357  1.3313 -0.0607 -1.5195
 4900TIP3   OH236190   0.874   3.343  17.683  0.2306 -0.7184  0.0995
 4900TIP3    H136191   0.811   3.395  17.632 -0.5982 -0.5266  1.2763
 4900TIP3    H236192   0.883   3.392  17.765 -0.3970 -2.2959  1.1483
 4901TIP3   OH236193   5.574   5.719   0.061 -0.0319  0.5500 -0.4869
 4901TIP3    H136194   5.491   5.717   0.013 -1.5446  0.2221  1.9878
 4901TIP3    H236195   5.573   5.803   0.106  0.2518 -0.0859  0.7317
 4902TIP3   OH236196   4.950   1.725  15.072  0.2276  0.3109 -0.1067
 4902TIP3    H136197   5.042   1.716  15.097  0.0851 -0.2158  0.2621
 4902TIP3    H236198   4.928   1.640  15.034 -0.6402 -0.2893  1.6254
 4903TIP3   OH236199   3.288   4.448   6.718 -0.2280  0.0418 -0.2808
 4903TIP3    H136200   3.260   4.362   6.688 -1.6678  0.1741  0.5901
 4903TIP3    H236201   3.291   4.441   6.814  3.3034 -0.0893 -0.2512
 4904TIP3   OH236202   1.439   4.200  16.948  0.3468 -0.4961 -0.3494
 4904TIP3    H136203   1.442   4.108  16.976  1.1051 -0.1009  0.9057
 4904TIP3    H236204   1.346   4.216  16.929  0.2733 -1.6490 -1.0861
 4905TIP3   OH236205   5.125   1.060  12.840 -0.5201 -0.0244 -0.1453
 4905TIP3    H136206   5.175   1.033  12.917 -0.3923 -0.7688 -0.4822
 4905TIP3    H236207   5.053   0.998  12.835 -1.9368  1.4557  0.7503
 4906TIP3   OH236208   2.441   0.266  15.895 -0.2186 -0.0298  0.2757
 4906TIP3    H136209   2.504   0.199  15.868  1.9172  1.2597  1.8086
 4906TIP3    H236210   2.440   0.329  15.823 -0.6525 -0.6122 -0.2438
 4907TIP3   OH236211   2.716   5.404  12.563 -0.0637  0.3879 -0.0311
 4907TIP3    H136212   2.657   5.436  12.631 -0.0276 -0.8018  0.5952
 4907TIP3    H236213   2.672   5.426  12.480 -0.9051  0.4031  0.4112
 4908TIP3   OH236214   1.986   4.187   4.923 -0.0727  0.2338 -0.4572
 4908TIP3    H136215   2.021   4.109   4.966  0.6935  0.4464 -0.6861
 4908TIP3    H236216   2.019   4.181   4.833 -1.3323 -0.0082 -0.9282
 4909TIP3   OH236217   5.040   5.200  15.207  0.5742  0.6305 -0.4986
 4909TIP3    H136218   5.102   5.187  15.136  1.5818  2.0592  0.0567
 4909TIP3    H236219   5.089   5.177  15.286  0.5377  2.0925 -0.0200
 4910TIP3   OH236220   4.541   1.022  16.737  0.1178 -0.2595 -0.1687
 4910TIP3    H136221   4.595   0.967  16.681 -0.2103 -0.4560 -0.2952
 4910TIP3    H236222   4.594   1.037  16.815  0.8553  0.5608 -0.8004
 4911TIP3   OH236223   4.661   2.176  17.258 -0.1253  0.3770  0.2170
 4911TIP3    H136224   4.587   2.125  17.226  0.3046 -1.1881  1.5907
 4911TIP3    H236225   4.738   2.120  17.243  0.5457  1.1848  0.5236
 4912TIP3   OH236226   2.433   4.874  13.671  0.0548 -0.4225 -0.2820
 4912TIP3    H136227   2.508   4.934  13.675  0.1506 -0.6136  1.5211
 4912TIP3    H236228   2.473   4.789  13.652  0.4295 -0.6665  1.4263
 4913TIP3   OH236229   3.842   3.198   3.991  0.0365 -0.2729 -0.0104
 4913TIP3    H136230   3.782   3.201   3.916  2.1139  0.7450 -1.7570
 4913TIP3    H236231   3.786   3.179   4.066 -2.2621 -0.6345 -1.7001
 4914TIP3   OH236232   0.358   2.378  12.438  0.2597 -0.0186  0.0440
 4914TIP3    H136233   0.300   2.405  12.367 -0.6463  0.7930  1.0449
 4914TIP3    H236234   0.442   2.364  12.396 -0.7101 -1.5647 -1.5166
 4915TIP3   OH236235   4.734   5.609  17.167 -0.0527 -0.4239  0.1755
 4915TIP3    H136236   4.803   5.622  17.101 -0.4958  0.4275 -0.1275
 4915TIP3    H236237   4.661   5.663  17.136  0.0380  0.7123  1.8189
 4916TIP3   OH236238   2.352   5.311   6.043 -0.4232 -0.3630 -0.3246
 4916TIP3    H136239   2.320   5.251   5.975 -4.5319 -1.0238  1.8665
 4916TIP3    H236240   2.370   5.255   6.118  0.2926  0.7112  0.3282
 4917TIP3   OH236241   3.203   3.072   6.258 -0.5849 -0.2304 -0.1167
 4917TIP3    H136242   3.123   3.109   6.295  0.6113  1.4731  0.9258
 4917TIP3    H236243   3.224   2.998   6.314 -1.1058 -0.3088 -0.0226
 4918TIP3   OH236244   5.139   2.526  15.121 -0.3468  0.3308  0.1227
 4918TIP3    H136245   5.115   2.444  15.165 -2.4759 -0.0972 -1.6173
 4918TIP3    H236246   5.104   2.516  15.032  3.3643  1.3039 -1.6381
 4919TIP3   OH236247   3.147   5.108   5.955  0.1454 -0.2531 -0.2860
 4919TIP3    H136248   3.205   5.135   6.026  0.3760 -0.0883 -0.5362
 4919TIP3    H236249   3.069   5.074   6.000  1.1743 -2.2753  0.1179
 4920TIP3   OH236250   5.713   0.542  15.391  0.0925  0.2160 -0.0043
 4920TIP3    H136251   5.714   0.592  15.473 -0.7396 -0.1204  0.2150
 4920TIP3    H236252   5.624   0.508  15.384  0.3724 -0.4061 -0.6631
 4921TIP3   OH236253   0.191   6.290   3.285  0.7561 -0.3190 -0.1614
 4921TIP3    H136254   0.169   6.374   3.245 -1.8347 -1.3962 -1.2185
 4921TIP3    H236255   0.254   6.312   3.353 -1.3384  2.8044  1.0085
 4922TIP3   OH236256   4.117   4.636  12.619 -0.0138  0.2438 -0.1324
 4922TIP3    H136257   4.102   4.604  12.708 -1.0604 -0.4341 -0.5311
 4922TIP3    H236258   4.111   4.731  12.626 -0.1069  0.1908  0.5241
 4923TIP3   OH236259   4.346   1.421  13.502 -0.6314  0.4707 -0.0392
 4923TIP3    H136260   4.325   1.510  13.530  0.0700  0.7783 -0.4607
 4923TIP3    H236261   4.440   1.422  13.487 -0.7032 -0.1855 -0.5923
 4924TIP3   OH236262   6.705   4.670   2.108 -0.2981  0.0468  0.1655
 4924TIP3    H136263   6.745   4.683   2.194 -0.0218 -0.0945  0.0587
 4924TIP3    H236264   6.611   4.662   2.126 -0.1823 -0.5429  0.5113
 4925TIP3   OH236265   0.656   3.994   6.051  0.4066 -0.2425  0.4508
 4925TIP3    H136266   0.688   4.056   6.116  1.3981 -0.6309  0.3506
 4925TIP3    H236267   0.701   4.019   5.970 -0.7137  0.1551 -0.0593
 4926TIP3   OH236268   0.585   1.355  10.943  0.2502  0.3352 -0.6677
 4926TIP3    H136269   0.535   1.432  10.916 -0.1873  0.8323  1.3845
 4926TIP3    H236270   0.534   1.281  10.909 -0.2679  0.9077 -1.1709
 4927TIP3   OH236271   3.734   6.409   6.153 -0.4838  0.1074 -0.4486
 4927TIP3    H136272   3.748   6.403   6.058 -0.1022 -0.8165 -0.3505
 4927TIP3    H236273   3.812   6.453   6.186  0.3989 -1.4667 -0.3463
 4928TIP3   OH236274   6.055   1.522   5.225 -0.1297  0.4374 -1.4783
 4928TIP3    H136275   6.043   1.455   5.291 -0.3301  1.4044 -0.5055
 4928TIP3    H236276   6.071   1.474   5.144  1.2449 -0.7738 -0.5287
 4929TIP3   OH236277   2.384   6.379  12.316 -0.2467  0.4976 -0.5496
 4929TIP3    H136278   2.312   6.316  12.305  0.6775 -0.4068 -1.6171
 4929TIP3    H236279   2.454   6.328  12.356  0.2590  1.0372 -0.7475
 4930TIP3   OH236280   2.052   5.106  16.941  0.0522  0.1763  0.5043
 4930TIP3    H136281   2.116   5.176  16.949  0.5965 -0.1208 -0.9191
 4930TIP3    H236282   1.967   5.151  16.941  0.3883  0.8191 -0.2121
 4931TIP3   OH236283   2.040   1.903  14.889  0.4702 -0.2109 -0.4699
 4931TIP3    H136284   2.063   1.852  14.967  0.9713  1.9354  0.8562
 4931TIP3    H236285   2.124   1.926  14.849  0.4582  1.9927  0.6267
 4932TIP3   OH236286   3.893   2.261  11.237  0.7414  0.6782  0.3067
 4932TIP3    H136287   3.866   2.345  11.200  1.5151  2.0002  2.5595
 4932TIP3    H236288   3.845   2.196  11.185 -1.1975  2.5649 -0.4401
 4933TIP3   OH236289   0.762   5.533   4.652 -0.2087 -0.5556  0.0864
 4933TIP3    H136290   0.707   5.551   4.728 -0.8111  0.5470 -0.5805
 4933TIP3    H236291   0.730   5.594   4.585  0.2055 -1.6089 -1.0970
 4934TIP3   OH236292   1.951   1.719   4.861  0.5910  0.4175  0.3224
 4934TIP3    H136293   2.033   1.730   4.909  0.4109  2.4287  0.2909
 4934TIP3    H236294   1.886   1.763   4.915 -0.1531  0.2531 -0.4201
 4935TIP3   OH236295   0.555   0.742  11.180 -0.5097 -0.1525 -0.4800
 4935TIP3    H136296   0.557   0.710  11.090 -0.7157 -0.4958 -0.3632
 4935TIP3    H236297   0.484   0.806  11.182 -0.1471  0.2583 -0.6952
 4936TIP3   OH236298   3.556   0.316  16.637 -0.3530 -0.1963 -0.7034
 4936TIP3    H136299   3.593   0.238  16.596  1.3336 -0.0761  0.4828
 4936TIP3    H236300   3.512   0.283  16.715 -1.2324 -0.1234 -1.1484
 4937TIP3   OH236301   4.130   2.157  15.192  0.3470  0.3211  0.4303
 4937TIP3    H136302   4.141   2.229  15.131 -1.0942 -0.4355 -0.7825
 4937TIP3    H236303   4.070   2.191  15.258 -0.9383  0.0227 -0.5549
 4938TIP3   OH236304   1.602   3.230   6.039 -0.4757 -0.0961  0.3550
 4938TIP3    H136305   1.519   3.199   6.004  0.7487 -0.0211 -2.9531
 4938TIP3    H236306   1.622   3.170   6.111 -1.1907 -3.1404 -1.8083
 4939TIP3   OH236307   2.518   4.083  13.933 -0.6116 -0.2362  0.3058
 4939TIP3    H136308   2.514   4.048  14.021  0.2183 -1.1243 -0.0003
 4939TIP3    H236309   2.611   4.080  13.909 -0.6527  1.1215 -0.1560
 4940TIP3   OH236310   6.207   6.340   5.804 -0.4273 -0.1058  0.4479
 4940TIP3    H136311   6.199   6.297   5.890  0.5646 -0.1602  0.5164
 4940TIP3    H236312   6.184   6.272   5.741 -0.4490 -0.2735  0.6352
 4941TIP3   OH236313   2.942   1.477   6.139  0.0800 -0.3452  0.1598
 4941TIP3    H136314   2.862   1.465   6.087  0.4831  1.3850 -0.9517
 4941TIP3    H236315   2.912   1.517   6.220 -0.2550 -0.1664 -0.0483
 4942TIP3   OH236316   6.218   1.759  15.700 -0.6417  0.4387 -0.0582
 4942TIP3    H136317   6.259   1.693  15.755  1.3045  1.2188 -0.4996
 4942TIP3    H236318   6.184   1.825  15.761 -0.7213  0.0715  0.2927
 4943TIP3   OH236319   3.160   5.396   1.707  0.5491 -0.0327 -0.1070
 4943TIP3    H136320   3.133   5.439   1.625 -1.1230  1.3268  1.0920
 4943TIP3    H236321   3.230   5.452   1.740  1.1853 -0.5507 -0.5486
 4944TIP3   OH236322   2.127   0.950  15.153  0.0253 -0.1994 -0.2392
 4944TIP3    H136323   2.033   0.938  15.168  0.5175 -0.8107  3.3864
 4944TIP3    H236324   2.137   1.045  15.140 -1.1203 -0.2245 -1.6084
 4945TIP3   OH236325   5.137   3.934   4.457 -0.1239 -0.0365  0.1923
 4945TIP3    H136326   5.215   3.884   4.481 -0.1220 -0.8838 -1.4450
 4945TIP3    H236327   5.163   3.983   4.379 -1.0656  0.0695 -0.0664
 4946TIP3   OH236328   3.706   1.468   0.549  0.6016  0.1318 -0.1188
 4946TIP3    H136329   3.714   1.562   0.532  1.3509  0.5651  2.2354
 4946TIP3    H236330   3.614   1.448   0.533  0.0898  1.6228  0.8393
 4947TIP3   OH236331   4.538   4.682  13.004  0.3602  0.4649 -0.5765
 4947TIP3    H136332   4.508   4.737  12.932  0.9875  1.2353 -0.2669
 4947TIP3    H236333   4.596   4.618  12.962  1.7353  1.6866 -0.6399
 4948TIP3   OH236334   1.999   4.734  11.133 -0.7317 -0.2464  0.0412
 4948TIP3    H136335   2.040   4.720  11.048 -0.4571 -1.2461  0.3200
 4948TIP3    H236336   2.061   4.790  11.181 -0.4813 -0.3857 -0.1196
 4949TIP3   OH236337   5.831   4.300  15.011  0.1895 -0.8419 -0.7220
 4949TIP3    H136338   5.771   4.313  14.937 -2.9505 -0.7246  1.6514
 4949TIP3    H236339   5.879   4.220  14.989  0.8454  0.2478 -3.7224
 4950TIP3   OH236340   2.724   1.435   2.967 -0.1946  0.0066  0.1588
 4950TIP3    H136341   2.665   1.379   3.018  0.4266  1.0465  2.1170
 4950TIP3    H236342   2.810   1.423   3.007 -0.1291  2.7193  1.0228
 4951TIP3   OH236343   5.746   0.679  11.591  0.2724 -0.4053 -0.4766
 4951TIP3    H136344   5.728   0.755  11.647 -1.0905 -1.1051  0.1028
 4951TIP3    H236345   5.692   0.609  11.629  2.5297 -2.0650 -0.1275
 4952TIP3   OH236346   3.621   3.614  12.966 -0.3283 -0.6680 -0.2065
 4952TIP3    H136347   3.593   3.559  12.893 -1.2507 -0.2043 -0.2266
 4952TIP3    H236348   3.571   3.695  12.954  0.2460 -0.2177  0.3894
 4953TIP3   OH236349   4.197   3.978   0.484 -0.2774 -0.1230 -0.7974
 4953TIP3    H136350   4.103   3.984   0.468 -0.2813  1.1903 -0.4425
 4953TIP3    H236351   4.226   4.070   0.488  0.5557 -0.4111  1.7861
 4954TIP3   OH236352   2.186   5.908   6.571 -0.2888 -0.3942 -0.4924
 4954TIP3    H136353   2.110   5.871   6.617 -1.2041  1.2981 -0.5729
 4954TIP3    H236354   2.261   5.864   6.611 -1.1879 -0.5831  1.0716
 4955TIP3   OH236355   4.600   3.030  17.284  0.5649  0.4452 -0.0677
 4955TIP3    H136356   4.551   3.039  17.366  0.5996  1.1001 -0.1110
 4955TIP3    H236357   4.684   2.991  17.311  0.1201 -0.4457  0.0405
 4956TIP3   OH236358   2.780   4.219  13.951  0.2196  1.1820  0.3935
 4956TIP3    H136359   2.850   4.282  13.933  0.2795  0.0518 -4.9401
 4956TIP3    H236360   2.699   4.269  13.938  0.2460  0.8765 -1.1822
 4957TIP3   OH236361   2.021   2.974   0.668 -0.0204 -0.0867  0.3185
 4957TIP3    H136362   2.054   2.945   0.583 -0.8932  0.7345 -0.3225
 4957TIP3    H236363   1.927   2.979   0.657 -0.0266  1.4925  0.8609
 4958TIP3   OH236364   2.140   3.826   1.146  0.6335 -0.0571 -0.1149
 4958TIP3    H136365   2.204   3.823   1.076  2.0486  0.6820  1.1004
 4958TIP3    H236366   2.175   3.769   1.214 -0.4729 -0.3859  0.2047
 4959TIP3   OH236367   2.688   6.047   1.949 -0.4110  0.0158  0.4655
 4959TIP3    H136368   2.744   6.116   1.985 -1.1343  0.8780 -0.0194
 4959TIP3    H236369   2.748   5.974   1.931  0.5542  0.8918  0.0001
 4960TIP3   OH236370   0.035   4.160  12.417  0.1478 -0.1471  0.2240
 4960TIP3    H136371   0.115   4.176  12.467 -0.6815  1.9324  1.0177
 4960TIP3    H236372   0.063   4.162  12.325  0.8868  1.6870  0.4407
 4961TIP3   OH236373   3.109   3.593   1.404  0.3793  0.0836  0.3094
 4961TIP3    H136374   3.185   3.646   1.383  0.1841  0.1113 -0.3853
 4961TIP3    H236375   3.035   3.641   1.365  0.2346 -0.8163 -0.5738
 4962TIP3   OH236376   5.125   5.592  11.653 -0.1047  0.4964 -0.3820
 4962TIP3    H136377   5.155   5.510  11.615  1.1295 -0.4204  2.3376
 4962TIP3    H236378   5.076   5.566  11.731  2.9636  2.2536  2.3869
 4963TIP3   OH236379   4.186   5.100   2.886 -0.1078  0.0439  0.4655
 4963TIP3    H136380   4.201   5.085   2.979 -0.3718 -1.2881  0.3065
 4963TIP3    H236381   4.246   5.039   2.842 -0.2433  0.4027 -0.2318
 4964TIP3   OH236382   4.617   4.564  16.061 -0.3318  0.1604  0.0181
 4964TIP3    H136383   4.648   4.620  15.989  0.2831 -0.5581 -0.2981
 4964TIP3    H236384   4.698   4.526  16.098 -0.7811 -1.4577 -0.5640
 4965TIP3   OH236385   2.631   0.579   4.649 -0.4886 -0.2015  0.5856
 4965TIP3    H136386   2.552   0.546   4.606  0.6919 -0.9595 -1.0836
 4965TIP3    H236387   2.645   0.518   4.722 -1.7528  0.2986  1.2865
 4966TIP3   OH236388   3.576   0.178   2.242 -0.7740 -0.4095  0.0457
 4966TIP3    H136389   3.618   0.262   2.259  1.8868 -1.4003 -1.0199
 4966TIP3    H236390   3.620   0.116   2.300 -2.1888 -1.2138  0.3125
 4967TIP3   OH236391   5.932   1.907  13.061  0.4278 -0.7096  0.0698
 4967TIP3    H136392   5.943   1.865  12.976  1.4199 -1.7344  0.6862
 4967TIP3    H236393   5.873   1.980  13.043 -0.5934 -1.7916 -1.2085
 4968TIP3   OH236394   4.455   5.906  15.073  0.3169  0.2137  0.1209
 4968TIP3    H136395   4.425   5.888  14.983  1.6660 -0.2266 -0.2678
 4968TIP3    H236396   4.520   5.975  15.063  0.2734  0.3556  0.7965
 4969TIP3   OH236397   3.938   2.060   0.522  0.1737 -0.1762  0.3927
 4969TIP3    H136398   4.025   2.025   0.503  0.1669  0.0588 -0.0902
 4969TIP3    H236399   3.938   2.075   0.616  0.6918 -0.0839  0.3809
 4970TIP3   OH236400   5.220   0.038   0.398 -0.3357  0.3977  0.4393
 4970TIP3    H136401   5.267   0.008   0.476 -0.4727 -1.3743 -0.1216
 4970TIP3    H236402   5.283   0.027   0.327 -0.2431  1.9139  0.2394
 4971TIP3   OH236403   0.342   6.424   6.159 -0.1313 -0.5761 -0.4911
 4971TIP3    H136404   0.380   6.467   6.235 -0.8597 -3.4472  1.7177
 4971TIP3    H236405   0.263   6.475   6.139 -0.0753  0.1079  0.9053
 4972TIP3   OH236406   1.139   0.719  11.049 -0.1354  0.1399 -0.8753
 4972TIP3    H136407   1.197   0.647  11.075 -1.2407 -0.6754 -0.6336
 4972TIP3    H236408   1.079   0.730  11.122  0.5209  1.8796 -0.5512
 4973TIP3   OH236409   1.673   3.625  11.028  0.5768 -0.0648 -0.2871
 4973TIP3    H136410   1.673   3.706  10.977 -0.5371 -1.5052 -2.7390
 4973TIP3    H236411   1.607   3.570  10.986 -0.2481 -1.4885  2.6312
 4974TIP3   OH236412   1.010   1.161  14.014  0.4328  0.2821  0.1657
 4974TIP3    H136413   1.030   1.083  13.962  1.7946  0.2812  0.6670
 4974TIP3    H236414   1.093   1.208  14.021  0.0032  0.9147  1.2849
 4975TIP3   OH236415   3.007   4.051   4.819 -0.5688 -0.4905  0.2068
 4975TIP3    H136416   2.958   4.131   4.835  0.3129 -0.2768  2.0093
 4975TIP3    H236417   2.941   3.982   4.818 -1.1833  0.0964 -0.0482
 4976TIP3   OH236418   0.143   5.660   2.026 -0.9696 -0.3521 -0.1140
 4976TIP3    H136419   0.054   5.629   2.044 -0.4892 -1.2769  0.7572
 4976TIP3    H236420   0.193   5.580   2.010 -0.0348  0.0665  0.6391
 4977TIP3   OH236421   2.342   4.146   4.519 -0.3445  0.1212 -0.1952
 4977TIP3    H136422   2.390   4.152   4.437  1.7996 -1.7369  0.8003
 4977TIP3    H236423   2.290   4.067   4.511  0.9817 -0.8859  0.6965
 4978TIP3   OH236424   3.534   0.270   3.385  0.0481 -0.1544  0.1467
 4978TIP3    H136425   3.446   0.233   3.390 -1.1800  2.0505 -2.3927
 4978TIP3    H236426   3.520   0.364   3.397  1.9131  0.3491 -1.2093
 4979TIP3   OH236427   3.894   1.145   1.023  0.5920  0.0157 -0.0367
 4979TIP3    H136428   3.909   1.226   0.973 -0.2931 -0.4311 -1.0719
 4979TIP3    H236429   3.859   1.175   1.107  1.9889  0.7796  0.3048
 4980TIP3   OH236430   3.824   2.376  13.183  0.0078 -0.0687  0.4621
 4980TIP3    H136431   3.796   2.300  13.132  1.2827 -0.9695  1.0490
 4980TIP3    H236432   3.751   2.438  13.176 -1.0483 -1.3270 -0.0581
 4981TIP3   OH236433   0.689   6.696  13.601  0.6172  0.1068 -0.1859
 4981TIP3    H136434   0.635   6.746  13.662  0.4587  0.5043 -0.6451
 4981TIP3    H236435   0.712   6.759  13.532  1.0535 -0.2531 -0.3768
 4982TIP3   OH236436   4.834   4.936  16.882  0.1111 -0.3127 -0.0337
 4982TIP3    H136437   4.850   5.029  16.868  1.4409 -0.3843  0.8452
 4982TIP3    H236438   4.790   4.907  16.802 -0.3235  1.0612 -0.3189
 4983TIP3   OH236439   0.852   5.453  13.797 -0.4465  0.3085 -0.0269
 4983TIP3    H136440   0.836   5.536  13.753  0.3914  0.3318 -0.3000
 4983TIP3    H236441   0.843   5.473  13.890  2.2059  1.3117  0.0882
 4984TIP3   OH236442   3.047   3.206  14.669 -0.6266 -0.0241 -0.2327
 4984TIP3    H136443   3.126   3.174  14.625 -0.9170  0.6775 -1.3010
 4984TIP3    H236444   3.077   3.281  14.721 -0.8262  1.3270 -1.9692
 4985TIP3   OH236445   3.929   5.070   1.397  0.1737  0.3021 -0.3645
 4985TIP3    H136446   3.887   5.139   1.448 -1.5278 -1.0380  0.1539
 4985TIP3    H236447   3.864   5.044   1.332  1.0628 -0.2959 -1.0447
 4986TIP3   OH236448   4.091   3.216  16.930 -0.1310  0.6115  0.3935
 4986TIP3    H136449   4.014   3.169  16.963 -0.0484  0.4134  0.3053
 4986TIP3    H236450   4.107   3.284  16.995  0.8703 -0.6314  1.5046
 4987TIP3   OH236451   4.940   6.286  15.204  0.2658 -0.1128  0.0917
 4987TIP3    H136452   5.011   6.299  15.267 -0.3441 -0.4516  0.8563
 4987TIP3    H236453   4.902   6.201  15.227 -0.8829  0.4070  0.1828
 4988TIP3   OH236454   4.518   4.914  15.106  0.3112 -0.4859 -0.4399
 4988TIP3    H136455   4.483   4.994  15.068  0.2201  0.3062  1.2179
 4988TIP3    H236456   4.444   4.854  15.110 -0.9912  1.0803  2.7982
 4989TIP3   OH236457   6.435   1.107  11.648 -0.0943  0.7951  0.0490
 4989TIP3    H136458   6.515   1.079  11.691 -1.1582 -1.6954  0.6321
 4989TIP3    H236459   6.369   1.106  11.717 -1.1875 -0.1152 -0.9488
 4990TIP3   OH236460   1.572   1.307  14.748 -0.1664 -0.6775  0.1444
 4990TIP3    H136461   1.666   1.289  14.738 -0.2647 -1.2039  0.1395
 4990TIP3    H236462   1.553   1.284  14.839 -0.3335 -0.7699  0.0856
 4991TIP3   OH236463   2.040   6.617  16.319 -0.3288 -0.4186  0.2051
 4991TIP3    H136464   2.099   6.619  16.395  2.5070 -2.0878 -1.7480
 4991TIP3    H236465   2.056   6.699  16.273  0.5640 -0.8718 -0.3253
 4992TIP3   OH236466   0.589   0.191   4.825 -0.3910  0.3234  0.3770
 4992TIP3    H136467   0.603   0.256   4.894 -1.3874  2.2194 -1.1145
 4992TIP3    H236468   0.497   0.199   4.802 -0.5067 -1.5382 -0.0048
 4993TIP3   OH236469   1.611   6.475  15.535  0.0641 -0.1229  0.0236
 4993TIP3    H136470   1.702   6.450  15.550  0.6051  0.1113 -2.5002
 4993TIP3    H236471   1.614   6.570  15.523 -0.7431  0.0792  1.2327
 4994TIP3   OH236472   2.109   1.663  13.937  0.0795  0.3091 -0.1867
 4994TIP3    H136473   2.064   1.676  13.853 -1.2227  1.7661  0.6705
 4994TIP3    H236474   2.038   1.663  14.001  1.2225  1.8614  1.1552
 4995TIP3   OH236475   4.138   4.109  17.348 -0.6176  0.4923  0.1504
 4995TIP3    H136476   4.168   4.019  17.361  0.6764  0.4633 -2.4170
 4995TIP3    H236477   4.053   4.099  17.306 -1.5455  0.5464  1.9159
 4996TIP3   OH236478   3.083   2.176   3.278 -0.3569  0.0494  0.0406
 4996TIP3    H136479   3.150   2.150   3.341 -1.3162 -0.1969  0.9659
 4996TIP3    H236480   3.110   2.264   3.251  1.8250 -1.0211 -1.6553
 4997TIP3   OH236481   5.041   2.598  13.752 -0.1094  0.3330 -0.3660
 4997TIP3    H136482   5.031   2.599  13.656  0.1674 -1.4928 -0.4325
 4997TIP3    H236483   4.982   2.667  13.782  1.4254  2.4868 -1.9672
 4998TIP3   OH236484   5.471   0.788   4.179 -1.0611 -0.2222 -0.0250
 4998TIP3    H136485   5.444   0.720   4.117 -1.2757 -1.9537  1.8499
 4998TIP3    H236486   5.563   0.769   4.198 -1.3558 -0.5746  1.1649
 4999TIP3   OH236487   2.815   4.051  16.817 -0.8993  0.1239  0.1429
 4999TIP3    H136488   2.894   4.023  16.771 -0.8084 -1.6403  1.2874
 4999TIP3    H236489   2.830   4.144  16.835  0.3678  0.1184 -0.7179
 5000TIP3   OH236490   6.089   0.099  11.457  0.0512 -0.4500 -0.0835
 5000TIP3    H136491   6.071   0.022  11.510  0.2283 -0.0342  0.6054
 5000TIP3    H236492   6.135   0.159  11.516 -1.2434  0.7152 -0.1868
 5001TIP3   OH236493   5.614   3.991  17.541 -0.0815  0.1757  0.2221
 5001TIP3    H136494   5.581   4.064  17.490  1.8871  0.8864 -0.1118
 5001TIP3    H236495   5.595   4.015  17.632  1.2856  1.5362  0.1787
 5002TIP3   OH236496   5.940   3.375  17.612  0.4556 -0.2244  0.4656
 5002TIP3    H136497   6.025   3.385  17.570 -0.4911 -0.4528 -1.6136
 5002TIP3    H236498   5.895   3.309  17.559 -2.0860  1.9594 -0.3133
 5003TIP3   OH236499   0.235   0.298  13.568 -0.2210  0.5869 -0.3283
 5003TIP3    H136500   0.198   0.359  13.632 -0.9745 -0.0588 -0.1263
 5003TIP3    H236501   0.266   0.224  13.620  0.8463  0.8692 -0.5555
 5004TIP3   OH236502   5.300   6.448  13.118 -0.1848  0.4239 -0.4021
 5004TIP3    H136503   5.218   6.448  13.168  0.5143 -0.1224  0.7705
 5004TIP3    H236504   5.318   6.355  13.102  1.3737  0.3774  1.3328
 5005TIP3   OH236505   4.511   1.149   5.821  0.8222  0.2714 -0.2454
 5005TIP3    H136506   4.583   1.203   5.788  1.8760  0.4369  2.0991
 5005TIP3    H236507   4.502   1.175   5.913 -0.2087 -1.9167  0.3409
 5006TIP3   OH236508   4.098   6.647   4.041 -0.6048  0.3253  0.3468
 5006TIP3    H136509   4.119   6.667   4.132  1.2909  1.0247 -0.1994
 5006TIP3    H236510   4.056   6.725   4.008 -1.7026 -0.0897  0.7122
 5007TIP3   OH236511   0.255   4.304   2.823 -0.1860  0.3669 -0.1503
 5007TIP3    H136512   0.232   4.212   2.837  0.0620  0.5963  1.9268
 5007TIP3    H236513   0.170   4.349   2.825 -0.2383  0.2832 -0.4047
 5008TIP3   OH236514   5.270   1.217   0.970  0.1255  0.1900  0.2269
 5008TIP3    H136515   5.318   1.164   0.907 -0.5958  0.9070 -0.9774
 5008TIP3    H236516   5.238   1.292   0.919 -0.0135  1.0909  1.5709
 5009TIP3   OH236517   2.911   4.568  12.936 -0.1980 -0.0312 -0.8362
 5009TIP3    H136518   2.831   4.554  12.884 -2.2689  0.3012  2.0253
 5009TIP3    H236519   2.907   4.660  12.963  0.8013 -0.1849 -0.0968
 5010TIP3   OH236520   5.123   3.942   3.426  0.0910  0.2534 -0.3030
 5010TIP3    H136521   5.148   3.883   3.355 -1.8536 -1.0189 -0.0123
 5010TIP3    H236522   5.181   3.920   3.498 -1.2132 -2.0992  0.1251
 5011TIP3   OH236523   0.021   3.790   6.054 -0.7756 -0.1402  0.1835
 5011TIP3    H136524   0.091   3.742   6.010 -0.8665  1.2267 -1.5537
 5011TIP3    H236525  -0.024   3.724   6.106  0.3577 -1.5173 -0.5143
 5012TIP3   OH236526   3.844   5.439   5.057 -0.3984 -0.3321 -0.6013
 5012TIP3    H136527   3.789   5.392   5.120  2.2790 -1.5693  1.0196
 5012TIP3    H236528   3.798   5.521   5.041 -1.5633 -0.2197  2.5529
 5013TIP3   OH236529   3.596   1.730  17.147 -0.0344 -0.1124 -0.0359
 5013TIP3    H136530   3.522   1.672  17.162 -0.1021 -0.4467 -1.5345
 5013TIP3    H236531   3.583   1.763  17.058 -1.0045  3.6608  1.2875
 5014TIP3   OH236532   6.199   5.693   5.676 -0.0439 -0.0150 -0.0442
 5014TIP3    H136533   6.121   5.665   5.629  0.0616  0.3022 -0.4124
 5014TIP3    H236534   6.200   5.639   5.755 -1.3730  0.9056  0.6424
 5015TIP3   OH236535   2.168   4.028   4.146  0.1702  0.2818 -0.2766
 5015TIP3    H136536   2.181   3.933   4.143  0.5473  0.3369 -0.4184
 5015TIP3    H236537   2.208   4.060   4.066  1.7297  0.7567  0.6688
 5016TIP3   OH236538   1.978   0.098   6.729 -0.0885 -0.3837  0.1828
 5016TIP3    H136539   2.033   0.116   6.806  2.9592 -1.2715 -1.6204
 5016TIP3    H236540   2.020   0.023   6.687 -2.7398 -1.0930 -1.4166
 5017TIP3   OH236541   0.351   0.738  13.013 -0.3376 -0.0281 -0.5079
 5017TIP3    H136542   0.259   0.721  12.993 -0.2327  0.4843 -1.4793
 5017TIP3    H236543   0.398   0.705  12.937  0.3287 -0.6949  0.1753
 5018TIP3   OH236544   5.981   1.010   3.932  0.4669  0.1689 -0.4904
 5018TIP3    H136545   6.046   1.029   4.000 -0.1424  0.2563  0.0785
 5018TIP3    H236546   5.961   1.095   3.894 -0.6223  0.4082  0.5526
 5019TIP3   OH236547   2.483   1.473   2.156  0.0651 -0.6033 -0.1721
 5019TIP3    H136548   2.438   1.501   2.235 -2.5786  0.0196 -1.7888
 5019TIP3    H236549   2.495   1.553   2.105  1.0941 -1.0895 -0.7359
 5020TIP3   OH236550   4.532   0.201   5.659 -0.1571 -0.1029  0.2573
 5020TIP3    H136551   4.472   0.127   5.667  0.0541 -0.3340 -0.2369
 5020TIP3    H236552   4.605   0.167   5.607  1.4729 -0.4729  2.6286
 5021TIP3   OH236553   2.119   1.271   5.301  0.0622 -0.2271  0.0247
 5021TIP3    H136554   2.143   1.289   5.211  2.4837 -1.1948  0.4197
 5021TIP3    H236555   2.136   1.353   5.347 -1.2662  0.2972 -0.3600
 5022TIP3   OH236556   5.160   4.997  16.176 -0.1620 -0.1478  0.2191
 5022TIP3    H136557   5.105   4.919  16.174 -0.4085  0.0275  0.1683
 5022TIP3    H236558   5.180   5.009  16.269  0.2859 -0.5583  0.1791
 5023TIP3   OH236559   0.280   2.610   0.135 -0.1102  0.0802  0.1067
 5023TIP3    H136560   0.354   2.601   0.075 -1.4601  2.1249 -2.0137
 5023TIP3    H236561   0.239   2.523   0.135  0.2475 -0.1224 -1.4958
 5024TIP3   OH236562   1.441   4.498   4.326 -0.0181 -0.0297  0.2463
 5024TIP3    H136563   1.374   4.502   4.395 -1.4766 -1.2873 -1.0208
 5024TIP3    H236564   1.493   4.421   4.348  0.2567  0.2476  0.5730
 5025TIP3   OH236565   1.419   5.571   0.319 -0.6517 -0.0458 -0.7122
 5025TIP3    H136566   1.363   5.540   0.391  0.1248  0.2423  0.0295
 5025TIP3    H236567   1.357   5.598   0.251 -1.4185  0.0913  0.0174
 5026TIP3   OH236568   1.555   3.403  16.167  0.1383 -0.7396 -0.5604
 5026TIP3    H136569   1.546   3.328  16.108 -0.5817 -0.2223 -1.1210
 5026TIP3    H236570   1.578   3.364  16.251 -1.1857 -1.6795 -0.6091
 5027TIP3   OH236571   3.018   2.750   1.544  0.0544 -0.6117 -0.3162
 5027TIP3    H136572   2.928   2.781   1.536 -0.6166 -2.5998 -0.9516
 5027TIP3    H236573   3.071   2.823   1.513 -1.1318  1.5410  2.3388
 5028TIP3   OH236574   3.401   2.896  11.966 -0.2086  0.1054  0.1202
 5028TIP3    H136575   3.492   2.908  11.994  0.0361 -1.4559  0.0644
 5028TIP3    H236576   3.354   2.875  12.047 -0.8334  2.2100  0.3873
 5029TIP3   OH236577   5.275   4.790  17.216 -0.2959 -0.3520  0.4723
 5029TIP3    H136578   5.287   4.764  17.124 -2.0300 -1.6073  0.5473
 5029TIP3    H236579   5.193   4.840  17.216  1.3488  2.5534  0.8796
 5030TIP3   OH236580   5.439   2.410   0.868  0.3056  0.5955  0.2737
 5030TIP3    H136581   5.527   2.445   0.883 -0.0194  1.1186  0.9889
 5030TIP3    H236582   5.453   2.316   0.854  0.9686  0.6568  0.4765
 5031TIP3   OH236583   4.299   0.961   2.665  0.0428 -0.0030  0.4271
 5031TIP3    H136584   4.376   1.016   2.650  1.0010 -1.7479 -1.6784
 5031TIP3    H236585   4.302   0.938   2.758  1.9627  0.1519  0.4322
 5032TIP3   OH236586   3.028   5.668   2.026  0.2081  0.1398  0.0133
 5032TIP3    H136587   3.029   5.731   2.099 -1.2643 -0.0556  0.2292
 5032TIP3    H236588   3.121   5.658   2.003  0.5975  1.2734  0.9298
 5033TIP3   OH236589   3.800   0.819  12.261  0.2738  0.0518  0.5546
 5033TIP3    H136590   3.706   0.830  12.250  0.6052  0.8697 -2.6019
 5033TIP3    H236591   3.834   0.907  12.274  0.6390 -0.2314  1.6231
 5034TIP3   OH236592   1.107   2.832  13.977  0.1218 -0.4380  0.0590
 5034TIP3    H136593   1.013   2.845  13.961  0.1207 -0.3694  0.1177
 5034TIP3    H236594   1.149   2.857  13.895  0.2008  0.9774  0.4939
 5035TIP3   OH236595   1.097   1.576  17.490 -0.0492 -0.2434  0.3609
 5035TIP3    H136596   1.106   1.647  17.427  0.2537 -0.6711 -0.0810
 5035TIP3    H236597   1.153   1.601  17.564 -0.0713  0.0525  0.2745
 5036TIP3   OH236598   5.530   2.273  14.759 -0.7245 -0.0625 -0.2205
 5036TIP3    H136599   5.595   2.267  14.689 -0.4600 -2.9341  0.1362
 5036TIP3    H236600   5.447   2.252  14.716 -0.5441 -1.9666  0.2489
 5037TIP3   OH236601   0.676   1.292  13.079 -0.1546  0.5562 -0.2958
 5037TIP3    H136602   0.741   1.330  13.138 -1.0046 -0.2842  1.2227
 5037TIP3    H236603   0.594   1.336  13.103 -1.0162 -1.6364  0.9994
 5038TIP3   OH236604   5.857   5.430  13.482  0.5450  0.0631  0.3456
 5038TIP3    H136605   5.764   5.413  13.463  0.6481 -0.6133  0.4390
 5038TIP3    H236606   5.861   5.524  13.498  0.1008  0.3274 -0.9750
 5039TIP3   OH236607   4.052   0.253   5.152  0.1873  0.0076 -0.4767
 5039TIP3    H136608   4.103   0.333   5.136  0.7895 -0.4416 -0.8337
 5039TIP3    H236609   3.997   0.244   5.074 -1.3101  1.1107  0.3888
 5040TIP3   OH236610   3.908   3.150  12.583  0.4024 -0.3242 -0.1077
 5040TIP3    H136611   3.833   3.118  12.634 -1.3916  1.4086 -1.4974
 5040TIP3    H236612   3.962   3.072  12.569 -1.2841 -1.7194  0.6913
 5041TIP3   OH236613   4.688   5.438  11.780 -0.5354 -0.4503  0.2128
 5041TIP3    H136614   4.643   5.518  11.755 -0.2584  0.1505  1.5555
 5041TIP3    H236615   4.664   5.375  11.712 -2.7497  0.0660  0.4295
 5042TIP3   OH236616   1.548   6.242  17.007 -0.4868 -0.2341  0.4548
 5042TIP3    H136617   1.527   6.294  17.085 -1.7549  0.0347 -0.0441
 5042TIP3    H236618   1.630   6.280  16.974 -0.4270  0.2382  1.1348
 5043TIP3   OH236619   1.716   2.369   1.480  0.0077  0.2043  0.3868
 5043TIP3    H136620   1.742   2.395   1.392 -0.1718  1.2669  0.6391
 5043TIP3    H236621   1.647   2.430   1.505  1.0665  0.8979  1.8255
 5044TIP3   OH236622   0.664   5.668   5.102  0.3852 -0.2534  0.6430
 5044TIP3    H136623   0.751   5.705   5.118 -0.7103  2.1715  1.5898
 5044TIP3    H236624   0.605   5.723   5.154 -1.9531 -0.4839 -1.5705
 5045TIP3   OH236625   1.947   3.375   3.847  0.6464 -0.5782 -0.0237
 5045TIP3    H136626   1.919   3.293   3.887 -3.5131  0.1578 -1.0255
 5045TIP3    H236627   1.880   3.439   3.871  1.0357  1.3108 -3.2699
 5046TIP3   OH236628   0.902   3.993   4.581 -0.5816  0.5233  0.0117
 5046TIP3    H136629   0.986   3.999   4.627 -0.1094  1.2166 -0.9099
 5046TIP3    H236630   0.873   3.903   4.595 -0.9245  0.9508  2.4332
 5047TIP3   OH236631   1.496   3.114   0.656  0.3861  0.0801  0.2715
 5047TIP3    H136632   1.416   3.086   0.612 -0.3760  1.2479  0.8475
 5047TIP3    H236633   1.474   3.113   0.749  2.1444 -2.8856  0.7704
 5048TIP3   OH236634   1.913   4.890   0.116  0.1574 -0.5604  0.2433
 5048TIP3    H136635   1.957   4.841   0.046 -0.6568  0.4029 -0.9807
 5048TIP3    H236636   1.984   4.937   0.160  0.5314 -0.0647 -0.8544
 5049TIP3   OH236637   1.007   3.982  17.254  0.1864  0.4008  0.8087
 5049TIP3    H136638   1.080   3.951  17.200 -1.1364 -0.6742 -0.4304
 5049TIP3    H236639   0.931   3.934  17.222 -0.9042  0.6962  2.7886
 5050TIP3   OH236640   5.912   6.550  15.309 -0.5202 -0.3332  0.2984
 5050TIP3    H136641   6.000   6.513  15.310 -0.4718 -0.2163  0.6694
 5050TIP3    H236642   5.905   6.594  15.224 -0.2596 -0.4356  0.2234
 5051TIP3   OH236643   1.369   3.928   2.087 -0.4925 -0.0491 -0.1793
 5051TIP3    H136644   1.377   3.855   2.026  0.0417  0.4450 -0.7147
 5051TIP3    H236645   1.426   3.996   2.051 -0.0642  0.2093  0.9485
 5052TIP3   OH236646   5.928   4.049  12.440 -0.2449 -0.4798  0.2582
 5052TIP3    H136647   5.833   4.039  12.444 -0.1219 -1.5664  0.9527
 5052TIP3    H236648   5.945   4.086  12.353 -1.3065 -0.0376  0.2171
 5053TIP3   OH236649   0.570   0.911   5.055  0.0678 -0.3423  0.3197
 5053TIP3    H136650   0.504   0.895   5.123  0.2056  0.0050  0.5408
 5053TIP3    H236651   0.653   0.887   5.096  0.0848 -0.7572  0.0492
 5054TIP3   OH236652   5.882   6.115  11.631 -0.0564  0.1064  0.1319
 5054TIP3    H136653   5.810   6.090  11.573  0.1950  0.4654 -0.3435
 5054TIP3    H236654   5.961   6.105  11.577  0.1029  1.3083  0.1169
 5055TIP3   OH236655   0.971   3.076   6.280  0.0737  0.2483 -0.3123
 5055TIP3    H136656   1.059   3.100   6.308  0.3710  0.7599 -1.6005
 5055TIP3    H236657   0.971   2.980   6.282  0.5357  0.2521  0.0513
 5056TIP3   OH236658   6.579   6.054  11.335 -0.7096  0.1914 -0.4138
 5056TIP3    H136659   6.602   6.111  11.409 -2.1710 -0.5579  0.6656
 5056TIP3    H236660   6.637   6.082  11.265  0.3858  1.2763  0.8603
 5057TIP3   OH236661   3.358   3.340   5.606  0.2495  0.3578 -0.6510
 5057TIP3    H136662   3.367   3.251   5.571 -2.3733 -0.4075  0.3433
 5057TIP3    H236663   3.393   3.397   5.538 -1.7316 -1.2324 -3.1551
 5058TIP3   OH236664   2.573   6.691   0.745  0.0654 -0.4901 -0.3869
 5058TIP3    H136665   2.571   6.761   0.810 -0.4287  0.9715 -1.8964
 5058TIP3    H236666   2.629   6.623   0.784  0.1566  0.5115  1.3280
 5059TIP3   OH236667   1.838   3.574  16.856  0.1139 -0.1638 -0.3876
 5059TIP3    H136668   1.779   3.599  16.927 -0.2040  1.0026 -1.0456
 5059TIP3    H236669   1.779   3.546  16.786  0.2985  1.2139 -1.1289
 5060TIP3   OH236670   4.507   4.895  17.434 -0.3983  0.1941 -0.1982
 5060TIP3    H136671   4.450   4.886  17.511 -0.0569 -0.6966 -0.0394
 5060TIP3    H236672   4.595   4.907  17.470 -0.1592 -0.7627 -0.4424
 5061TIP3   OH236673   2.246   2.263  16.207  0.2819 -0.1630  0.2229
 5061TIP3    H136674   2.235   2.236  16.116  1.8805  0.2246 -0.1074
 5061TIP3    H236675   2.259   2.358  16.202 -0.5691  0.0047  0.9539
 5062TIP3   OH236676   1.397   1.981   4.711 -0.8232  0.2329  0.1784
 5062TIP3    H136677   1.308   1.993   4.745 -0.5498  0.5261  0.7930
 5062TIP3    H236678   1.399   2.035   4.632 -1.9125 -1.5561 -1.1563
 5063TIP3   OH236679   3.533   3.576   6.447 -0.4805  0.5091  0.2508
 5063TIP3    H136680   3.554   3.574   6.541 -0.8143  1.5418  0.3705
 5063TIP3    H236681   3.522   3.484   6.422  1.3561  0.1030  0.8093
 5064TIP3   OH236682   6.546   2.724   4.905  0.0590  0.2453 -0.2276
 5064TIP3    H136683   6.582   2.661   4.841  0.5954  1.8519 -1.5770
 5064TIP3    H236684   6.506   2.792   4.851 -0.3266  1.1696  1.1950
 5065TIP3   OH236685   6.497   3.990   3.007  0.8210  0.3104  0.2703
 5065TIP3    H136686   6.530   4.079   3.020 -2.2469  1.5971  0.3101
 5065TIP3    H236687   6.481   3.985   2.912 -1.9030  1.0718  0.6057
 5066TIP3   OH236688   1.750   5.720  10.893 -0.1974  0.6708  0.0701
 5066TIP3    H136689   1.769   5.790  10.831 -1.8880  2.9636  1.9474
 5066TIP3    H236690   1.833   5.675  10.905  0.6903  1.6289 -2.0364
 5067TIP3   OH236691   1.833   5.361   3.616  0.5804 -0.1955  0.4173
 5067TIP3    H136692   1.920   5.400   3.604  0.4424  0.2916  0.9769
 5067TIP3    H236693   1.773   5.435   3.612  0.3331 -0.3136  1.6858
 5068TIP3   OH236694   4.383   3.806   2.391  0.4274 -0.1452  0.0249
 5068TIP3    H136695   4.400   3.712   2.387 -1.9880 -0.6739  0.7969
 5068TIP3    H236696   4.452   3.841   2.448  0.1522 -1.7939  1.4361
 5069TIP3   OH236697   0.197   3.081   1.513  0.1859  0.4901  0.0631
 5069TIP3    H136698   0.220   3.063   1.422  0.2626 -0.2584  0.2230
 5069TIP3    H236699   0.126   3.019   1.532  1.0806 -0.3032  0.9145
 5070TIP3   OH236700   1.229   6.694  15.271 -0.5479  0.3645  0.2149
 5070TIP3    H136701   1.291   6.712  15.200 -0.8831 -0.8709 -0.4142
 5070TIP3    H236702   1.184   6.777  15.286 -0.8601  0.5056 -1.4033
 5071TIP3   OH236703   4.479   1.954   1.233  0.4042  0.2464  0.0449
 5071TIP3    H136704   4.486   1.936   1.327 -0.1999  1.3673  0.3261
 5071TIP3    H236705   4.570   1.955   1.201  0.6548  0.5286  0.7543
 5072TIP3   OH236706   2.526   1.131  14.397 -0.0268 -0.5354  0.3965
 5072TIP3    H136707   2.473   1.152  14.474 -2.3557  0.4862 -1.3564
 5072TIP3    H236708   2.463   1.127  14.325  2.1936 -0.1563 -1.6974
 5073TIP3   OH236709   6.377   1.899  13.541 -0.5132  0.2055 -0.3861
 5073TIP3    H136710   6.289   1.925  13.515 -1.4728 -1.3412  1.1041
 5073TIP3    H236711   6.383   1.927  13.633 -0.1469 -1.2752  0.0655
 5074TIP3   OH236712   0.780   4.700  12.117  0.0328  0.4826 -0.3670
 5074TIP3    H136713   0.852   4.639  12.133 -1.7694 -1.6635  0.1427
 5074TIP3    H236714   0.765   4.695  12.022  0.9761  1.4828 -0.5816
 5075TIP3   OH236715   1.986   6.107  16.628 -0.0914 -0.1349 -0.6211
 5075TIP3    H136716   2.010   6.156  16.706 -0.0237  0.1997 -0.8486
 5075TIP3    H236717   1.891   6.115  16.622 -0.0061  0.6583 -1.0998
 5076TIP3   OH236718   1.211   5.315  14.855 -0.3887 -0.1078 -0.2529
 5076TIP3    H136719   1.147   5.324  14.785  0.3144 -0.6830 -0.9828
 5076TIP3    H236720   1.287   5.365  14.825 -0.5043  0.6325  0.6359
 5077TIP3   OH236721   1.870   2.035  13.198 -1.1685  0.5510 -0.5180
 5077TIP3    H136722   1.910   2.116  13.165 -0.6307  0.4826 -0.0432
 5077TIP3    H236723   1.789   2.026  13.147 -0.9790  1.1166 -0.9301
 5078TIP3   OH236724   4.630   3.269   4.879  0.0281 -0.1917  0.1934
 5078TIP3    H136725   4.607   3.271   4.972 -1.0464 -1.7098 -0.0055
 5078TIP3    H236726   4.567   3.208   4.840 -0.4311  1.4216 -1.7821
 5079TIP3   OH236727   6.586   4.859  17.338 -0.0237 -0.1848 -0.5327
 5079TIP3    H136728   6.549   4.780  17.300 -0.6087 -0.1189 -0.1098
 5079TIP3    H236729   6.604   4.836  17.429 -1.2794  0.4985 -0.0820
 5080TIP3   OH236730   2.498   2.347   6.779 -0.3995 -0.2705 -0.2302
 5080TIP3    H136731   2.535   2.317   6.862 -0.1143 -0.6487 -0.4932
 5080TIP3    H236732   2.570   2.341   6.717 -0.9351 -1.1479 -0.7801
 5081TIP3   OH236733   0.464   3.044   4.474 -0.3085 -0.0026  0.3115
 5081TIP3    H136734   0.549   3.085   4.494  0.2100 -0.1719 -1.3631
 5081TIP3    H236735   0.485   2.979   4.407 -1.5942 -0.9177  0.7719
 5082TIP3   OH236736   5.887   1.576   3.218  0.3820 -0.1215  0.2386
 5082TIP3    H136737   5.803   1.532   3.205 -0.1998 -0.1697  3.3519
 5082TIP3    H236738   5.952   1.514   3.186 -0.6500 -1.1643  0.0786
 5083TIP3   OH236739   4.283   5.544  15.215 -0.7092 -0.2824  0.5844
 5083TIP3    H136740   4.311   5.625  15.172 -0.6955  1.0279  2.9086
 5083TIP3    H236741   4.362   5.490  15.218 -0.2099  0.4426  0.7409
 5084TIP3   OH236742   5.025   3.995   2.114  0.3365 -0.5257 -0.5523
 5084TIP3    H136743   4.988   4.082   2.123  0.5951 -0.1676 -2.5959
 5084TIP3    H236744   5.026   3.960   2.204  0.5827  1.6922  0.3679
 5085TIP3   OH236745   1.534   4.431  11.719  0.3847 -0.3968  0.0926
 5085TIP3    H136746   1.526   4.500  11.653  3.2609 -0.6728 -0.6501
 5085TIP3    H236747   1.464   4.369  11.697 -0.5109  0.9025 -0.9109
 5086TIP3   OH236748   3.585   3.821   6.329  0.1403 -1.3128 -0.3229
 5086TIP3    H136749   3.656   3.852   6.385 -3.2869  1.9146  2.8034
 5086TIP3    H236750   3.571   3.730   6.357  1.7968 -1.4158  0.2937
 5087TIP3   OH236751   6.233   2.937  16.278 -0.4109  0.0940  0.3684
 5087TIP3    H136752   6.203   2.938  16.369  1.8053  2.2804  1.2047
 5087TIP3    H236753   6.306   2.875  16.278 -0.3918  0.1170  0.0922
 5088TIP3   OH236754   3.510   1.088   3.303  0.0049  0.1772 -0.5158
 5088TIP3    H136755   3.433   1.036   3.329  0.9422 -0.7683  0.5115
 5088TIP3    H236756   3.536   1.052   3.218 -1.9227  1.9615 -1.9526
 5089TIP3   OH236757   4.818   3.689  17.473 -0.3688  0.1967  0.2913
 5089TIP3    H136758   4.773   3.659  17.552  1.0212  0.4120  1.1981
 5089TIP3    H236759   4.818   3.614  17.415 -2.9063  0.5112 -0.2509
 5090TIP3   OH236760   1.451   3.106   1.735 -0.1669 -0.1195 -0.2621
 5090TIP3    H136761   1.536   3.093   1.692  0.2346  1.7327 -0.1044
 5090TIP3    H236762   1.428   3.019   1.767  1.4610 -0.7592 -0.6746
 5091TIP3   OH236763   1.058   2.967  14.373 -0.2086  0.5482 -0.3105
 5091TIP3    H136764   1.103   2.900  14.425 -0.1338 -1.5529 -2.8517
 5091TIP3    H236765   1.086   3.050  14.410  1.6212 -0.7912  1.4940
 5092TIP3   OH236766   2.699   5.894   3.882  0.2809  0.8058 -0.2594
 5092TIP3    H136767   2.624   5.886   3.941  0.1450 -0.1134 -0.5481
 5092TIP3    H236768   2.770   5.848   3.927  0.2747  0.4172 -0.6384
 5093TIP3   OH236769   4.865   4.723   5.526 -0.4950 -0.1458  0.0995
 5093TIP3    H136770   4.876   4.747   5.618  0.8875 -1.9378  0.4586
 5093TIP3    H236771   4.837   4.631   5.528 -1.4120  0.0693 -1.2720
 5094TIP3   OH236772   1.159   1.856  15.634  0.5318 -0.0963  0.0359
 5094TIP3    H136773   1.089   1.886  15.691 -0.7218  0.0867 -1.5393
 5094TIP3    H236774   1.206   1.936  15.610  1.0893 -0.1796  0.8280
 5095TIP3   OH236775   4.504   6.489  14.298  0.3361  0.1556  0.4255
 5095TIP3    H136776   4.422   6.520  14.336  0.6014  0.6013  0.6460
 5095TIP3    H236777   4.531   6.416  14.354 -1.6115 -2.2780 -1.5727
 5096TIP3   OH236778   4.636   0.723   4.487  0.1901  0.2774 -0.3915
 5096TIP3    H136779   4.727   0.695   4.483  0.2784  0.6084 -0.9132
 5096TIP3    H236780   4.612   0.718   4.579  0.1387 -1.6913 -0.4868
 5097TIP3   OH236781   4.658   2.181  12.350  0.7532 -0.1428  0.3405
 5097TIP3    H136782   4.682   2.265  12.389  1.6972  0.0885 -0.7037
 5097TIP3    H236783   4.696   2.183  12.262 -0.7018 -0.9542 -0.3488
 5098TIP3   OH236784   0.903   1.676  13.923 -0.0881 -0.2178 -0.3951
 5098TIP3    H136785   0.890   1.650  14.014  4.1161 -2.0866 -0.0750
 5098TIP3    H236786   0.836   1.628  13.874 -0.3709 -1.8412  1.4502
 5099TIP3   OH236787   1.949   6.160  12.723  0.3177 -0.2332 -0.2834
 5099TIP3    H136788   1.871   6.179  12.774  1.8705 -0.3367  2.2620
 5099TIP3    H236789   1.972   6.070  12.745  1.0412 -0.2935 -1.1925
 5100TIP3   OH236790   4.615   5.731  16.609  0.0567 -0.3245  0.1827
 5100TIP3    H136791   4.621   5.641  16.576 -1.7469 -0.1516 -0.7591
 5100TIP3    H236792   4.527   5.736  16.647  0.4969  0.7686  1.1038
 5101TIP3   OH236793   6.122   0.720  13.995 -0.0091  0.1779  0.0572
 5101TIP3    H136794   6.213   0.735  14.022  0.1415 -0.6018 -0.0022
 5101TIP3    H236795   6.078   0.802  14.015  0.4587  0.1823  1.1754
 5102TIP3   OH236796   5.442   0.893  12.732  0.2541 -0.0286  0.0680
 5102TIP3    H136797   5.477   0.952  12.799  0.8609 -0.6157  0.2779
 5102TIP3    H236798   5.388   0.830  12.781 -0.4717  0.4032 -0.1659
 5103TIP3   OH236799   0.518   1.460  15.624 -0.3166 -0.4640 -0.0604
 5103TIP3    H136800   0.500   1.492  15.713 -0.4769  0.4084 -0.3964
 5103TIP3    H236801   0.553   1.537  15.578  2.3719 -1.5302 -0.0046
 5104TIP3   OH236802   2.596   2.485   0.815 -0.5090 -0.3961 -0.2237
 5104TIP3    H136803   2.650   2.521   0.885 -0.8897 -3.3186  1.7662
 5104TIP3    H236804   2.513   2.533   0.822 -0.6913 -0.8927  1.6877
 5105TIP3   OH236805   6.051   2.120   4.158 -0.1662 -0.0785 -0.2803
 5105TIP3    H136806   6.079   2.167   4.237 -0.4896  1.1625 -0.8791
 5105TIP3    H236807   6.003   2.044   4.191 -0.8704  0.7705  0.7192
 5106TIP3   OH236808   2.042   2.985   3.844  0.2613 -0.2807  0.0517
 5106TIP3    H136809   2.118   3.030   3.805 -0.6734 -0.2608 -1.8525
 5106TIP3    H236810   1.966   3.025   3.801 -0.6786 -2.5160 -0.4866
 5107TIP3   OH236811   0.848   3.840  13.902  0.0183  0.0681  0.0614
 5107TIP3    H136812   0.840   3.841  13.997  0.5574 -0.3902  0.1162
 5107TIP3    H236813   0.790   3.910  13.872 -0.8257 -0.3693  0.6651
 5108TIP3   OH236814   4.210   1.616  11.639 -0.9735 -0.1960  0.3758
 5108TIP3    H136815   4.172   1.571  11.564 -1.7322  1.2266 -0.1299
 5108TIP3    H236816   4.137   1.629  11.700 -0.4807 -0.8369  1.1185
 5109TIP3   OH236817   2.858   1.988  15.861 -0.7106  0.4213 -0.3385
 5109TIP3    H136818   2.856   2.084  15.851 -0.1795  0.7257  1.8754
 5109TIP3    H236819   2.926   1.973  15.927  0.4377 -1.6454 -1.9010
 5110TIP3   OH236820   4.645   3.732   2.537 -0.0881  0.0675 -0.3582
 5110TIP3    H136821   4.640   3.678   2.458 -1.7516 -2.0236  1.0481
 5110TIP3    H236822   4.690   3.676   2.601 -0.5419  0.9349  0.7477
 5111TIP3   OH236823   3.761   0.016  14.156 -0.3251 -0.1903 -0.2515
 5111TIP3    H136824   3.824  -0.056  14.149  1.0361  0.9941 -0.4949
 5111TIP3    H236825   3.676  -0.028  14.160  0.5326 -1.8572  0.7730
 5112TIP3   OH236826   0.415   3.568   5.798 -0.3728 -0.1238  0.3168
 5112TIP3    H136827   0.464   3.608   5.726 -0.2754  2.1156  1.5461
 5112TIP3    H236828   0.472   3.499   5.830 -0.4891 -1.3021 -1.8030
 5113TIP3   OH236829   2.193   4.719  17.101 -0.3686  0.7453 -0.1857
 5113TIP3    H136830   2.241   4.777  17.042 -1.3831  0.3995 -1.3909
 5113TIP3    H236831   2.103   4.718  17.067 -0.8916  0.2148  1.1284
 5114TIP3   OH236832   1.066   5.113  15.289  0.1421  0.2264  0.1959
 5114TIP3    H136833   1.086   5.045  15.224  0.3237  1.6396 -1.2726
 5114TIP3    H236834   1.151   5.135  15.327  0.1255 -0.1176  0.4440
 5115TIP3   OH236835   5.418   5.224   3.247  0.5515  0.4772  0.6377
 5115TIP3    H136836   5.400   5.177   3.329  0.4162 -0.4485  0.0985
 5115TIP3    H236837   5.495   5.277   3.266  0.6468  0.1111  1.3027
 5116TIP3   OH236838   1.072   1.760   6.612 -0.0143 -0.1931  0.5175
 5116TIP3    H136839   1.122   1.821   6.667  0.5477 -1.7081  1.7557
 5116TIP3    H236840   1.138   1.715   6.559 -0.4164  0.1879 -0.3268
 5117TIP3   OH236841   1.990   1.244  17.158 -0.3191  0.0883  0.3532
 5117TIP3    H136842   2.055   1.180  17.188  0.1754  0.1804 -0.4873
 5117TIP3    H236843   2.041   1.310  17.111 -0.9666  0.4004  0.0782
 5118TIP3   OH236844   5.200   2.760   0.321 -0.5001 -0.2162 -0.3475
 5118TIP3    H136845   5.104   2.759   0.316 -0.5161  0.6886 -0.2697
 5118TIP3    H236846   5.224   2.852   0.310  0.4438 -0.6163 -2.0654
 5119TIP3   OH236847   5.670   3.795   3.441 -0.0273 -0.2250  0.3729
 5119TIP3    H136848   5.594   3.852   3.430 -0.0969 -0.4930 -0.6103
 5119TIP3    H236849   5.654   3.751   3.525 -0.4559  0.4650  0.6633
 5120TIP3   OH236850   0.366   2.984   3.767 -0.0333  0.1282 -0.5011
 5120TIP3    H136851   0.296   2.940   3.816  2.4688 -1.5116  1.8884
 5120TIP3    H236852   0.365   3.074   3.800 -1.7817  0.5166 -1.4876
 5121TIP3   OH236853   0.804   3.512  11.283 -0.0160 -0.1012 -0.0633
 5121TIP3    H136854   0.751   3.449  11.234 -0.4862  1.7901 -2.1262
 5121TIP3    H236855   0.763   3.597  11.265  2.1797  1.1266  0.4307
 5122TIP3   OH236856   4.098   4.845  12.191  0.2943  0.1765 -0.3155
 5122TIP3    H136857   4.081   4.938  12.176  0.6984  0.3929  0.5595
 5122TIP3    H236858   4.011   4.807  12.203 -0.3789 -0.4335 -5.1331
 5123TIP3   OH236859   5.781   2.333   3.367  0.5146  0.4813 -0.3852
 5123TIP3    H136860   5.852   2.397   3.379 -0.1348  1.0670  0.4604
 5123TIP3    H236861   5.774   2.323   3.272  1.5049  0.6700 -0.4871
 5124TIP3   OH236862   6.509   0.612   2.926  0.3380  0.4578  0.3656
 5124TIP3    H136863   6.584   0.615   2.866 -0.5470  1.8349 -0.7505
 5124TIP3    H236864   6.547   0.591   3.011  2.1964  2.4268  0.1093
 5125TIP3   OH236865   2.586   6.320  14.631 -0.4617  0.0419 -0.1924
 5125TIP3    H136866   2.636   6.243  14.659  0.3673  0.6666  0.0804
 5125TIP3    H236867   2.622   6.392  14.682 -1.1267  0.6489 -0.5575
 5126TIP3   OH236868   4.948   5.200  13.689  0.1606  0.3926 -0.1655
 5126TIP3    H136869   5.038   5.213  13.659 -0.4165  0.5608 -1.8799
 5126TIP3    H236870   4.909   5.142  13.624 -0.6720 -0.6197  1.1745
 5127TIP3   OH236871   1.672   2.481  15.716 -0.4969 -0.3438 -0.1395
 5127TIP3    H136872   1.619   2.559  15.734  0.8168  0.5960 -0.2005
 5127TIP3    H236873   1.696   2.490  15.624 -1.5467 -1.6064 -0.5625
 5128TIP3   OH236874   1.400   1.458  14.183  0.0063 -0.3941 -0.2274
 5128TIP3    H136875   1.437   1.516  14.117 -0.9227 -0.5835 -0.9301
 5128TIP3    H236876   1.321   1.504  14.214 -1.6445 -1.9095 -1.9198
 5129TIP3   OH236877   1.190   6.471  13.649 -0.1615 -0.4730  0.0368
 5129TIP3    H136878   1.122   6.533  13.621  1.6604  1.6619  0.0619
 5129TIP3    H236879   1.176   6.461  13.743 -1.0989 -0.9450 -0.1393
 5130TIP3   OH236880   4.894   2.508  11.483 -0.2698  0.3401  0.3412
 5130TIP3    H136881   4.814   2.543  11.444 -0.3802 -0.9891 -0.6960
 5130TIP3    H236882   4.954   2.498  11.409  0.6382  0.7091  1.0084
 5131TIP3   OH236883   3.669   0.361   2.530 -0.2664 -0.7111  0.6116
 5131TIP3    H136884   3.574   0.369   2.528 -0.2738 -0.8633  0.2131
 5131TIP3    H236885   3.686   0.270   2.553 -0.2155 -0.6579  0.7871
 5132TIP3   OH236886   6.010   4.262   2.585  0.2248  0.5188  0.2109
 5132TIP3    H136887   6.099   4.295   2.598  0.5422 -0.4360  0.5880
 5132TIP3    H236888   6.022   4.173   2.551 -0.6014  0.8686 -1.0687
 5133TIP3   OH236889   0.314   5.624   3.380 -0.1723 -0.0580  0.1701
 5133TIP3    H136890   0.260   5.592   3.452  0.7393  1.0843  1.4089
 5133TIP3    H236891   0.391   5.566   3.380  0.5213  0.8281  1.1021
 5134TIP3   OH236892   5.545   3.789  17.351  0.1702  0.0839 -0.0344
 5134TIP3    H136893   5.594   3.845  17.411 -0.4196  0.0306  0.4963
 5134TIP3    H236894   5.464   3.768  17.396  0.6852 -1.8332  0.1287
 5135TIP3   OH236895   5.732   1.472  11.547  0.1806 -0.0932  0.0336
 5135TIP3    H136896   5.697   1.404  11.605  1.5914  0.1579  1.2200
 5135TIP3    H236897   5.813   1.435  11.513  1.2758  1.1854  1.1587
 5136TIP3   OH236898   0.996   6.477   0.289 -0.0340  0.3781  0.1625
 5136TIP3    H136899   1.008   6.425   0.210  1.1710  0.0406  0.5488
 5136TIP3    H236900   1.051   6.554   0.275 -0.3904  0.6734  0.3666
 5137TIP3   OH236901   3.493   1.216   2.832  0.5060  0.3804  0.1869
 5137TIP3    H136902   3.586   1.239   2.842  0.6950  1.6546 -3.1181
 5137TIP3    H236903   3.493   1.143   2.770 -0.6770  0.9210 -0.4886
 5138TIP3   OH236904   3.678   5.336   5.506  0.2208  0.0237 -0.2265
 5138TIP3    H136905   3.632   5.416   5.483  3.3622  2.2618  0.5129
 5138TIP3    H236906   3.680   5.336   5.602  1.4513 -0.1442 -0.2344
 5139TIP3   OH236907   5.030   4.013  13.777  0.3981 -0.1104 -0.0581
 5139TIP3    H136908   5.039   4.083  13.841  1.5556 -0.2876 -0.0044
 5139TIP3    H236909   4.944   3.975  13.796 -0.3677  1.4455 -0.2743
 5140TIP3   OH236910   0.541   1.378   5.169 -0.1287  0.0986  0.3534
 5140TIP3    H136911   0.526   1.291   5.132 -1.1453  0.2127  0.4610
 5140TIP3    H236912   0.633   1.377   5.195 -0.2187 -1.0717  0.6953
 5141TIP3   OH236913   2.730   1.670   0.256 -0.2606 -0.7261 -0.1336
 5141TIP3    H136914   2.819   1.635   0.270 -1.2498 -3.8763 -0.9329
 5141TIP3    H236915   2.680   1.638   0.331 -0.6739  1.6062  0.6796
 5142TIP3   OH236916   0.054   3.241  14.561 -0.1377 -0.0544  0.1117
 5142TIP3    H136917  -0.001   3.237  14.483  0.0132 -1.8223  0.0681
 5142TIP3    H236918   0.122   3.175  14.547  1.5548  1.5098  0.5182
 5143TIP3   OH236919   0.028   4.599   2.432 -0.3699 -0.0644  0.0519
 5143TIP3    H136920   0.073   4.521   2.399 -0.4383 -0.1593  0.1799
 5143TIP3    H236921   0.068   4.672   2.384  0.1722 -0.1118  0.4196
 5144TIP3   OH236922   3.672   5.019   5.509 -0.1126 -0.2067  0.0820
 5144TIP3    H136923   3.582   5.046   5.528  0.0293  0.8072 -0.5803
 5144TIP3    H236924   3.726   5.093   5.538  0.4163 -0.3622 -0.4822
 5145TIP3   OH236925   4.656   4.936  16.544  0.1487 -0.4621 -0.0339
 5145TIP3    H136926   4.650   4.850  16.503  1.7950 -1.4800  1.6979
 5145TIP3    H236927   4.714   4.986  16.487 -2.3226  0.2608 -2.1102
 5146TIP3   OH236928   0.698   5.266   6.805 -0.5739  0.4064  0.5526
 5146TIP3    H136929   0.738   5.181   6.823 -1.2462 -0.0440 -0.0323
 5146TIP3    H236930   0.728   5.322   6.877  0.3941 -0.1393  0.6005
 5147TIP3   OH236931   4.386   3.891  12.814  0.2384 -0.1452 -0.8132
 5147TIP3    H136932   4.326   3.853  12.749 -0.4694  0.0393 -0.2888
 5147TIP3    H236933   4.370   3.840  12.893 -1.0077  1.4467  0.0228
 5148TIP3   OH236934   4.327   5.733   4.751  0.3102 -0.5579  0.0215
 5148TIP3    H136935   4.356   5.697   4.835 -0.6050  1.2809  1.1847
 5148TIP3    H236936   4.408   5.753   4.705  0.8416 -0.6240  0.9045
 5149TIP3   OH236937   6.432   3.561   2.300  0.1520 -0.3967  0.7004
 5149TIP3    H136938   6.517   3.601   2.315  0.1002  0.3259 -0.7512
 5149TIP3    H236939   6.452   3.469   2.280  0.6544 -0.1097 -0.1718
 5150TIP3   OH236940   4.902   4.583   5.745 -0.9358  0.1080 -0.0554
 5150TIP3    H136941   4.978   4.611   5.795 -1.4003  0.9946  0.1805
 5150TIP3    H236942   4.922   4.493   5.718  0.9679  0.9187 -1.5471
 5151TIP3   OH236943   0.935   2.375  12.027 -0.3897 -0.2466  0.1896
 5151TIP3    H136944   0.959   2.406  11.940 -0.6235  0.3668  0.3351
 5151TIP3    H236945   0.887   2.449  12.066 -0.0420 -0.4030  0.9392
 5152TIP3   OH236946   5.833   2.699   2.363 -0.6281  0.0274 -0.0704
 5152TIP3    H136947   5.799   2.612   2.385  0.3085 -0.8951 -1.9668
 5152TIP3    H236948   5.759   2.758   2.375 -1.0445 -0.8461  2.1481
 5153TIP3   OH236949   4.064   0.426   3.648 -0.2581  0.3794 -0.1776
 5153TIP3    H136950   4.119   0.504   3.649  0.4082 -0.0805 -0.4260
 5153TIP3    H236951   4.042   0.410   3.740 -0.9596  1.2421 -0.1862
 5154TIP3   OH236952   6.709   4.450   2.892 -0.1880  0.1650  0.3251
 5154TIP3    H136953   6.668   4.527   2.854 -2.5287 -1.1920 -0.0757
 5154TIP3    H236954   6.739   4.478   2.979  0.5948  1.9255 -0.4675
 5155TIP3   OH236955   3.719   2.595   4.435 -0.2741 -0.1422  0.1395
 5155TIP3    H136956   3.686   2.516   4.391 -1.5144 -0.0358  0.8193
 5155TIP3    H236957   3.812   2.578   4.448  0.0265 -0.4156 -1.9594
 5156TIP3   OH236958   4.512   6.471   4.325  0.7697  0.5092  0.5175
 5156TIP3    H136959   4.526   6.423   4.406  0.2194 -0.0670  0.2826
 5156TIP3    H236960   4.446   6.537   4.347 -0.2525 -0.4014  0.2747
 5157TIP3   OH236961   1.471   3.331  14.570  0.0445  0.0463 -0.2878
 5157TIP3    H136962   1.558   3.326  14.610  0.9168 -0.0852 -2.0766
 5157TIP3    H236963   1.413   3.289  14.633  1.3723 -0.4212  0.6833
 5158TIP3   OH236964   1.306   0.522   0.335 -0.3698  0.1806  0.0982
 5158TIP3    H136965   1.321   0.539   0.428  0.7731 -2.5680  0.5116
 5158TIP3    H236966   1.222   0.564   0.316  0.4956  2.8807  1.7029
 5159TIP3   OH236967   4.594   4.325   4.885 -0.5151 -0.3619  0.3531
 5159TIP3    H136968   4.645   4.403   4.906  0.6887 -0.1805 -2.6697
 5159TIP3    H236969   4.505   4.357   4.872 -0.4452  0.1409  1.0591
 5160TIP3   OH236970   1.311   3.512  12.971 -0.0175 -0.2453  0.2516
 5160TIP3    H136971   1.233   3.459  12.983 -0.7815  1.0122  1.1644
 5160TIP3    H236972   1.376   3.475  13.032  0.1691 -1.3786 -0.6118
 5161TIP3   OH236973   5.949   5.783   3.373 -0.2467  0.4600  0.4081
 5161TIP3    H136974   5.944   5.692   3.402  0.1273  0.1959 -0.3472
 5161TIP3    H236975   5.906   5.833   3.443  0.8024 -0.1497  1.5326
 5162TIP3   OH236976   1.144   0.028  12.543  0.3939 -0.9680  0.8312
 5162TIP3    H136977   1.172  -0.018  12.463 -2.2016  0.7236 -1.1990
 5162TIP3    H236978   1.172   0.118  12.530 -1.7329 -0.2426  0.8272
 5163TIP3   OH236979   1.732   0.152  14.052  0.2371  0.1054 -0.3248
 5163TIP3    H136980   1.711   0.128  14.142  0.0989  0.4555 -0.2591
 5163TIP3    H236981   1.750   0.246  14.057  1.1072 -0.0435 -0.5107
 5164TIP3   OH236982   1.776   5.745   0.723  0.2961  0.2022 -0.2740
 5164TIP3    H136983   1.707   5.682   0.701 -0.8618  0.6440  1.8647
 5164TIP3    H236984   1.828   5.701   0.789  1.8176  0.0857 -1.4958
 5165TIP3   OH236985   3.814   2.608   0.287 -0.2490  0.1324  0.3693
 5165TIP3    H136986   3.836   2.515   0.288  0.4551  0.2779 -0.5622
 5165TIP3    H236987   3.896   2.653   0.268 -1.0597  0.7640 -2.0117
 5166TIP3   OH236988   1.375   4.508   5.427  0.1010  0.0191  0.3775
 5166TIP3    H136989   1.418   4.439   5.377 -1.6609 -0.6318 -0.3113
 5166TIP3    H236990   1.434   4.525   5.501  1.5454 -0.7530 -0.5570
 5167TIP3   OH236991   2.403   6.121  12.603 -0.1507 -0.0054 -0.1609
 5167TIP3    H136992   2.356   6.178  12.663 -2.1694 -0.8358 -0.8827
 5167TIP3    H236993   2.354   6.127  12.521  2.3245  0.8420 -1.6912
 5168TIP3   OH236994   4.099   5.565   5.180 -0.1972 -0.2847  0.1731
 5168TIP3    H136995   4.112   5.601   5.093 -2.8742  1.8823  0.5324
 5168TIP3    H236996   4.019   5.606   5.212 -0.6922 -2.8560  2.7224
 5169TIP3   OH236997   4.611   5.441  12.076  0.6254  0.6273 -0.1168
 5169TIP3    H136998   4.518   5.456  12.095  0.8178  1.1977  0.4175
 5169TIP3    H236999   4.614   5.420  11.983 -0.3381 -2.0688  0.3594
 5170TIP3   OH237000   0.248   6.054  16.445  0.3169 -0.3946  0.7200
 5170TIP3    H137001   0.207   6.132  16.407 -1.3863  0.0894  3.3697
 5170TIP3    H237002   0.193   5.981  16.416  1.6343 -0.6587 -1.3554
 5171TIP3   OH237003   3.033   2.451   1.876 -0.0929 -0.1835  0.0869
 5171TIP3    H137004   3.047   2.535   1.921 -1.4798  0.4561 -0.6191
 5171TIP3    H237005   2.941   2.431   1.890 -0.0025 -1.1228 -0.5629
 5172TIP3   OH237006   0.839   0.841   5.201 -0.0513  0.2424 -0.0799
 5172TIP3    H137007   0.837   0.780   5.275 -0.5596  1.9242  1.3658
 5172TIP3    H237008   0.929   0.838   5.170  0.2561 -0.2658  0.8250
 5173TIP3   OH237009   6.728   0.258   0.171 -0.1384  0.2491  0.6707
 5173TIP3    H137010   6.680   0.308   0.105  0.9477  0.4159 -0.0098
 5173TIP3    H237011   6.670   0.185   0.192 -1.5200  1.4594  1.2867
 5174TIP3   OH237012   4.541   0.898  13.269  0.1764 -0.2145  0.4064
 5174TIP3    H137013   4.484   0.823  13.285 -1.4913  0.1827 -2.8665
 5174TIP3    H237014   4.590   0.875  13.191  0.8162  1.4452  0.2730
 5175TIP3   OH237015   2.659   3.794  12.233  0.2414  0.1660  0.2118
 5175TIP3    H137016   2.575   3.756  12.208  0.1505  0.5435 -0.0608
 5175TIP3    H237017   2.643   3.832  12.320  0.6352 -1.3954  1.0059
 5176TIP3   OH237018   1.521   0.901  10.842  0.3505  0.2911  0.2645
 5176TIP3    H137019   1.484   0.983  10.810 -0.2453  0.2127  0.7220
 5176TIP3    H237020   1.456   0.835  10.818 -0.4249  0.3157  2.1229
 5177TIP3   OH237021   3.824   1.754   4.403  0.0697 -0.1840 -0.1545
 5177TIP3    H137022   3.898   1.814   4.414  1.2516 -1.6822  0.5685
 5177TIP3    H237023   3.853   1.694   4.334 -1.0853  0.0650 -0.8775
 5178TIP3   OH237024   6.193   2.206   3.969  0.2836  0.4187  0.0657
 5178TIP3    H137025   6.280   2.168   3.955  0.4425  1.0514 -0.7809
 5178TIP3    H237026   6.159   2.161   4.046  2.1217  1.4633  1.5629
 5179TIP3   OH237027   2.533   1.236   0.105  0.0244  0.4142 -0.0040
 5179TIP3    H137028   2.614   1.254   0.057  0.3265 -0.6679  0.0801
 5179TIP3    H237029   2.506   1.322   0.139 -0.9097  1.4736 -3.1164
 5180TIP3   OH237030   5.040   1.436   0.176 -0.1133 -0.1996 -0.9436
 5180TIP3    H137031   5.037   1.361   0.235 -1.0035  0.2643 -0.3741
 5180TIP3    H237032   5.120   1.423   0.125  2.6880  1.1054  2.6351
 5181TIP3   OH237033   5.648   0.547  14.317 -0.5482  0.1386  0.1006
 5181TIP3    H137034   5.555   0.569  14.322 -0.4653  0.5612 -0.2399
 5181TIP3    H237035   5.661   0.518  14.227 -0.9200 -2.5162  0.7969
 5182TIP3   OH237036   2.332   5.584  17.478 -0.1932  0.7584 -0.1531
 5182TIP3    H137037   2.263   5.522  17.501  2.0702 -2.1519 -0.5808
 5182TIP3    H237038   2.303   5.622  17.395 -1.8809  0.7098  0.3672
 5183TIP3   OH237039   4.025   1.933  14.062 -0.1805  0.9724 -0.3528
 5183TIP3    H137040   4.001   1.987  13.986  0.4005  1.4324 -0.2156
 5183TIP3    H237041   3.946   1.933  14.116 -1.0226 -0.3575 -1.5041
 5184TIP3   OH237042   3.020   2.620   2.267 -0.2762 -0.1768  0.2436
 5184TIP3    H137043   3.060   2.611   2.354  1.6784 -0.7483 -0.6592
 5184TIP3    H237044   2.955   2.550   2.264 -1.7282  1.0148  1.8974
 5185TIP3   OH237045   0.084   4.734   4.332 -0.2722  0.2058 -0.1461
 5185TIP3    H137046   0.012   4.780   4.375 -0.3229 -0.5610  0.6275
 5185TIP3    H237047   0.110   4.667   4.395  1.4364  0.7566 -0.2012
 5186TIP3   OH237048   1.331   0.573  13.465 -0.0646  0.0104 -0.0459
 5186TIP3    H137049   1.337   0.667  13.449  0.6198  0.4414  2.3444
 5186TIP3    H237050   1.244   0.561  13.503  0.5545  0.0638  1.4918
 5187TIP3   OH237051   1.248   4.509   4.527  0.4265 -0.0249  0.3609
 5187TIP3    H137052   1.240   4.417   4.552 -1.8122  0.1222  0.3384
 5187TIP3    H237053   1.263   4.555   4.609  3.4181 -0.5019  0.2059
 5188TIP3   OH237054   6.320   1.282  15.351  0.1705  0.0182 -0.1079
 5188TIP3    H137055   6.384   1.233  15.300 -0.8074 -0.6440 -0.7142
 5188TIP3    H237056   6.365   1.300  15.434  1.9401  1.4589 -1.2804
 5189TIP3   OH237057   4.186   0.074  17.385  0.1134  0.4258  0.5082
 5189TIP3    H137058   4.128   0.038  17.452 -0.3504  0.7937  0.3133
 5189TIP3    H237059   4.142   0.154  17.356 -0.4712 -0.5028 -1.3200
 5190TIP3   OH237060   4.572   4.090  17.348 -0.8848  0.0057 -0.2148
 5190TIP3    H137061   4.493   4.126  17.306  0.6725  4.0608 -0.0984
 5190TIP3    H237062   4.640   4.154  17.330  1.7371 -1.8629  2.1806
 5191TIP3   OH237063   0.940   3.654  12.808 -0.2749 -0.0503 -0.0111
 5191TIP3    H137064   0.937   3.563  12.781 -0.2938 -0.2542  0.6513
 5191TIP3    H237065   1.033   3.672  12.824 -0.2914 -0.0178  0.0523
 5192TIP3   OH237066   4.034   2.208  13.805  0.1295  0.0261 -0.1463
 5192TIP3    H137067   4.106   2.205  13.868  0.3926 -0.4970 -0.4714
 5192TIP3    H237068   4.029   2.300  13.779  0.7441  0.0504 -0.1920
 5193TIP3   OH237069   4.104   0.975   0.957  0.1651  0.4159 -0.0659
 5193TIP3    H137070   4.021   1.019   0.974 -0.6600 -0.8100 -0.7413
 5193TIP3    H237071   4.122   0.994   0.865 -0.1990 -0.5997 -0.3660
 5194TIP3   OH237072   0.575   2.658  16.263  0.1246 -0.4487 -0.3635
 5194TIP3    H137073   0.582   2.723  16.333 -0.1003 -0.3495 -0.4333
 5194TIP3    H237074   0.602   2.704  16.184 -0.9258 -0.1643 -0.5740
 5195TIP3   OH237075   5.201   2.933   4.328  0.1312  0.2674  0.0270
 5195TIP3    H137076   5.176   2.943   4.420  0.8441 -0.2889  0.2972
 5195TIP3    H237077   5.145   2.862   4.296  1.2614 -0.9312  0.6116
 5196TIP3   OH237078   3.085   0.894   3.166 -0.3976 -0.1592  0.1886
 5196TIP3    H137079   3.038   0.814   3.191 -1.9043  0.2375 -1.2488
 5196TIP3    H237080   3.032   0.933   3.096  1.3090  1.1034 -0.4742
 5197TIP3   OH237081   0.638   2.043   5.280 -0.4887  0.9752  0.0803
 5197TIP3    H137082   0.550   2.078   5.288 -0.9805 -0.1977 -0.1338
 5197TIP3    H237083   0.694   2.112   5.317 -1.5965  1.1039  1.6018
 5198TIP3   OH237084   1.441   3.380   0.430  0.1688  0.1050  0.0161
 5198TIP3    H137085   1.394   3.430   0.363 -1.1480 -0.4147  0.5049
 5198TIP3    H237086   1.388   3.301   0.442  0.3142  0.2167  1.7021
 5199TIP3   OH237087   2.438   5.682  16.407  0.4403 -0.0793 -0.5987
 5199TIP3    H137088   2.519   5.703  16.361  0.7077  1.6710  0.5828
 5199TIP3    H237089   2.379   5.756  16.388  0.0204 -0.0868  0.5692
 5200TIP3   OH237090   3.745   1.373   0.004  0.2977  0.6075  0.7223
 5200TIP3    H137091   3.782   1.371  -0.085  0.4696  1.7983  0.7476
 5200TIP3    H237092   3.788   1.300   0.049 -0.5590 -0.6618 -0.4502
 5201TIP3   OH237093   1.397   2.199   0.677 -0.5086 -0.1968 -0.2691
 5201TIP3    H137094   1.367   2.195   0.768 -3.2331  1.5111 -0.9722
 5201TIP3    H237095   1.451   2.278   0.672 -0.4666 -0.2190 -0.1551
 5202TIP3   OH237096   4.471   2.311   2.190  0.2971  0.1263  0.0965
 5202TIP3    H137097   4.503   2.356   2.269 -0.0671  0.3693  0.1138
 5202TIP3    H237098   4.453   2.222   2.219 -2.3885  0.8476  1.0309
 5203TIP3   OH237099   1.724   5.229  16.918 -0.0817 -0.0014 -0.0428
 5203TIP3    H137100   1.687   5.142  16.934  1.4387 -0.5128  0.9674
 5203TIP3    H237101   1.683   5.284  16.985 -1.3986  0.2048 -0.9765
 5204TIP3   OH237102   3.029   0.773   4.200 -0.0134  0.2595 -0.5647
 5204TIP3    H137103   3.071   0.780   4.286  1.2429 -1.4138 -0.9991
 5204TIP3    H237104   3.046   0.858   4.159  0.7632  0.5117  0.2257
 5205TIP3   OH237105   4.093   6.545  13.090 -0.0990  0.1605 -0.0308
 5205TIP3    H137106   4.051   6.523  13.007  0.8816 -0.1909 -0.4418
 5205TIP3    H237107   4.042   6.497  13.156 -0.8997  0.4643 -0.4105
 5206TIP3   OH237108   6.698   1.140  14.411  0.2957 -0.5991 -0.0089
 5206TIP3    H137109   6.664   1.102  14.492 -1.2866 -1.7371 -1.1580
 5206TIP3    H237110   6.680   1.234  14.419  1.3164 -0.4987  1.4753
 5207TIP3   OH237111   4.929   3.634  14.489 -0.1289  0.2746 -0.0859
 5207TIP3    H137112   4.907   3.724  14.468 -1.0459  0.3435  1.0445
 5207TIP3    H237113   4.903   3.584  14.412 -1.3322  0.7610 -0.0140
 5208TIP3   OH237114   6.463   3.982  16.337  0.5082 -0.0168 -0.9031
 5208TIP3    H137115   6.525   4.056  16.333  0.0475  0.4786  0.5362
 5208TIP3    H237116   6.398   4.002  16.270  1.2783  0.0362 -1.6500
 5209TIP3   OH237117   0.454   4.146   1.645  0.5531  0.5379 -0.1780
 5209TIP3    H137118   0.490   4.233   1.628 -1.3692  1.6609  1.1287
 5209TIP3    H237119   0.503   4.114   1.721 -0.6370  1.7603  1.1604
 5210TIP3   OH237120   1.405   0.092   6.359 -0.4123 -0.2331  0.1879
 5210TIP3    H137121   1.492   0.133   6.357  0.4327 -1.9443  0.2475
 5210TIP3    H237122   1.388   0.076   6.452 -0.4335 -0.6201  0.1187
 5211TIP3   OH237123   0.849   6.287   5.391  0.1025  0.3999 -0.5420
 5211TIP3    H137124   0.848   6.348   5.318 -0.4567 -0.1271 -0.9750
 5211TIP3    H237125   0.758   6.283   5.421  0.1385 -0.1916 -0.4978
 5212TIP3   OH237126   0.255   5.705  13.572 -0.1216 -0.3606  0.6332
 5212TIP3    H137127   0.319   5.648  13.614  1.1316  0.7597  0.3492
 5212TIP3    H237128   0.284   5.709  13.480  0.5736  1.6563  0.8936
 5213TIP3   OH237129   5.900   5.705  14.600 -0.5408 -0.2587  0.5765
 5213TIP3    H137130   5.887   5.637  14.535 -2.3369  0.2165  0.3710
 5213TIP3    H237131   5.819   5.706  14.650  0.0686  0.6690  1.5920
 5214TIP3   OH237132   3.970   2.636  14.400 -0.3448  0.5778  0.1290
 5214TIP3    H137133   3.885   2.642  14.356 -0.5351 -2.9900 -0.2944
 5214TIP3    H237134   4.030   2.604  14.333 -0.2510 -3.2862  1.7886
 5215TIP3   OH237135   5.406   6.490   0.438 -1.2003  0.5253  0.4312
 5215TIP3    H137136   5.381   6.550   0.509 -2.8428 -1.1028  1.3053
 5215TIP3    H237137   5.344   6.418   0.445 -0.0325 -0.7173 -1.3443
 5216TIP3   OH237138   3.376   3.097   2.112 -0.5273  0.2110 -0.0153
 5216TIP3    H137139   3.428   3.099   2.192 -1.4266 -0.2781  0.5893
 5216TIP3    H237140   3.397   3.179   2.068  0.0462  0.4422  0.6736
 5217TIP3   OH237141   3.637   5.428   4.785 -0.0843  0.3669 -0.1710
 5217TIP3    H137142   3.636   5.486   4.861 -2.6897  0.3855 -0.1132
 5217TIP3    H237143   3.723   5.441   4.745  0.7578  1.5118  1.8803
 5218TIP3   OH237144   4.309   5.406  14.263 -0.2676 -0.2605 -0.0190
 5218TIP3    H137145   4.260   5.388  14.344 -0.2229 -0.3194 -0.0045
 5218TIP3    H237146   4.271   5.347  14.198 -2.7321  2.2099 -1.0049
 5219TIP3   OH237147   0.559   4.875   2.978 -0.1708 -0.0477 -0.1426
 5219TIP3    H137148   0.623   4.847   2.912 -0.9188 -0.5517 -0.6668
 5219TIP3    H237149   0.482   4.901   2.928  0.0590  1.8198  0.4114
 5220TIP3   OH237150   2.765   6.396   2.302  0.1450 -0.5584  0.6336
 5220TIP3    H137151   2.739   6.471   2.249 -1.5281 -0.8352  1.0205
 5220TIP3    H237152   2.715   6.323   2.267  0.9746 -1.2897  0.9321
 5221TIP3   OH237153   5.784   3.896   3.799 -0.1841  0.0667 -0.7460
 5221TIP3    H137154   5.767   3.829   3.865  0.6322 -1.4349 -1.9874
 5221TIP3    H237155   5.876   3.884   3.775 -0.2673  1.0366 -1.6634
 5222TIP3   OH237156   3.154   0.930   6.429  0.4097  0.1245 -0.1371
 5222TIP3    H137157   3.170   0.925   6.523 -0.3400 -0.2258 -0.0253
 5222TIP3    H237158   3.074   0.982   6.420 -0.0778 -0.6795 -0.5239
 5223TIP3   OH237159   4.644   0.910   2.522  0.0945 -0.6197 -0.1868
 5223TIP3    H137160   4.618   0.823   2.491 -0.3598  0.3128 -2.7192
 5223TIP3    H237161   4.739   0.904   2.535 -0.0585 -1.7085  0.5092
 5224TIP3   OH237162   1.821   0.729   0.567  0.1902 -0.2962 -0.4722
 5224TIP3    H137163   1.903   0.700   0.608 -0.3613 -1.1289  0.0615
 5224TIP3    H237164   1.767   0.650   0.563 -1.1218  0.5258  0.4723
 5225TIP3   OH237165   0.813   0.996   2.529 -0.5056 -0.2130  0.2416
 5225TIP3    H137166   0.758   0.918   2.525 -1.6662  0.5960  0.0315
 5225TIP3    H237167   0.765   1.057   2.586  0.1425  0.5349  0.0128
 5226TIP3   OH237168   2.696   3.869   3.343  0.1846  0.1384 -0.5361
 5226TIP3    H137169   2.627   3.815   3.303  0.4465 -0.6243 -0.0011
 5226TIP3    H237170   2.698   3.839   3.434  2.4003 -1.0849 -0.9355
 5227TIP3   OH237171   2.294   0.865   5.779  0.0082  0.3885  0.1747
 5227TIP3    H137172   2.340   0.807   5.839  0.1618 -1.0804 -1.2939
 5227TIP3    H237173   2.356   0.936   5.761  1.2522 -0.9099 -0.8009
 5228TIP3   OH237174   6.212   5.517   3.141 -0.4273 -0.0569 -0.0841
 5228TIP3    H137175   6.270   5.569   3.197  0.4548  0.4552 -1.4251
 5228TIP3    H237176   6.145   5.484   3.201 -0.3808  1.6987  1.0030
 5229TIP3   OH237177   6.595   0.169  15.945  0.4664 -0.0828 -0.2128
 5229TIP3    H137178   6.569   0.210  16.028  0.2768  0.1260 -0.3741
 5229TIP3    H237179   6.566   0.078  15.954  2.0658 -0.5446  0.6775
 5230TIP3   OH237180   2.503   6.206  16.313 -0.1597 -0.6124 -0.3991
 5230TIP3    H137181   2.474   6.297  16.318  0.6058 -0.4167  1.5181
 5230TIP3    H237182   2.435   6.162  16.263 -0.0640  1.1679 -2.1942
 5231TIP3   OH237183   3.724   2.111  15.426  0.3163  0.4011  0.1720
 5231TIP3    H137184   3.710   2.026  15.386 -1.7814  1.2279 -1.0205
 5231TIP3    H237185   3.709   2.096  15.520 -0.3855 -0.4889 -0.0655
 5232TIP3   OH237186   4.818   6.184   3.075  0.3681 -0.3878  0.1563
 5232TIP3    H137187   4.754   6.246   3.109 -1.0841 -1.0100 -1.3387
 5232TIP3    H237188   4.777   6.098   3.088  0.9150 -0.8010 -0.7487
 5233TIP3   OH237189   6.261   0.651  12.787  0.0410 -0.2671  0.1769
 5233TIP3    H137190   6.303   0.592  12.724 -0.0538  0.1679 -0.2922
 5233TIP3    H237191   6.223   0.720  12.734 -0.8748 -0.4061  0.6343
 5234TIP3   OH237192   3.500   3.043   1.545 -0.2513  0.8700  0.0287
 5234TIP3    H137193   3.420   3.069   1.590 -0.7527  1.4993 -1.1883
 5234TIP3    H237194   3.564   3.029   1.616 -1.4329  0.2958  1.0141
 5235TIP3   OH237195   5.475   5.418   1.786  0.3942  0.2014 -0.0455
 5235TIP3    H137196   5.548   5.423   1.724  0.2782  1.3817 -0.1131
 5235TIP3    H237197   5.451   5.509   1.803 -0.9536 -0.1496  0.1139
 5236TIP3   OH237198   1.056   1.787   1.954 -0.4055 -0.0549 -0.7857
 5236TIP3    H137199   1.124   1.843   1.917 -1.1952  0.6358 -1.2425
 5236TIP3    H237200   0.979   1.843   1.960 -1.1432 -1.0068 -0.9685
 5237TIP3   OH237201   2.717   5.468   3.681  0.2335 -0.3660  1.1288
 5237TIP3    H137202   2.637   5.516   3.663  0.9871  0.3737 -0.4529
 5237TIP3    H237203   2.736   5.487   3.773 -0.0883  1.4903  0.8585
 5238TIP3   OH237204   5.406   0.411   4.367 -0.4091 -0.3544  0.2593
 5238TIP3    H137205   5.329   0.373   4.408 -1.3118  0.7357 -0.3652
 5238TIP3    H237206   5.380   0.423   4.275  0.9838 -1.2309 -0.2766
 5239TIP3   OH237207   5.302   5.541   2.335 -0.3680 -0.3803  0.2365
 5239TIP3    H137208   5.277   5.627   2.301  0.9811  0.9614  2.3563
 5239TIP3    H237209   5.367   5.509   2.273 -2.0210 -0.6726 -1.4441
 5240TIP3   OH237210   4.503   5.370   0.382 -0.0537 -0.9008  0.5448
 5240TIP3    H137211   4.536   5.305   0.443 -0.6214  0.4467  2.3742
 5240TIP3    H237212   4.579   5.425   0.362  0.9304 -3.0736 -2.5174
 5241TIP3   OH237213   4.511   2.536  14.164 -0.4604  0.1951  0.2249
 5241TIP3    H137214   4.495   2.557  14.072 -0.8015 -0.5117  0.1155
 5241TIP3    H237215   4.558   2.612  14.198  0.5271  0.0470 -0.7748
 5242TIP3   OH237216   2.994   6.222   4.224  0.6872 -0.1840 -0.0046
 5242TIP3    H137217   3.024   6.288   4.163  1.8196 -2.1529 -1.6998
 5242TIP3    H237218   2.903   6.206   4.200  0.6770  0.1136 -0.1630
 5243TIP3   OH237219   3.126   4.711  16.449 -0.0780  0.6426  0.0489
 5243TIP3    H137220   3.036   4.743  16.443 -0.2206  0.5036  1.2506
 5243TIP3    H237221   3.155   4.705  16.358 -2.0547 -1.4961 -0.5438
 5244TIP3   OH237222   5.187   6.493  15.890 -0.0004 -0.5809 -0.0643
 5244TIP3    H137223   5.155   6.573  15.932  3.0036  0.8757 -0.3138
 5244TIP3    H237224   5.242   6.450  15.956  2.1332  0.0380 -1.3404
 5245TIP3   OH237225   0.060   5.775  15.714  0.2466  0.2413  0.1141
 5245TIP3    H137226   0.065   5.803  15.805 -0.6431 -1.1388  0.6311
 5245TIP3    H237227   0.051   5.679  15.719  2.8821 -0.1896 -1.5273
 5246TIP3   OH237228   4.440   5.713   4.147  0.3590  0.1696  0.7964
 5246TIP3    H137229   4.488   5.736   4.226  0.7176  1.0064  0.3519
 5246TIP3    H237230   4.501   5.731   4.075  0.2208 -1.0651  0.3484
 5247TIP3   OH237231   0.341   3.799   3.688 -0.1772  0.1325  0.6915
 5247TIP3    H137232   0.265   3.828   3.637  0.3044  2.0590  0.9612
 5247TIP3    H237233   0.318   3.817   3.779  1.4674  3.2641  0.6307
 5248TIP3   OH237234   1.308   4.041   4.911 -0.0559  0.2089  0.1888
 5248TIP3    H137235   1.367   3.991   4.967 -1.4984  0.5380  2.0941
 5248TIP3    H237236   1.352   4.125   4.898  0.3853  0.0550  0.6774
 5249TIP3   OH237237   6.679   6.241   1.532 -0.5819  0.1847  0.2672
 5249TIP3    H137238   6.718   6.154   1.536 -2.3492 -0.5880  2.0027
 5249TIP3    H237239   6.585   6.226   1.526 -0.9040  1.9696  0.3032
 5250TIP3   OH237240   2.242   4.811  11.596  0.4123 -0.1777 -0.0126
 5250TIP3    H137241   2.245   4.845  11.686  0.2224  0.3337 -0.1940
 5250TIP3    H237242   2.272   4.721  11.604  0.7774 -0.0172  0.5075
 5251TIP3   OH237243   4.489   0.252  13.108  0.4122 -0.1878  0.0349
 5251TIP3    H137244   4.436   0.263  13.028  0.8953  1.3894 -0.1121
 5251TIP3    H237245   4.578   0.236  13.075  0.8169  1.5133  0.1970
 5252TIP3   OH237246   2.742   5.256  13.796 -0.1591 -0.2850 -0.2249
 5252TIP3    H137247   2.762   5.295  13.881 -2.1439 -1.2119  0.7384
 5252TIP3    H237248   2.797   5.305  13.734 -0.8078  2.4863  1.1863
 5253TIP3   OH237249   2.727   5.638  16.352  0.0900  0.4797 -0.0814
 5253TIP3    H137250   2.786   5.579  16.399  2.7475  2.2998 -0.9234
 5253TIP3    H237251   2.735   5.611  16.260 -0.1043  0.9736 -0.2465
 5254TIP3   OH237252   2.513   4.027  14.851  0.2049 -0.6209 -0.0249
 5254TIP3    H137253   2.456   3.951  14.868  2.6282 -2.6053 -0.2877
 5254TIP3    H237254   2.570   3.999  14.780  1.2302  1.4429 -0.0765
 5255TIP3   OH237255   0.664   0.453  14.356 -0.1982  0.3050  0.1504
 5255TIP3    H137256   0.583   0.481  14.315 -0.9845 -0.2833  1.2224
 5255TIP3    H237257   0.683   0.521  14.420 -0.3665 -0.0072  0.5402
 5256TIP3   OH237258   5.253   1.655   3.284 -0.2014  0.0988 -0.7521
 5256TIP3    H137259   5.305   1.734   3.267 -0.0959  0.7901  2.2246
 5256TIP3    H237260   5.174   1.687   3.328  0.1082 -1.4339  1.0462
 5257TIP3   OH237261   3.363   4.693   3.789 -0.4705 -0.3767  0.4468
 5257TIP3    H137262   3.444   4.728   3.825 -1.1220  1.1465  0.5007
 5257TIP3    H237263   3.317   4.769   3.753 -0.8834 -1.4930 -1.6035
 5258TIP3   OH237264   6.535   5.507   6.385  0.1278 -0.5956  0.2138
 5258TIP3    H137265   6.608   5.534   6.330 -0.2941 -1.8556 -1.0139
 5258TIP3    H237266   6.522   5.414   6.364 -2.0349 -0.3199  0.1600
 5259TIP3   OH237267   6.379   0.213  17.612  0.2417  0.7425 -0.3591
 5259TIP3    H137268   6.440   0.142  17.594  0.0437  0.3926  0.3045
 5259TIP3    H237269   6.300   0.191  17.563 -0.3130 -0.2263  0.8941
 5260TIP3   OH237270   3.841   6.375  12.121  0.1797  0.4960  0.2585
 5260TIP3    H137271   3.914   6.335  12.167  1.0056  0.1561 -1.2705
 5260TIP3    H237272   3.875   6.459  12.090 -0.3175  0.6663  0.1650
 5261TIP3   OH237273   0.274   0.860   3.182  0.0375  0.3851  0.0182
 5261TIP3    H137274   0.338   0.791   3.201  0.7295  0.8301 -0.6466
 5261TIP3    H237275   0.245   0.889   3.268  0.9010  0.3198  0.3490
 5262TIP3   OH237276   6.225   1.601  17.408 -0.0886  0.3871 -0.8433
 5262TIP3    H137277   6.229   1.509  17.436 -0.5800  0.4654 -0.5019
 5262TIP3    H237278   6.315   1.632  17.416 -0.4052  0.8366  2.1971
 5263TIP3   OH237279   5.800   5.808   0.373 -0.1876 -0.6331 -0.5561
 5263TIP3    H137280   5.882   5.767   0.399 -0.5077 -0.2460  1.1529
 5263TIP3    H237281   5.733   5.741   0.387 -0.3524 -0.4727 -0.5653
 5264TIP3   OH237282   1.733   1.054   0.174  0.2936 -0.4041 -0.2742
 5264TIP3    H137283   1.741   1.138   0.129 -0.8106  0.5472  1.2262
 5264TIP3    H237284   1.823   1.023   0.183  0.8299  1.2339  0.2766
 5265TIP3   OH237285   6.114   2.263   0.533 -0.2684  0.2593 -0.5574
 5265TIP3    H137286   6.021   2.267   0.512 -0.5696  0.5480  0.7611
 5265TIP3    H237287   6.117   2.251   0.628  1.0530  1.8146 -0.3608
 5266TIP3   OH237288   2.557   0.644  14.288 -0.1580  0.2266  0.5470
 5266TIP3    H137289   2.540   0.711  14.222  0.2109  0.5712  0.7956
 5266TIP3    H237290   2.652   0.632  14.287 -0.3089 -1.0834 -0.2482
 5267TIP3   OH237291   3.729   3.216   1.529 -0.1881  0.5560 -0.0872
 5267TIP3    H137292   3.800   3.154   1.546 -0.6660  0.5448  2.2075
 5267TIP3    H237293   3.654   3.161   1.507 -0.4383  0.2882  1.2961
 5268TIP3   OH237294   5.609   3.030  11.232  0.6752  0.0819 -0.3084
 5268TIP3    H137295   5.607   3.062  11.142  0.9385  0.6506 -0.1159
 5268TIP3    H237296   5.566   2.944  11.228  1.3913 -0.2444 -1.1079
 5269TIP3   OH237297   6.380   3.025  15.559  0.3781 -0.3046 -0.5314
 5269TIP3    H137298   6.288   3.001  15.565  0.4201 -0.5229 -0.7478
 5269TIP3    H237299   6.412   2.979  15.482  0.4561  0.4651 -0.9690
 5270TIP3   OH237300   0.894   0.859  10.930 -0.0483 -0.2578  0.6882
 5270TIP3    H137301   0.878   0.854  11.025 -0.7197  1.2166  0.6741
 5270TIP3    H237302   0.842   0.788  10.894 -0.1978 -0.5111  1.3761
 5271TIP3   OH237303   3.828   0.986   2.897 -0.2856  0.0210 -0.1813
 5271TIP3    H137304   3.902   1.025   2.851  2.3855 -1.1893  2.7500
 5271TIP3    H237305   3.826   0.895   2.868 -0.2745 -0.0727  0.1019
 5272TIP3   OH237306   2.103   2.171  14.259  0.1434 -0.1763 -0.4896
 5272TIP3    H137307   2.196   2.150  14.247  0.1296 -0.0724 -0.7851
 5272TIP3    H237308   2.077   2.212  14.177 -0.6731 -2.0053 -1.1976
 5273TIP3   OH237309   2.358   5.748  11.773  0.6740  0.3469  0.6658
 5273TIP3    H137310   2.369   5.765  11.866 -0.0811 -0.8572  0.9937
 5273TIP3    H237311   2.298   5.674  11.769  0.3725  0.6456 -0.7927
 5274TIP3   OH237312   0.744   1.914  16.648 -0.8309 -0.6547  0.1425
 5274TIP3    H137313   0.649   1.910  16.636 -0.7591 -1.2257 -0.2900
 5274TIP3    H237314   0.779   1.909  16.559 -0.3828 -0.9744  0.3346
 5275TIP3   OH237315   5.077   1.950  16.149  0.2405  0.0441 -0.1477
 5275TIP3    H137316   5.046   2.006  16.078  0.7784  0.1387 -0.3117
 5275TIP3    H237317   4.997   1.919  16.191 -0.1004 -0.3540 -1.0576
 5276TIP3   OH237318   1.900   3.789  16.537  0.1196  0.4532 -0.6889
 5276TIP3    H137319   1.959   3.732  16.586 -1.9012  0.6999  2.3000
 5276TIP3    H237320   1.860   3.732  16.471  0.1548 -0.8979  0.4164
 5277TIP3   OH237321   2.704   0.836  10.727  0.7480 -0.0899 -0.3030
 5277TIP3    H137322   2.617   0.865  10.755  0.4027 -0.7504 -0.6457
 5277TIP3    H237323   2.757   0.915  10.725 -0.0862  0.4708 -0.9638
 5278TIP3   OH237324   1.011   1.129  15.807  0.0186 -0.5528 -0.0096
 5278TIP3    H137325   1.016   1.212  15.759  0.9857  0.0253  1.0536
 5278TIP3    H237326   0.921   1.099  15.793  0.0991 -0.1268 -1.6938
 5279TIP3   OH237327   5.779   3.402   3.446 -0.6932 -0.1227 -0.2357
 5279TIP3    H137328   5.784   3.311   3.475  1.2284 -0.1642 -0.5689
 5279TIP3    H237329   5.754   3.451   3.524 -0.9412 -0.8502  0.1432
 5280TIP3   OH237330   4.657   0.425  15.818  0.0431  0.0100  0.1001
 5280TIP3    H137331   4.751   0.418  15.801 -0.0673 -2.6844  0.1931
 5280TIP3    H237332   4.618   0.430  15.730  0.2474  2.2888  0.0652
 5281TIP3   OH237333   3.742   5.168   2.713 -0.1034 -0.3750  0.1183
 5281TIP3    H137334   3.785   5.199   2.634 -2.3097  4.2003  0.3655
 5281TIP3    H237335   3.797   5.200   2.785 -0.2262 -0.8838  0.4472
 5282TIP3   OH237336   0.338   0.440  13.236  0.4316 -0.3599  0.5760
 5282TIP3    H137337   0.323   0.487  13.318  0.5193  0.9490 -0.1369
 5282TIP3    H237338   0.358   0.350  13.264  0.8953  0.1517  2.0074
 5283TIP3   OH237339   3.599   2.938   3.557 -0.5416 -0.4766  0.5329
 5283TIP3    H137340   3.660   2.881   3.511  0.1990  0.7716 -0.1115
 5283TIP3    H237341   3.586   2.897   3.642  0.6410 -1.1539  0.4021
 5284TIP3   OH237342   2.773   0.126  16.463  0.3721  0.2085  0.2516
 5284TIP3    H137343   2.683   0.153  16.482  0.1873  1.2027 -1.7112
 5284TIP3    H237344   2.827   0.197  16.499  0.2828  0.1398  0.5155
 5285TIP3   OH237345   2.569   2.393  11.869 -0.3216  0.9250  0.5973
 5285TIP3    H137346   2.587   2.398  11.963  1.4847 -0.9036  0.4228
 5285TIP3    H237347   2.501   2.326  11.860  0.7717 -0.2099  0.5222
 5286TIP3   OH237348   1.822   4.899  13.299 -0.1444 -0.1545  0.4377
 5286TIP3    H137349   1.875   4.837  13.350  0.2514  0.6331  0.9966
 5286TIP3    H237350   1.732   4.875  13.319  0.0088 -0.0316  1.2927
 5287TIP3   OH237351   0.594   1.932  15.677  0.1989  0.8082 -0.4215
 5287TIP3    H137352   0.537   1.882  15.619 -0.5775  0.4930  0.5857
 5287TIP3    H237353   0.537   1.961  15.748  1.4834 -0.5425  1.2500
 5288TIP3   OH237354   6.442   5.573  16.285 -0.4223 -0.3025  0.2826
 5288TIP3    H137355   6.419   5.481  16.296 -2.5099 -0.1363 -1.8972
 5288TIP3    H237356   6.376   5.620  16.337 -2.1094  0.0242 -2.0211
 5289TIP3   OH237357   1.190   6.607  16.640  0.0448  0.3250  0.3137
 5289TIP3    H137358   1.234   6.603  16.725 -0.1400 -1.2831  0.3682
 5289TIP3    H237359   1.122   6.540  16.646  0.1938  0.0189 -1.1845
 5290TIP3   OH237360   5.201   2.985  15.704  0.9101 -0.0529  0.9079
 5290TIP3    H137361   5.284   2.957  15.666 -0.2933 -0.0138 -1.9790
 5290TIP3    H237362   5.157   3.034  15.635 -2.6608 -2.2825  1.2816
 5291TIP3   OH237363   4.202   3.761  14.637 -0.3054  0.5235 -0.3246
 5291TIP3    H137364   4.292   3.763  14.668 -0.4767  2.9563  0.1901
 5291TIP3    H237365   4.207   3.784  14.544 -0.4629  2.5145  0.1063
 5292TIP3   OH237366   0.206   2.413  13.218 -0.0142 -0.2388 -0.2169
 5292TIP3    H137367   0.274   2.357  13.181 -2.1973 -2.6959 -0.8159
 5292TIP3    H237368   0.149   2.353  13.267 -1.7110  1.7048  0.3444
 5293TIP3   OH237369   3.207   4.050   0.742  0.1594 -0.0970 -0.7032
 5293TIP3    H137370   3.118   4.081   0.756  0.4739  0.4153  0.2255
 5293TIP3    H237371   3.263   4.125   0.761  0.7091  0.5149 -4.2093
 5294TIP3   OH237372   4.765   2.572  14.043 -0.9873 -0.1492  0.2701
 5294TIP3    H137373   4.756   2.588  14.136 -2.0587  0.7121  0.0332
 5294TIP3    H237374   4.709   2.638  14.001 -0.6757 -0.6390 -0.9688
 5295TIP3   OH237375   6.484   3.503  14.781  0.3387 -0.2664 -0.4478
 5295TIP3    H137376   6.537   3.477  14.856  0.3869 -1.3224 -0.8237
 5295TIP3    H237377   6.476   3.598  14.788 -1.0998 -0.4963  1.8253
 5296TIP3   OH237378   5.882   2.677  16.039  0.6588 -0.2703 -0.2855
 5296TIP3    H137379   5.822   2.613  16.001  2.0321 -1.4102 -0.6409
 5296TIP3    H237380   5.858   2.681  16.131  1.6859 -2.7512  0.1812
 5297TIP3   OH237381   6.060   0.010   2.637 -0.3495 -0.2743  0.2326
 5297TIP3    H137382   6.058   0.103   2.614 -1.1860 -0.4835 -0.5824
 5297TIP3    H237383   6.145  -0.021   2.605 -0.8112 -0.1899 -1.1208
 5298TIP3   OH237384   3.521   0.222   0.803 -0.0179  0.2035 -0.1922
 5298TIP3    H137385   3.511   0.280   0.728 -2.6163 -0.0063 -0.0816
 5298TIP3    H237386   3.456   0.154   0.791 -1.5115  0.9082  2.8669
 5299TIP3   OH237387   0.111   1.507   6.556  0.1440 -0.2058 -0.1293
 5299TIP3    H137388   0.175   1.449   6.514 -0.4925 -2.5017  1.8629
 5299TIP3    H237389   0.144   1.517   6.645 -1.3993 -0.0348  0.4377
 5300TIP3   OH237390   2.398   0.593  13.065  0.4074 -0.2529  0.2584
 5300TIP3    H137391   2.341   0.547  13.003 -1.3575 -0.2355  1.7519
 5300TIP3    H237392   2.461   0.527  13.093  0.3340 -0.6598 -0.5112
 5301TIP3   OH237393   6.239   4.690   3.484  0.1461 -0.1719 -0.1539
 5301TIP3    H137394   6.261   4.683   3.577  1.0775 -1.0326 -0.4142
 5301TIP3    H237395   6.309   4.744   3.448  0.7517 -1.2464 -0.6380
 5302TIP3   OH237396   3.155   0.146  13.952 -0.0794  0.0303 -0.0022
 5302TIP3    H137397   3.218   0.142  14.023 -1.1991  1.6619  1.1432
 5302TIP3    H237398   3.118   0.058  13.947  0.8431 -0.4055  0.6272
 5303TIP3   OH237399   4.166   0.710  17.107  0.0129  0.3578  0.0810
 5303TIP3    H137400   4.224   0.637  17.127  0.9202  1.0517  0.0326
 5303TIP3    H237401   4.090   0.669  17.066  1.1607 -0.4261 -1.3545
 5304TIP3   OH237402   5.641   5.011  14.575 -0.2148 -0.0451 -0.1158
 5304TIP3    H137403   5.733   5.013  14.547 -0.0718 -1.6768  0.1647
 5304TIP3    H237404   5.635   4.935  14.632 -1.8134 -0.1202 -0.3427
 5305TIP3   OH237405   1.372   3.307   1.564  0.6536  0.0199  0.5590
 5305TIP3    H137406   1.307   3.240   1.542  0.9905 -0.5008  1.1345
 5305TIP3    H237407   1.429   3.265   1.629 -0.7896  1.7433  3.1081
 5306TIP3   OH237408   5.929   0.387  11.035 -0.7313  1.1044  0.0076
 5306TIP3    H137409   5.888   0.312  10.991 -0.0958  0.5613  0.3163
 5306TIP3    H237410   5.905   0.377  11.127  1.5381 -0.2670  0.5300
 5307TIP3   OH237411   6.327   2.812  13.283 -0.5724 -0.3179  0.1434
 5307TIP3    H137412   6.371   2.744  13.335  0.9485  0.7909  0.3685
 5307TIP3    H237413   6.236   2.783  13.279 -0.3307 -1.4543  1.7445
 5308TIP3   OH237414   3.969   5.254   1.949  0.2207 -0.4300  0.4238
 5308TIP3    H137415   3.896   5.201   1.981 -0.2411  1.5029  2.9282
 5308TIP3    H237416   4.039   5.240   2.013  1.7047 -1.3251 -1.2900
 5309TIP3   OH237417   0.508   4.178  14.386  0.7553  0.1577 -0.1049
 5309TIP3    H137418   0.445   4.248  14.403 -1.8811 -2.2291  0.7192
 5309TIP3    H237419   0.533   4.146  14.472 -0.5161 -1.8484 -0.4066
 5310TIP3   OH237420   2.136   2.407   5.192  0.0615 -0.4752  0.5288
 5310TIP3    H137421   2.147   2.382   5.100  2.3236 -1.9162  1.1086
 5310TIP3    H237422   2.185   2.489   5.200 -1.8305  0.7497  0.0615
 5311TIP3   OH237423   4.423   4.442  13.665 -0.4558 -0.5143 -0.3840
 5311TIP3    H137424   4.361   4.412  13.731 -0.3320 -0.6332 -0.3205
 5311TIP3    H237425   4.491   4.374  13.664  0.2946  0.1944  0.3915
 5312TIP3   OH237426   4.250   2.360   2.006  0.2094  0.1732 -0.3340
 5312TIP3    H137427   4.264   2.429   1.940 -0.7169 -0.0048 -0.7244
 5312TIP3    H237428   4.331   2.360   2.057  0.2290  1.5587 -0.3203
 5313TIP3   OH237429   5.576   2.285   1.602  0.2477 -0.1399  0.0247
 5313TIP3    H137430   5.622   2.251   1.679 -0.2273 -2.3323 -0.5979
 5313TIP3    H237431   5.486   2.256   1.613 -0.5762  2.1949  0.1087
 5314TIP3   OH237432   3.352   4.187  13.529  0.0666  0.2146  0.3562
 5314TIP3    H137433   3.329   4.231  13.611 -1.7401 -0.0143  0.0153
 5314TIP3    H237434   3.318   4.245  13.461 -0.2066 -0.5510 -0.1679
 5315TIP3   OH237435   3.245   1.774  12.084  0.3516 -0.0258  1.0214
 5315TIP3    H137436   3.179   1.709  12.061  0.1347 -0.2496  2.2134
 5315TIP3    H237437   3.201   1.831  12.147  0.9175  0.5561  0.9014
 5316TIP3   OH237438   1.820   0.264   3.651  0.4139 -0.5573 -0.3031
 5316TIP3    H137439   1.889   0.291   3.712 -0.7358  1.1832  0.2882
 5316TIP3    H237440   1.867   0.235   3.573  1.8909 -1.9652  1.0253
 5317TIP3   OH237441   2.417   6.712   6.761 -0.0481  0.1137 -0.2872
 5317TIP3    H137442   2.462   6.644   6.713  0.0530 -0.7413  0.9657
 5317TIP3    H237443   2.447   6.794   6.722  2.3090 -0.4325  0.2415
 5318TIP3   OH237444   2.890   5.612  14.756  0.5037  1.0295 -0.5283
 5318TIP3    H137445   2.964   5.663  14.722  0.1996  2.4785  0.8712
 5318TIP3    H237446   2.912   5.595  14.847 -0.5781  0.8863 -0.2825
 5319TIP3   OH237447   5.335   3.877  13.106  0.1652 -0.4592 -0.0235
 5319TIP3    H137448   5.256   3.847  13.152  0.9095 -0.7439  1.1082
 5319TIP3    H237449   5.322   3.971  13.093 -0.1199 -0.4018  0.6590
 5320TIP3   OH237450   6.174   2.546   4.979 -0.6863  0.1803  0.2938
 5320TIP3    H137451   6.111   2.475   4.987  0.4002 -0.6197  2.6756
 5320TIP3    H237452   6.199   2.545   4.887 -1.6847 -1.6751 -0.0107
 5321TIP3   OH237453   1.524   4.872  13.294 -0.1718 -0.0420 -0.0964
 5321TIP3    H137454   1.546   4.840  13.207  0.4785 -1.0529  0.4307
 5321TIP3    H237455   1.433   4.845  13.307 -0.9359  1.7444 -1.1695
 5322TIP3   OH237456   1.814   3.139   2.568 -0.2663  0.2345 -0.1610
 5322TIP3    H137457   1.754   3.109   2.500 -0.5793 -1.0637  0.6385
 5322TIP3    H237458   1.831   3.230   2.548  0.1835 -0.2881 -2.3702
 5323TIP3   OH237459   2.539   2.563  16.710 -0.0395  0.1388  0.2619
 5323TIP3    H137460   2.467   2.552  16.649  1.5536 -0.9056 -1.5364
 5323TIP3    H237461   2.592   2.633  16.671  1.1552 -0.7413  0.2799
 5324TIP3   OH237462   3.561   3.421   5.116  0.1745  0.1674  0.6069
 5324TIP3    H137463   3.532   3.484   5.051  1.0317  0.6802  0.7051
 5324TIP3    H237464   3.583   3.343   5.065  3.2068  1.3479 -0.1137
 5325TIP3   OH237465   3.105   1.716  13.164 -0.5800  0.3304 -0.0668
 5325TIP3    H137466   3.009   1.713  13.169 -0.5889 -0.3400 -0.4707
 5325TIP3    H237467   3.126   1.670  13.082  0.0657  0.9002 -0.2362
 5326TIP3   OH237468   1.978   5.540   5.294  0.4166 -0.6675 -0.4772
 5326TIP3    H137469   1.943   5.454   5.317  0.6503 -0.8313 -0.7202
 5326TIP3    H237470   2.003   5.579   5.377 -0.1504 -0.6365 -0.3241
 5327TIP3   OH237471   2.151   6.328  12.591  0.1331 -0.1120 -0.1778
 5327TIP3    H137472   2.082   6.289  12.645 -0.7399  0.6082 -0.7394
 5327TIP3    H237473   2.130   6.300  12.502  0.1210  0.7397 -0.4513
 5328TIP3   OH237474   6.120   5.440  16.311  0.0228  0.4978 -0.0663
 5328TIP3    H137475   6.109   5.437  16.406  1.5078  0.3348  0.1335
 5328TIP3    H237476   6.157   5.354  16.289  3.3280  1.7925 -0.2047
 5329TIP3   OH237477   4.238   0.689   3.245 -0.4684 -0.4334  0.1100
 5329TIP3    H137478   4.323   0.710   3.282 -0.1681  0.1910 -0.8834
 5329TIP3    H237479   4.175   0.731   3.304 -0.0083  0.4487 -0.0157
 5330TIP3   OH237480   6.678   2.056   1.934  0.1744  0.3435 -0.0448
 5330TIP3    H137481   6.657   2.144   1.901  1.0942  0.0721 -1.4753
 5330TIP3    H237482   6.720   2.071   2.018  0.8401  1.3401 -0.5334
 5331TIP3   OH237483   2.192   6.648  10.740  0.1990  0.2954  0.5449
 5331TIP3    H137484   2.238   6.576  10.697 -1.6132  0.6922 -2.3594
 5331TIP3    H237485   2.165   6.613  10.825 -0.3128 -2.3294 -0.6108
 5332TIP3   OH237486   5.539   2.264   2.526  0.3807 -0.2857 -0.1235
 5332TIP3    H137487   5.545   2.174   2.557  0.7376 -0.0902  0.3958
 5332TIP3    H237488   5.464   2.264   2.467  0.3759 -0.9206 -0.1258
 5333TIP3   OH237489   4.921   0.658   0.412 -0.1871 -0.6364 -0.3500
 5333TIP3    H137490   4.841   0.611   0.435 -0.1423  0.1564  1.6560
 5333TIP3    H237491   4.893   0.724   0.348 -1.1405 -0.3794  0.3146
 5334TIP3   OH237492   3.825   1.060   4.281 -0.0863 -0.4011 -0.0127
 5334TIP3    H137493   3.885   1.011   4.225  0.4050 -0.1940  0.3163
 5334TIP3    H237494   3.878   1.132   4.315 -0.9658  0.7499 -1.0042
 5335TIP3   OH237495   5.713   2.517   2.957 -0.3712  0.0427 -0.0226
 5335TIP3    H137496   5.778   2.578   2.922  1.6005 -1.6099  0.5294
 5335TIP3    H237497   5.686   2.465   2.881  0.2789 -0.3810  0.0238
 5336TIP3   OH237498   2.243   3.675   1.375 -0.3176 -0.0911  0.5346
 5336TIP3    H137499   2.178   3.703   1.439  0.6970  0.9124  1.1694
 5336TIP3    H237500   2.295   3.610   1.421  1.2660  1.5972  1.2802
 5337TIP3   OH237501   4.547   0.447  14.540  0.6950 -0.1402 -0.3439
 5337TIP3    H137502   4.611   0.477  14.475  1.9340  0.2035  1.0012
 5337TIP3    H237503   4.594   0.382  14.592 -0.5527 -1.0533 -0.3144
 5338TIP3   OH237504   0.074   3.053   0.356 -0.5191  0.6402  0.1990
 5338TIP3    H137505   0.128   2.999   0.298 -0.7595  0.1935  0.3817
 5338TIP3    H237506  -0.003   3.075   0.303 -0.9891 -0.2076  0.5031
 5339TIP3   OH237507   5.901   5.825   2.179 -0.3431  0.6373  0.1951
 5339TIP3    H137508   5.968   5.757   2.176  0.3945  1.2515  1.4232
 5339TIP3    H237509   5.930   5.890   2.115  1.1878  1.6477  1.7779
 5340TIP3   OH237510   3.578   5.958  17.540  0.0082 -0.6200  0.6708
 5340TIP3    H137511   3.489   5.942  17.570 -0.5814  0.4326 -0.4185
 5340TIP3    H237512   3.589   6.053  17.546 -0.2210 -0.2745 -2.4026
 5341TIP3   OH237513   6.458   3.900   3.623 -0.6939  0.0598 -0.3019
 5341TIP3    H137514   6.504   3.959   3.563  0.0523 -0.8861 -0.6858
 5341TIP3    H237515   6.395   3.956   3.668  1.0196  1.4893  0.4614
 5342TIP3   OH237516   3.871   4.500   5.483  0.5060 -0.3303 -0.6113
 5342TIP3    H137517   3.931   4.453   5.424  0.8288  1.0095 -1.4039
 5342TIP3    H237518   3.907   4.486   5.570  1.0147 -0.9392 -0.9144
 5343TIP3   OH237519   4.641   4.518  12.564  0.2292  0.1120 -0.1566
 5343TIP3    H137520   4.546   4.523  12.571  0.2190 -1.4371  1.0858
 5343TIP3    H237521   4.659   4.430  12.530  1.2501  0.1734  0.1779
 5344TIP3   OH237522   5.650   3.814   2.146  0.0374  0.5532  0.3812
 5344TIP3    H137523   5.617   3.892   2.102 -1.3208  0.1941  0.7204
 5344TIP3    H237524   5.583   3.747   2.129  0.1591  0.0320  1.8112
 5345TIP3   OH237525   3.075   4.040  13.815  0.0762 -0.0716 -0.2221
 5345TIP3    H137526   3.161   4.044  13.857  0.8538 -1.4379 -1.5605
 5345TIP3    H237527   3.086   3.976  13.745 -1.9077  0.1148 -0.7645
 5346TIP3   OH237528   3.338   6.163   4.343  0.8773  0.0908 -0.1692
 5346TIP3    H137529   3.303   6.249   4.367 -1.4208 -0.5202 -1.0421
 5346TIP3    H237530   3.383   6.177   4.260 -0.9025  0.2070 -1.1512
 5347TIP3   OH237531   4.488   5.467   4.905 -0.3891  0.2780  0.3204
 5347TIP3    H137532   4.433   5.400   4.947  0.2445 -0.2465  0.3151
 5347TIP3    H237533   4.440   5.548   4.920 -0.3597  0.0618  1.7752
 5348TIP3   OH237534   4.272   6.719   2.441  0.0119 -0.3144 -0.1610
 5348TIP3    H137535   4.224   6.741   2.361 -0.0856  0.7731  0.1734
 5348TIP3    H237536   4.212   6.662   2.490  1.0013 -2.9968 -1.8784
 5349TIP3   OH237537   5.808   1.917  17.215 -0.0698 -0.2550  0.1042
 5349TIP3    H137538   5.806   1.971  17.295 -1.3432 -1.8271  1.2154
 5349TIP3    H237539   5.883   1.859  17.227  1.0078  0.8897 -0.8658
 5350TIP3   OH237540   5.464   2.952  14.891 -0.5339 -0.4366  0.8512
 5350TIP3    H137541   5.380   2.939  14.847 -0.9341 -0.2143  1.5324
 5350TIP3    H237542   5.443   2.948  14.984  0.2098 -0.3481  1.0290
 5351TIP3   OH237543   2.720   3.032   6.398 -0.0562  0.1084  0.1353
 5351TIP3    H137544   2.678   3.066   6.320  0.2243 -0.1349 -0.1250
 5351TIP3    H237545   2.650   3.025   6.463  0.2553  3.4874  0.9983
 5352TIP3   OH237546   3.804   2.589   4.945  0.1124 -0.1345 -0.0022
 5352TIP3    H137547   3.854   2.548   5.016 -1.1244  0.8306  1.4997
 5352TIP3    H237548   3.715   2.555   4.957 -0.2666  0.6238 -0.6240
 5353TIP3   OH237549   5.433   3.717   3.855 -0.3109  0.1905  0.3268
 5353TIP3    H137550   5.444   3.736   3.948 -0.1438  0.0270  0.3420
 5353TIP3    H237551   5.512   3.753   3.813  0.1636 -0.7255  0.3968
 5354TIP3   OH237552   1.359   1.141  10.749 -0.0649  0.4251  0.2319
 5354TIP3    H137553   1.391   1.204  10.814  0.0769 -0.0712  0.6464
 5354TIP3    H237554   1.269   1.122  10.778  0.7399 -1.5373  1.6346
 5355TIP3   OH237555   5.718   4.575  12.686 -0.3221  0.6647 -0.0572
 5355TIP3    H137556   5.698   4.483  12.705  0.6378  0.4503 -0.0312
 5355TIP3    H237557   5.650   4.624  12.733  0.0817  0.0253  1.2483
 5356TIP3   OH237558   3.604   3.283  15.033 -0.0181 -0.5026 -0.2524
 5356TIP3    H137559   3.565   3.316  14.952 -0.9617  0.2582  0.4910
 5356TIP3    H237560   3.546   3.212  15.062 -0.3908  0.0521  0.3972
 5357TIP3   OH237561   0.654   1.475   2.197 -0.0370  0.0355 -0.5873
 5357TIP3    H137562   0.741   1.505   2.224  0.1298 -0.2542 -0.7943
 5357TIP3    H237563   0.610   1.554   2.166  0.2413  0.1427 -0.7180
 5358TIP3   OH237564   0.219   3.883  12.223  0.2806 -0.1465 -0.6572
 5358TIP3    H137565   0.152   3.825  12.258  2.3525 -1.0106  2.2459
 5358TIP3    H237566   0.273   3.828  12.166 -0.1704  0.0164 -1.2538
 5359TIP3   OH237567   3.190   1.042   4.131  0.8867  0.2616  0.0443
 5359TIP3    H137568   3.169   1.098   4.206 -0.0002  1.1778 -0.8620
 5359TIP3    H237569   3.229   1.101   4.067 -0.7233  0.0456 -1.2175
 5360TIP3   OH237570   1.492   2.854   0.278  0.1678 -0.3324 -0.1960
 5360TIP3    H137571   1.548   2.809   0.215 -0.6658 -0.0435 -1.1608
 5360TIP3    H237572   1.544   2.930   0.306 -0.3021  0.8196 -2.2669
 5361TIP3   OH237573   3.926   5.162   6.808  0.4435 -0.1836  0.3071
 5361TIP3    H137574   3.922   5.225   6.735  0.7709 -1.0857 -0.5101
 5361TIP3    H237575   3.849   5.107   6.796 -0.4117  0.6675  1.6231
 5362TIP3   OH237576   1.109   3.901  14.105 -0.3177  0.4484 -0.0264
 5362TIP3    H137577   1.166   3.903  14.182 -0.4587  1.2438  0.0707
 5362TIP3    H237578   1.055   3.824  14.116  0.6512 -0.2485 -0.0549
 5363TIP3   OH237579   0.205   2.499  16.075 -0.1901 -0.5909  0.0777
 5363TIP3    H137580   0.253   2.542  16.003  1.7484  0.5893  1.9269
 5363TIP3    H237581   0.113   2.516  16.056  0.3705  2.5953 -0.5111
 5364TIP3   OH237582   3.987   2.889  12.533  0.2748  0.1234 -0.0465
 5364TIP3    H137583   4.012   2.815  12.589 -1.1909 -0.8270 -0.5746
 5364TIP3    H237584   4.034   2.873  12.451  1.6447  0.9797  0.5370
 5365TIP3   OH237585   5.370   1.180  11.425  0.1309  0.1011 -0.3879
 5365TIP3    H137586   5.276   1.180  11.405 -0.5712 -1.5216  2.3537
 5365TIP3    H237587   5.412   1.181  11.339 -2.4413 -1.7046 -1.8267
 5366TIP3   OH237588   3.791   1.114   2.583  0.4401  0.7485  0.0713
 5366TIP3    H137589   3.758   1.049   2.521 -1.5451 -0.0258  1.8329
 5366TIP3    H237590   3.745   1.195   2.559 -0.3208  0.4517  0.4782
 5367TIP3   OH237591   0.935   2.302   1.262 -0.3840 -0.0382 -0.3046
 5367TIP3    H137592   0.950   2.211   1.285 -2.5173 -0.1791  0.7664
 5367TIP3    H237593   0.921   2.347   1.345 -1.3780  0.8443 -0.9157
 5368TIP3   OH237594   5.013   4.437  14.509  0.7964 -0.1553  0.6042
 5368TIP3    H137595   5.082   4.501  14.527 -0.4923  1.1279  1.2637
 5368TIP3    H237596   5.000   4.442  14.415 -0.8327  2.3589  0.8516
 5369TIP3   OH237597   6.364   6.027  13.825 -0.2553 -0.2134 -0.0627
 5369TIP3    H137598   6.270   6.045  13.819 -0.1685  0.0003 -0.8332
 5369TIP3    H237599   6.370   5.932  13.819 -0.5376 -0.3987  1.7433
 5370TIP3   OH237600   4.402   1.770  11.806  0.0545  0.0916  0.1896
 5370TIP3    H137601   4.480   1.817  11.835 -0.1229  0.5279 -0.0316
 5370TIP3    H237602   4.435   1.683  11.780  0.8892  1.0355 -2.2302
 5371TIP3   OH237603   5.674   1.067  11.596  0.5375  0.2176  0.9484
 5371TIP3    H137604   5.729   0.989  11.610 -0.0107 -0.0732  1.5637
 5371TIP3    H237605   5.651   1.064  11.503  0.8699 -0.1226  0.8743
 5372TIP3   OH237606   1.875   2.369   5.324 -0.3873 -0.4239 -0.1054
 5372TIP3    H137607   1.936   2.383   5.251 -0.0868  2.0951  0.5040
 5372TIP3    H237608   1.919   2.408   5.399 -0.9889 -2.3489  1.3211
 5373TIP3   OH237609   4.732   0.081   3.226  0.6727  0.0395  0.3469
 5373TIP3    H137610   4.828   0.075   3.222  0.6954 -0.9751  1.6552
 5373TIP3    H237611   4.715   0.126   3.309  0.0002 -1.5849  1.1217
 5374TIP3   OH237612   1.301   6.319  16.586  0.2249 -0.2696 -0.1506
 5374TIP3    H137613   1.290   6.413  16.576  1.4870 -0.2423 -1.4314
 5374TIP3    H237614   1.383   6.299  16.542 -0.7743 -2.1929 -1.2819
 5375TIP3   OH237615   5.566   5.815  17.439  0.4969  0.3510  0.0836
 5375TIP3    H137616   5.498   5.834  17.504  1.4314  2.5685  0.5114
 5375TIP3    H237617   5.548   5.875  17.367 -0.2687 -1.7803 -1.5979
 5376TIP3   OH237618   1.446   1.075   0.689 -0.3398  0.2130  0.0250
 5376TIP3    H137619   1.382   1.010   0.719  0.3674 -0.3617  0.3264
 5376TIP3    H237620   1.396   1.156   0.681 -1.5247 -0.5950 -1.4315
 5377TIP3   OH237621   3.384   0.959  13.120 -0.2049 -0.4794  0.7740
 5377TIP3    H137622   3.451   0.894  13.101  0.8652  0.4040  1.3913
 5377TIP3    H237623   3.403   0.987  13.210  0.4594  1.8983 -0.0333
 5378TIP3   OH237624   3.228   0.229   2.559  0.4036  0.3139 -0.1023
 5378TIP3    H137625   3.279   0.207   2.481 -0.3043 -0.2237 -0.4173
 5378TIP3    H237626   3.247   0.322   2.574 -1.1827  1.0814 -2.2568
 5379TIP3   OH237627   0.720   4.909  12.258 -0.3303  0.5332  0.3192
 5379TIP3    H137628   0.704   4.833  12.202 -0.2930 -0.2267  1.3201
 5379TIP3    H237629   0.807   4.939  12.233  0.0441 -0.3271  0.5598
 5380TIP3   OH237630   3.819   6.460   5.512 -0.8587  0.1660  0.0452
 5380TIP3    H137631   3.727   6.463   5.541 -0.3851  1.5746  1.5229
 5380TIP3    H237632   3.862   6.404   5.577 -0.8049 -1.3289 -1.2086
 5381TIP3   OH237633   3.546   5.581   3.279  0.0782 -0.1888  0.1012
 5381TIP3    H137634   3.597   5.516   3.231 -1.3291 -1.2262 -0.0286
 5381TIP3    H237635   3.558   5.662   3.228  1.0196 -0.5590 -0.2958
 5382TIP3   OH237636   3.958   6.512  12.847 -0.5733 -0.7184  0.1661
 5382TIP3    H137637   3.863   6.505  12.845 -0.6397 -0.0358  0.6563
 5382TIP3    H237638   3.984   6.511  12.754 -1.2506  1.3041 -0.0915
 5383TIP3   OH237639   5.142   4.873   3.449  0.2984 -0.2190 -0.1785
 5383TIP3    H137640   5.197   4.950   3.464  0.5852 -0.1564 -1.4562
 5383TIP3    H237641   5.058   4.897   3.489  0.6109  0.4447  0.1118
 5384TIP3   OH237642   3.023   5.684  13.964 -0.0906  0.3922  0.6511
 5384TIP3    H137643   2.985   5.731  14.038  0.4983 -1.6608  2.3568
 5384TIP3    H237644   2.948   5.662  13.908 -0.6067  1.5275  0.8737
 5385TIP3   OH237645   4.850   1.882   2.822  0.3319 -0.3074  0.4639
 5385TIP3    H137646   4.887   1.969   2.810  0.2834 -0.4901 -1.2771
 5385TIP3    H237647   4.755   1.894   2.812  0.4722 -0.9953 -3.8331
 5386TIP3   OH237648   5.203   0.075   3.731  0.0718  0.3606 -0.1892
 5386TIP3    H137649   5.139   0.093   3.800 -1.6027 -2.7983 -0.7304
 5386TIP3    H237650   5.219   0.160   3.691  0.2894  2.1241  3.3267
 5387TIP3   OH237651   4.082   0.263  12.148  0.0941 -0.0525  0.2723
 5387TIP3    H137652   4.000   0.265  12.099 -0.4793 -0.5741  1.1812
 5387TIP3    H237653   4.150   0.276  12.082 -0.7535  1.2100 -0.3874
 5388TIP3   OH237654   3.527   3.797  11.520 -0.1384 -0.0765  0.1402
 5388TIP3    H137655   3.544   3.702  11.521 -1.7339 -0.4640 -1.8072
 5388TIP3    H237656   3.466   3.811  11.593 -1.2234 -0.8849 -0.5821
 5389TIP3   OH237657   1.888   2.075  12.289  0.3244  0.1519 -0.0652
 5389TIP3    H137658   1.964   2.126  12.259 -0.1142  0.8670  0.0301
 5389TIP3    H237659   1.875   2.102  12.380 -0.5277  0.6228 -0.3192
 5390TIP3   OH237660   0.665   0.284   0.800  0.1929  0.0696  0.2842
 5390TIP3    H137661   0.659   0.305   0.894  0.4337 -0.6717  0.4717
 5390TIP3    H237662   0.592   0.331   0.760  0.4696  0.9171  0.7497
 5391TIP3   OH237663   2.257   2.108   0.570 -0.1200 -0.1694 -0.4726
 5391TIP3    H137664   2.187   2.054   0.535  0.9385 -1.9452 -0.0019
 5391TIP3    H237665   2.338   2.061   0.547  0.7995  0.7591  0.7111
 5392TIP3   OH237666   0.930   6.143  16.748 -0.4528  0.2498 -0.0198
 5392TIP3    H137667   0.913   6.141  16.843 -0.8922 -1.5874 -0.0934
 5392TIP3    H237668   0.878   6.071  16.713  0.6490  0.1210 -1.4987
 5393TIP3   OH237669   3.625   1.987   3.915  0.0971 -0.0998  0.0858
 5393TIP3    H137670   3.617   2.014   3.823  1.4452 -1.9559 -0.6557
 5393TIP3    H237671   3.695   1.921   3.914 -1.3200 -1.7518  2.1132
 5394TIP3   OH237672   4.202   3.195   4.437  0.9478 -0.0817  0.0887
 5394TIP3    H137673   4.129   3.137   4.459  2.2671 -0.8361  3.0130
 5394TIP3    H237674   4.241   3.156   4.359 -0.8848 -0.4730 -0.6801
 5395TIP3   OH237675   3.251   1.322   4.792  0.3467 -0.3076  0.3125
 5395TIP3    H137676   3.204   1.326   4.876  1.0164 -0.3096  0.6918
 5395TIP3    H237677   3.265   1.228   4.777 -2.7465 -0.6187 -1.5034
 5396TIP3   OH237678   0.990   5.097   1.719  0.3730  0.1244 -0.0475
 5396TIP3    H137679   0.991   5.002   1.710  0.8875  0.0380  0.8101
 5396TIP3    H237680   1.004   5.130   1.630  1.2698 -0.6132 -0.1900
 5397TIP3   OH237681   3.132   0.910   4.913 -0.0377  0.1507 -0.3468
 5397TIP3    H137682   3.163   0.849   4.846  0.0053 -0.8322  0.5439
 5397TIP3    H237683   3.154   0.868   4.996 -0.7819  0.9867  0.2950
 5398TIP3   OH237684   3.249   2.527   5.091 -0.1503  0.4712 -1.0249
 5398TIP3    H137685   3.207   2.521   5.176  2.0700  2.7704  0.3685
 5398TIP3    H237686   3.276   2.437   5.071  2.0363  0.2598  2.2464
 5399TIP3   OH237687   1.997   4.186  11.898  0.0835 -0.0915  0.1239
 5399TIP3    H137688   1.935   4.255  11.879  1.4645  1.2772  0.3757
 5399TIP3    H237689   1.943   4.110  11.921 -1.4735  0.4795 -1.4979
 5400TIP3   OH237690   2.067   5.691  12.352  0.2730  0.1909  0.1157
 5400TIP3    H137691   2.109   5.607  12.370  0.7871 -0.8926 -4.6228
 5400TIP3    H237692   1.982   5.668  12.315  0.6794  1.5828 -1.8869
 5401TIP3   OH237693   0.815   1.687   0.680  0.1647  0.4319 -0.4676
 5401TIP3    H137694   0.897   1.733   0.695  0.1574  0.0341  0.9483
 5401TIP3    H237695   0.752   1.729   0.739  0.1996 -1.4213  0.9979
 5402TIP3   OH237696   0.672   1.792   2.276 -0.0393  0.0366 -0.5051
 5402TIP3    H137697   0.662   1.882   2.305  0.6319 -0.0075 -0.1097
 5402TIP3    H237698   0.684   1.798   2.181  1.1452  0.4631 -0.3441
 5403TIP3   OH237699   0.038   3.359  16.342 -0.8343 -0.3318  0.1699
 5403TIP3    H137700  -0.050   3.333  16.371 -1.6098  0.6520 -1.2328
 5403TIP3    H237701   0.026   3.442  16.297  0.5602 -0.9995 -1.5541
 5404TIP3   OH237702   2.907   2.696  12.540  0.2126  0.7359 -0.1722
 5404TIP3    H137703   2.915   2.788  12.568  0.0578 -0.1296  3.1359
 5404TIP3    H237704   2.813   2.682  12.530  0.2188  0.8546 -0.4069
 5405TIP3   OH237705   0.423   1.768  13.126  0.3198  0.5240  0.0355
 5405TIP3    H137706   0.411   1.784  13.220  1.2253 -1.0822  0.4766
 5405TIP3    H237707   0.447   1.853  13.090  0.7451  1.0236  1.4188
 5406TIP3   OH237708   4.310   6.194   5.959 -0.0470  0.7480 -0.4733
 5406TIP3    H137709   4.348   6.108   5.943 -1.4200 -0.0492  0.4004
 5406TIP3    H237710   4.349   6.222   6.042 -1.4270 -0.1411  0.5065
 5407TIP3   OH237711   3.046   5.288   4.945  0.3181 -0.3973 -0.0084
 5407TIP3    H137712   3.025   5.218   5.006  0.8891 -1.0847 -0.5769
 5407TIP3    H237713   2.975   5.351   4.954 -0.1639 -1.0152  0.5666
 5408TIP3   OH237714   4.919   5.016   2.534 -0.0317 -0.3417 -0.1127
 5408TIP3    H137715   4.881   5.098   2.504  0.9964 -0.4438 -1.8271
 5408TIP3    H237716   4.855   4.949   2.508 -0.6622 -0.1527  0.8928
 5409TIP3   OH237717   3.898   3.496  16.530 -0.0415  0.2097 -0.3793
 5409TIP3    H137718   3.949   3.432  16.480  0.5595  1.6686 -1.7142
 5409TIP3    H237719   3.919   3.580  16.490 -0.9591  1.2414  1.1967
 5410TIP3   OH237720   2.743   1.979   3.194 -0.3610  0.1099 -0.2465
 5410TIP3    H137721   2.784   2.009   3.275 -0.5332  0.9777 -0.4744
 5410TIP3    H237722   2.814   1.981   3.129 -0.6544  1.2360 -0.5493
 5411TIP3   OH237723   0.557   5.907   0.314 -0.1703  0.1980  0.1368
 5411TIP3    H137724   0.642   5.864   0.324 -0.2006  0.0305 -0.3391
 5411TIP3    H237725   0.508   5.852   0.254 -0.1200  1.0140 -0.6726
 5412TIP3   OH237726   6.606   4.878  14.189  0.5096  0.1855 -0.0007
 5412TIP3    H137727   6.525   4.912  14.229  0.1913  1.2766 -1.4933
 5412TIP3    H237728   6.587   4.786  14.173 -0.0245  0.1632  0.6684
 5413TIP3   OH237729   1.049   0.476   3.535  0.6404  0.2294  0.0712
 5413TIP3    H137730   0.999   0.396   3.549 -0.7622  1.1283  0.4789
 5413TIP3    H237731   1.085   0.497   3.622 -0.5429  0.9801  0.4243
 5414TIP3   OH237732   5.434   1.630  12.104  0.0459 -0.1903 -0.0444
 5414TIP3    H137733   5.339   1.631  12.116  0.1423 -1.3764  0.9327
 5414TIP3    H237734   5.461   1.541  12.127  1.1525 -0.5509 -2.4086
 5415TIP3   OH237735   1.520   2.324  14.387  0.1425 -0.0368 -0.0443
 5415TIP3    H137736   1.497   2.296  14.298 -0.7172 -0.6473  0.3549
 5415TIP3    H237737   1.612   2.299  14.397 -0.1619 -1.3396 -0.2547
 5416TIP3   OH237738   1.755   1.251   4.010 -0.0269  0.0924  0.3725
 5416TIP3    H137739   1.698   1.177   3.990 -0.4792  0.4424  0.3407
 5416TIP3    H237740   1.800   1.270   3.928 -1.2784  1.0149 -0.1214
 5417TIP3   OH237741   4.704   1.253   0.563  0.0800  0.0208 -0.6855
 5417TIP3    H137742   4.793   1.225   0.585  1.0249  1.6750 -2.1286
 5417TIP3    H237743   4.700   1.248   0.468 -1.6415 -0.7090 -0.6065
 5418TIP3   OH237744   2.625   6.728   1.853  0.0935  0.3035 -0.1285
 5418TIP3    H137745   2.635   6.716   1.758  0.4351 -1.0163  0.0560
 5418TIP3    H237746   2.544   6.682   1.875 -0.4662  1.3660  0.1033
 5419TIP3   OH237747   0.749   1.132  13.821  0.5088  0.4676 -0.0558
 5419TIP3    H137748   0.812   1.142  13.893  3.0413 -2.5801 -1.5499
 5419TIP3    H237749   0.802   1.143  13.742 -1.0041 -1.2269 -1.4091
 5420TIP3   OH237750   3.037   2.514  10.858  0.1169  0.0984 -0.5157
 5420TIP3    H137751   3.087   2.541  10.935  0.7261  0.2856 -0.9712
 5420TIP3    H237752   3.090   2.542  10.783 -0.1213 -0.7196 -1.0036
 5421TIP3   OH237753   5.999   3.398   2.205  0.5052 -0.4995 -0.0871
 5421TIP3    H137754   5.932   3.339   2.171 -1.6931  0.9693  1.4773
 5421TIP3    H237755   6.010   3.463   2.136 -0.5934 -0.0718  0.1282
 5422TIP3   OH237756   2.019   1.224  11.297  0.0479 -0.1448  0.6989
 5422TIP3    H137757   2.106   1.227  11.259 -0.1899 -0.9157  0.0813
 5422TIP3    H237758   2.001   1.315  11.323  0.6365  0.1930 -0.0446
 5423TIP3   OH237759   2.517   5.424  12.345 -0.5160 -0.3566  0.3273
 5423TIP3    H137760   2.534   5.448  12.254 -0.7253 -0.0468  0.3703
 5423TIP3    H237761   2.473   5.339  12.339 -0.6867 -0.2560  0.1295
 5424TIP3   OH237762   3.088   5.038  17.251  0.0384  0.3231 -0.9249
 5424TIP3    H137763   3.007   5.037  17.201 -1.5185 -1.1119  1.4288
 5424TIP3    H237764   3.107   4.946  17.269  1.3881  0.7004 -0.2198
 5425TIP3   OH237765   5.046   4.322  12.544  0.3096  0.7155  0.5368
 5425TIP3    H137766   5.046   4.322  12.640 -2.2826  0.5871  0.6114
 5425TIP3    H237767   5.014   4.410  12.520 -1.2791  0.0091 -0.0983
 5426TIP3   OH237768   5.965   1.338  11.484  0.2205 -0.0496 -0.6321
 5426TIP3    H137769   5.977   1.254  11.530  0.5029 -0.0967 -0.7882
 5426TIP3    H237770   5.978   1.317  11.392 -0.0999  0.0939 -0.7084
 5427TIP3   OH237771   5.887   3.133  16.884  0.3282  0.2361  0.0268
 5427TIP3    H137772   5.821   3.154  16.951 -0.9588 -0.3654 -0.9944
 5427TIP3    H237773   5.953   3.202  16.893  1.1372 -0.7814  3.0363
 5428TIP3   OH237774   2.350   4.022  14.536  0.4356  0.4660 -0.6933
 5428TIP3    H137775   2.269   4.023  14.586  0.8711  0.7398  0.0316
 5428TIP3    H237776   2.343   4.097  14.477  0.1801  0.5151 -0.6019
 5429TIP3   OH237777   5.482   5.999  10.862 -0.4870  0.1554 -0.5977
 5429TIP3    H137778   5.545   5.931  10.836  0.1006  0.0464  1.0198
 5429TIP3    H237779   5.396   5.960  10.844 -0.1497  0.3378 -2.9225
 5430TIP3   OH237780   5.323   2.206   1.705  0.1771  0.5119 -0.1151
 5430TIP3    H137781   5.392   2.219   1.770  1.4690 -2.9344 -0.5829
 5430TIP3    H237782   5.247   2.178   1.755  0.3073  0.5885  0.1249
 5431TIP3   OH237783   0.733   2.152  15.790 -0.2797  0.3647 -0.1974
 5431TIP3    H137784   0.704   2.061  15.795 -0.2175  0.3280 -0.4955
 5431TIP3    H237785   0.829   2.147  15.795 -0.3305  0.5188  1.2869
 5432TIP3   OH237786   4.167   0.644  13.220 -0.2027  0.0330 -0.4774
 5432TIP3    H137787   4.256   0.609  13.231 -0.5601 -0.6893  0.2198
 5432TIP3    H237788   4.153   0.645  13.126  1.0074  1.3526 -0.6771
 5433TIP3   OH237789   1.195   2.416  14.739  1.0008 -0.1245 -0.0729
 5433TIP3    H137790   1.225   2.350  14.801  1.3929  0.0822 -0.0412
 5433TIP3    H237791   1.122   2.459  14.784  1.9033  0.6798  0.6531
 5434TIP3   OH237792   3.254   1.066  15.888 -0.3772  0.3029 -0.5533
 5434TIP3    H137793   3.312   0.994  15.863 -0.6583 -0.9418  1.9761
 5434TIP3    H237794   3.313   1.140  15.901  1.0542 -1.2344  3.1228
 5435TIP3   OH237795   5.107   5.948  15.639 -0.4757  0.1622 -0.3887
 5435TIP3    H137796   5.037   6.009  15.665  0.2587  1.7445 -1.8928
 5435TIP3    H237797   5.108   5.952  15.544  1.3460 -0.1641 -0.4235
 5436TIP3   OH237798   2.958   0.631   3.133  0.2058  0.2772  0.3941
 5436TIP3    H137799   2.958   0.543   3.096  3.2779 -0.2852  1.4008
 5436TIP3    H237800   2.878   0.635   3.186  1.1611 -2.9400  2.4048
 5437TIP3   OH237801   1.164   6.426   3.212 -0.3377  0.1610 -0.4878
 5437TIP3    H137802   1.069   6.415   3.209 -0.4331 -0.3049  2.3323
 5437TIP3    H237803   1.177   6.521   3.204 -0.8864  0.1173 -2.3887
 5438TIP3   OH237804   4.746   3.343  13.300  0.7848 -0.1054  0.1405
 5438TIP3    H137805   4.786   3.417  13.253  0.4293  0.5442  0.8310
 5438TIP3    H237806   4.748   3.370  13.392 -2.2073  0.4623  0.1425
 5439TIP3   OH237807   6.569   0.162   2.646 -0.5550  0.1827  0.3229
 5439TIP3    H137808   6.547   0.113   2.567 -1.3814 -1.1521  1.3528
 5439TIP3    H237809   6.606   0.244   2.613 -2.6683  0.5018 -1.4574
 5440TIP3   OH237810   3.049   1.097   0.012 -0.0019  0.8562  0.0447
 5440TIP3    H137811   3.050   1.097  -0.084 -0.8793  0.6283  0.0242
 5440TIP3    H237812   2.956   1.103   0.034  0.0701 -0.6271  0.8709
 5441TIP3   OH237813   3.240   4.083   4.683  0.1899  0.2294  0.2410
 5441TIP3    H137814   3.161   4.084   4.737 -0.3164  0.1114 -0.4915
 5441TIP3    H237815   3.309   4.114   4.742  0.6199 -4.0316  2.3842
 5442TIP3   OH237816   5.950   1.787  15.057 -0.7862 -0.1779 -0.0849
 5442TIP3    H137817   5.994   1.710  15.093 -0.5335  0.7967  1.7769
 5442TIP3    H237818   5.961   1.778  14.962  3.5956  0.0754  0.2305
 5443TIP3   OH237819   3.963   6.669  12.498  0.2292  0.1172 -0.6672
 5443TIP3    H137820   3.869   6.656  12.488  0.4059 -1.3372 -0.6578
 5443TIP3    H237821   3.997   6.581  12.517  1.3510  0.8866  1.1689
 5444TIP3   OH237822   2.516   3.796   2.133 -0.5313  0.1268 -0.0269
 5444TIP3    H137823   2.550   3.816   2.221 -0.2647 -0.6602  0.0548
 5444TIP3    H237824   2.432   3.753   2.150 -0.3193 -0.3376 -0.1409
 5445TIP3   OH237825   4.775   2.451  17.113  0.0495 -0.1921  0.0705
 5445TIP3    H137826   4.824   2.383  17.159  1.1492 -0.7572 -1.8351
 5445TIP3    H237827   4.814   2.533  17.143  1.2011 -0.5770 -0.3531
 5446TIP3   OH237828   1.147   6.590   5.610 -0.1220  0.9691  0.0888
 5446TIP3    H137829   1.100   6.510   5.634  0.5142 -0.0265 -1.8227
 5446TIP3    H237830   1.089   6.661   5.639 -2.6128 -0.1898 -1.7216
 5447TIP3   OH237831   4.397   1.376  13.198  0.1318 -0.5449 -0.4889
 5447TIP3    H137832   4.331   1.358  13.264 -0.0221  1.5586 -0.0141
 5447TIP3    H237833   4.386   1.468  13.176  1.5730 -0.6543 -1.9025
 5448TIP3   OH237834   1.449   6.729   2.709 -0.2995 -0.2686 -0.2187
 5448TIP3    H137835   1.387   6.681   2.764  0.6109 -0.4418  0.6853
 5448TIP3    H237836   1.433   6.821   2.729 -0.9910 -0.2480 -0.8051
 5449TIP3   OH237837   1.039   3.749   2.245 -0.0332  0.4369 -0.4872
 5449TIP3    H137838   1.065   3.735   2.154 -0.8030 -0.5562 -0.5847
 5449TIP3    H237839   0.947   3.775   2.240 -0.8367 -2.0165  0.0663
 5450TIP3   OH237840   4.099   2.199   3.123 -0.2460  0.3181 -0.7378
 5450TIP3    H137841   4.175   2.203   3.181 -1.3719 -0.9692  0.8868
 5450TIP3    H237842   4.132   2.157   3.044  0.0965 -3.3227  1.1497
 5451TIP3   OH237843   0.892   3.419  16.302  0.4957  0.4528  0.2609
 5451TIP3    H137844   0.862   3.423  16.211 -2.1120 -0.0830  1.0178
 5451TIP3    H237845   0.974   3.370  16.297 -1.4280 -3.0099 -1.5043
 5452TIP3   OH237846   6.523   3.682  15.755  0.1237 -0.3589 -0.6525
 5452TIP3    H137847   6.460   3.743  15.717 -0.8929 -0.5397  0.6480
 5452TIP3    H237848   6.472   3.632  15.819  1.5681 -0.5527  0.4029
 5453TIP3   OH237849   0.223   6.390   3.992  0.2094 -0.1711 -0.8037
 5453TIP3    H137850   0.294   6.333   3.963  2.9272  2.2170  0.6139
 5453TIP3    H237851   0.246   6.414   4.082 -0.5255  3.2982 -1.3784
 5454TIP3   OH237852   0.856   5.528   3.299 -0.6653  0.1246  0.4510
 5454TIP3    H137853   0.937   5.489   3.268  1.3468  1.9770  2.9252
 5454TIP3    H237854   0.809   5.554   3.220  2.1922  1.0030 -1.0639
 5455TIP3   OH237855   5.242   1.085  11.855 -0.4249 -0.8457 -0.3738
 5455TIP3    H137856   5.329   1.076  11.815  0.3988  2.8288  0.2396
 5455TIP3    H237857   5.183   1.047  11.790  1.3059  0.2254 -2.7326
 5456TIP3   OH237858   1.801   3.044   3.709  0.5163  0.1290 -0.5892
 5456TIP3    H137859   1.738   3.098   3.756 -1.3225 -2.1946 -0.1574
 5456TIP3    H237860   1.782   3.061   3.616 -0.8197 -0.5071 -0.4660
 5457TIP3   OH237861   3.170   5.178   5.314 -0.4779 -0.4952 -0.0566
 5457TIP3    H137862   3.192   5.125   5.238  1.1694  0.7409 -0.5009
 5457TIP3    H237863   3.239   5.158   5.377  0.6211  1.6072 -0.5163
 5458TIP3   OH237864   5.270   1.847   6.486  0.7291 -0.3154  0.6073
 5458TIP3    H137865   5.336   1.786   6.455  1.7754  0.9234  0.3010
 5458TIP3    H237866   5.187   1.802   6.471  1.1095  0.0175 -3.7848
 5459TIP3   OH237867   2.181   3.936   4.473 -0.2605  0.9780 -0.1996
 5459TIP3    H137868   2.175   3.842   4.455  0.1865  0.9590 -0.2480
 5459TIP3    H237869   2.114   3.976   4.417  1.0378  0.9169 -1.8428
 5460TIP3   OH237870   1.570   6.434  12.433  0.5649  0.5455 -0.1284
 5460TIP3    H137871   1.658   6.415  12.466  0.4526 -0.4187 -0.3340
 5460TIP3    H237872   1.565   6.384  12.351 -1.0610 -1.5367  1.1320
 5461TIP3   OH237873   0.851   3.421  14.135 -0.3296  0.0526  0.0716
 5461TIP3    H137874   0.917   3.363  14.099  1.9483 -0.1146  3.9223
 5461TIP3    H237875   0.774   3.366  14.147  0.3792 -1.0319 -0.2631
 5462TIP3   OH237876   4.475   4.356  13.151  0.0891  0.0174 -0.4500
 5462TIP3    H137877   4.447   4.394  13.068  0.2735  0.5001 -0.2995
 5462TIP3    H237878   4.548   4.412  13.179 -0.4153  0.2812  0.3686
 5463TIP3   OH237879   4.638   2.893  15.815 -0.1967 -0.4660 -0.5084
 5463TIP3    H137880   4.695   2.837  15.868 -0.9956 -1.0026 -0.1993
 5463TIP3    H237881   4.576   2.833  15.775 -1.0520  0.1877 -0.1996
 5464TIP3   OH237882   2.971   3.907  11.513 -0.0777  0.1657 -0.0983
 5464TIP3    H137883   2.905   3.937  11.451 -0.0552 -0.5369 -0.4692
 5464TIP3    H237884   3.004   3.825  11.476 -0.0726 -0.2718  0.8457
 5465TIP3   OH237885   4.885   1.298   5.659  0.5015  0.6633  0.0426
 5465TIP3    H137886   4.877   1.204   5.643 -1.7847  0.5103  1.6344
 5465TIP3    H237887   4.795   1.328   5.672  1.3448  2.5798  2.0350
 5466TIP3   OH237888   0.537   2.642  15.150 -0.4085  0.1751  0.3423
 5466TIP3    H137889   0.460   2.698  15.149 -0.6557 -0.1529  0.4917
 5466TIP3    H237890   0.514   2.568  15.093 -0.9732 -0.8976  1.8794
 5467TIP3   OH237891   5.463   3.423  14.391 -0.5303 -0.1076 -0.9105
 5467TIP3    H137892   5.512   3.504  14.403  1.3504 -1.1831 -0.9313
 5467TIP3    H237893   5.373   3.452  14.374  0.1900  1.9789 -1.5154
 5468TIP3   OH237894   2.281   3.752   6.470  0.2677  0.3537  0.1416
 5468TIP3    H137895   2.186   3.753   6.460  0.1738  1.0524  0.9851
 5468TIP3    H237896   2.300   3.830   6.522  1.0717 -0.9730  1.9516
 5469TIP3   OH237897   1.935   2.158  13.757  0.2004  0.3077  0.3798
 5469TIP3    H137898   1.864   2.094  13.763 -0.0146  0.3875 -0.9362
 5469TIP3    H237899   2.006   2.121  13.809 -0.7805  0.2180  1.7068
 5470TIP3   OH237900   1.307   5.888   3.100  0.2475 -0.5500 -0.5969
 5470TIP3    H137901   1.382   5.918   3.049 -1.2373  0.0996 -2.5452
 5470TIP3    H237902   1.249   5.965   3.103  0.3261 -0.4890  2.3209
 5471TIP3   OH237903   0.396   2.240   0.123  0.1013  0.7325  0.1382
 5471TIP3    H137904   0.310   2.222   0.160 -0.5597 -1.2882 -2.1621
 5471TIP3    H237905   0.408   2.174   0.055  2.8660  1.8588 -0.6222
 5472TIP3   OH237906   1.143   0.634   2.156 -0.0186 -0.1045  0.5119
 5472TIP3    H137907   1.062   0.602   2.116  0.2002  0.7870 -0.7081
 5472TIP3    H237908   1.133   0.729   2.157  1.5927  0.1386 -1.0591
 5473TIP3   OH237909   1.929   0.983  14.069 -0.3270  0.4187  0.4703
 5473TIP3    H137910   1.976   0.992  13.986  0.1523  0.6016  0.7591
 5473TIP3    H237911   1.953   1.062  14.118 -0.1319  0.0171  1.0224
 5474TIP3   OH237912   0.373   1.509  17.531  0.1090 -0.3220  0.2300
 5474TIP3    H137913   0.307   1.544  17.591  0.1127 -0.5541  0.3720
 5474TIP3    H237914   0.412   1.586  17.490 -0.6038 -0.2002 -0.2296
 5475TIP3   OH237915   6.341   6.602  10.623  0.5875 -0.3188 -0.1877
 5475TIP3    H137916   6.350   6.574  10.532 -0.6188 -0.0721 -0.3999
 5475TIP3    H237917   6.273   6.669  10.621  0.8746  0.0246  0.8359
 5476TIP3   OH237918   4.115   4.997  16.212 -0.0497 -0.1547  0.2536
 5476TIP3    H137919   4.152   4.911  16.234 -1.4004 -0.1790  2.8232
 5476TIP3    H237920   4.138   5.053  16.285 -2.1688  0.6834  0.3637
 5477TIP3   OH237921   5.828   4.074   1.243  0.0064  0.2011 -0.2108
 5477TIP3    H137922   5.848   4.095   1.152  0.6517  0.1996 -0.0772
 5477TIP3    H237923   5.878   4.138   1.294 -0.4780  0.3059  0.1392
 5478TIP3   OH237924   5.066   6.128  12.865 -0.1302 -0.0125  0.7731
 5478TIP3    H137925   5.004   6.056  12.862 -1.0226  0.7593 -0.5374
 5478TIP3    H237926   5.025   6.194  12.922  0.5620 -0.4138  1.7582
 5479TIP3   OH237927   5.191   4.826   0.946  0.2351  0.3142 -0.0590
 5479TIP3    H137928   5.203   4.813   0.852 -1.8799 -0.3804 -0.2997
 5479TIP3    H237929   5.263   4.883   0.972  1.0343  0.2932 -2.0370
 5480TIP3   OH237930   3.988   2.704   4.368 -0.3075 -0.5409  0.1589
 5480TIP3    H137931   3.964   2.614   4.344 -0.9166 -0.4506  0.4141
 5480TIP3    H237932   3.974   2.755   4.288 -0.4286 -0.5905  0.1481
 5481TIP3   OH237933   4.042   4.908   1.754 -0.1880  0.1612 -0.2858
 5481TIP3    H137934   4.087   4.939   1.833 -1.7323 -0.5162  0.9197
 5481TIP3    H237935   4.112   4.876   1.697  0.8644 -2.8077  2.3479
 5482TIP3   OH237936   1.392   4.472   3.142  0.2647  0.8215 -0.1978
 5482TIP3    H137937   1.456   4.506   3.203 -0.6763  1.4020  0.4952
 5482TIP3    H237938   1.308   4.507   3.172 -0.3426  0.3697 -1.2762
 5483TIP3   OH237939   3.626   4.901  15.469  0.4819 -0.4058  0.3079
 5483TIP3    H137940   3.682   4.858  15.404  2.4256  0.7749  1.1036
 5483TIP3    H237941   3.688   4.944  15.528 -1.2779  2.1865  0.4185
 5484TIP3   OH237942   6.436   6.586  17.541 -0.1998 -0.4090  0.0541
 5484TIP3    H137943   6.432   6.519  17.473 -0.8072 -1.7452  1.3508
 5484TIP3    H237944   6.357   6.573  17.593 -0.1794  1.1347  0.5173
 5485TIP3   OH237945   4.888   2.210   5.677 -0.2413 -0.0245 -0.6033
 5485TIP3    H137946   4.800   2.171   5.682  0.2835 -1.1013  0.5390
 5485TIP3    H237947   4.916   2.192   5.587 -2.0102  2.2783 -1.7470
 5486TIP3   OH237948   0.030   2.403  11.535  0.2474  0.2422 -0.5984
 5486TIP3    H137949  -0.054   2.359  11.530  1.0430 -1.4490  0.1038
 5486TIP3    H237950   0.095   2.335  11.516  1.6829  0.3204  3.0460
 5487TIP3   OH237951   0.614   4.396   1.291  0.5962  0.1408 -0.8146
 5487TIP3    H137952   0.568   4.319   1.259 -0.5160  1.0809 -1.5617
 5487TIP3    H237953   0.643   4.442   1.212  0.8262  0.7423 -0.3921
 5488TIP3   OH237954   0.111   1.762   5.127  0.5685  0.8642 -0.0351
 5488TIP3    H137955   0.118   1.854   5.150  2.1344  0.1454  2.9660
 5488TIP3    H237956   0.020   1.750   5.100 -0.5181  2.7547  2.4556
 5489TIP3   OH237957   1.555   2.070  13.216  0.4828 -0.1541 -0.1422
 5489TIP3    H137958   1.602   2.061  13.299  1.3783 -1.9540 -0.7951
 5489TIP3    H237959   1.475   2.019  13.227  0.7104 -0.5854 -0.4474
 5490TIP3   OH237960   0.671   1.481   5.753  0.0046 -0.6118  0.0407
 5490TIP3    H137961   0.695   1.427   5.677  0.3257 -2.2917  1.2785
 5490TIP3    H237962   0.576   1.488   5.748  0.1937  2.1372 -2.3003
 5491TIP3   OH237963   4.171   3.043   1.886  0.4041 -0.7454  0.5401
 5491TIP3    H137964   4.128   3.105   1.945 -0.9947 -2.1565  1.0864
 5491TIP3    H237965   4.135   3.064   1.800  2.0570  0.9751  0.1962
 5492TIP3   OH237966   6.369   6.190   2.319  0.4483  0.2647 -0.3981
 5492TIP3    H137967   6.359   6.178   2.414  0.8371 -0.0770 -0.3958
 5492TIP3    H237968   6.458   6.159   2.301  0.6900  1.1417 -0.7474
 5493TIP3   OH237969   6.228   6.200  16.672  0.6236  0.2821  0.2196
 5493TIP3    H137970   6.224   6.200  16.767  0.4775  0.6559  0.2172
 5493TIP3    H237971   6.139   6.178  16.644  0.3394  1.4478  0.1722
 5494TIP3   OH237972   5.757   3.253   1.807 -0.3025 -0.0136 -0.3437
 5494TIP3    H137973   5.814   3.303   1.748 -0.0905  1.2193  0.8824
 5494TIP3    H237974   5.668   3.275   1.779 -0.2073 -0.2309 -0.8395
 5495TIP3   OH237975   4.420   6.429  11.542 -0.3717 -0.3258 -0.1380
 5495TIP3    H137976   4.360   6.500  11.518  0.7365  0.2338 -1.3529
 5495TIP3    H237977   4.364   6.366  11.588 -1.8550  0.2804 -1.0073
 5496TIP3   OH237978   5.641   5.598   0.479  0.1641  0.1844 -0.1275
 5496TIP3    H137979   5.660   5.529   0.416  0.0770  0.2576 -0.2356
 5496TIP3    H237980   5.546   5.610   0.475  0.0240 -0.5187  0.7706
 5497TIP3   OH237981   1.300   1.946  17.471  0.0050 -1.0468 -0.1737
 5497TIP3    H137982   1.384   1.990  17.456  0.7845 -1.7067  1.8869
 5497TIP3    H237983   1.236   1.997  17.422  1.6057 -0.5103 -1.7658
 5498TIP3   OH237984   4.578   3.255  12.060  0.0273  0.1963  0.0643
 5498TIP3    H137985   4.528   3.173  12.054 -0.7925  0.4913  2.1131
 5498TIP3    H237986   4.653   3.242  12.001 -1.1100 -1.2428 -1.1466
 5499TIP3   OH237987   2.120   6.197  15.271 -0.2784  0.7884 -0.2893
 5499TIP3    H137988   2.067   6.144  15.331  1.0019 -2.3526 -1.7257
 5499TIP3    H237989   2.065   6.273  15.251 -3.5751 -1.4642 -0.4570
 5500TIP3   OH237990   1.150   1.176   1.068  0.1918  0.1133  0.1090
 5500TIP3    H137991   1.102   1.146   0.991  2.3655  0.7838 -1.6207
 5500TIP3    H237992   1.205   1.102   1.092 -0.6101 -0.1604  1.2074
 5501TIP3   OH237993   1.295   0.347  12.917 -0.1559 -0.3982 -0.0616
 5501TIP3    H137994   1.223   0.348  12.854 -2.0387 -2.8934  1.8460
 5501TIP3    H237995   1.359   0.286  12.880 -1.2077 -1.7791  0.3403
 5502TIP3   OH237996   6.642   6.664   1.124 -0.0955 -1.0832  0.1034
 5502TIP3    H137997   6.547   6.665   1.121 -0.0696 -0.3748 -0.6885
 5502TIP3    H237998   6.667   6.579   1.088 -0.4145 -1.0286 -0.2464
 5503TIP3   OH237999   3.055   5.292   6.821  0.4451  0.2360  0.4484
 5503TIP3    H138000   2.987   5.335   6.873  0.9368  1.1519  0.3406
 5503TIP3    H238001   3.066   5.206   6.863  0.4763  0.7598  1.5427
 5504TIP3   OH238002   0.290   1.819   1.222  0.1902  0.4403 -0.1181
 5504TIP3    H138003   0.197   1.801   1.214 -0.0956  1.4524  0.6817
 5504TIP3    H238004   0.301   1.849   1.312  1.1588  1.0513 -0.4194
 5505TIP3   OH238005   4.093   3.970  13.628  0.7850 -0.0146  0.2692
 5505TIP3    H138006   4.151   3.967  13.552 -0.4826  1.5844 -0.8347
 5505TIP3    H238007   4.053   4.057  13.624 -0.5093 -0.4927  1.8607
 5506TIP3   OH238008   5.169   0.703   2.216 -0.5071  0.0611 -0.1751
 5506TIP3    H138009   5.219   0.711   2.134 -0.6743 -1.4051 -0.4422
 5506TIP3    H238010   5.145   0.611   2.221 -0.7080  0.1676  1.4241
 5507TIP3   OH238011   1.155   6.363  15.623  0.2130  0.0836 -0.1669
 5507TIP3    H138012   1.199   6.429  15.677  0.3784  0.4240 -0.7149
 5507TIP3    H238013   1.128   6.410  15.545 -0.8712 -0.1914  0.0299
 5508TIP3   OH238014   2.952   6.340   4.542  0.4297  0.1142  0.1398
 5508TIP3    H138015   2.941   6.365   4.634  1.5565 -1.5857  0.7931
 5508TIP3    H238016   2.863   6.339   4.507  0.1479  3.0689  0.5103
 5509TIP3   OH238017   5.351   2.447   2.764 -0.4902 -0.2310 -0.0746
 5509TIP3    H138018   5.426   2.404   2.722  0.0739  0.3388  0.3250
 5509TIP3    H238019   5.282   2.382   2.762 -0.5207 -0.1908 -1.9755
 5510TIP3   OH238020   3.899   3.053  17.031 -0.1858 -0.6363  0.4441
 5510TIP3    H138021   3.892   2.961  17.005 -0.4294  0.0662 -2.1872
 5510TIP3    H238022   3.810   3.087  17.023  0.2391  0.2938 -0.5732
 5511TIP3   OH238023   5.266   0.768  16.283 -1.2044  0.2116  0.4462
 5511TIP3    H138024   5.185   0.772  16.232 -0.4575 -0.7130 -0.8780
 5511TIP3    H238025   5.332   0.809  16.228 -1.2159  3.6076  2.6686
 5512TIP3   OH238026   1.403   6.653   5.876  0.0967  0.0958 -0.7082
 5512TIP3    H138027   1.432   6.570   5.840 -0.6312  0.2042 -1.5824
 5512TIP3    H238028   1.426   6.649   5.969  2.0227 -0.1973 -1.1493
 5513TIP3   OH238029   4.400   3.345   0.251 -0.3299 -0.5616 -0.4040
 5513TIP3    H138030   4.380   3.415   0.313 -1.7925  0.3471 -1.8215
 5513TIP3    H238031   4.381   3.265   0.299 -0.3098  0.0677  0.6940
 5514TIP3   OH238032   6.165   1.695  15.432  0.0718  0.3015 -0.6029
 5514TIP3    H138033   6.252   1.714  15.398  0.3165  1.4685  0.6120
 5514TIP3    H238034   6.165   1.731  15.521 -1.0287 -1.3371  0.1075
 5515TIP3   OH238035   4.567   5.888   5.646 -0.1488 -0.6325 -0.1749
 5515TIP3    H138036   4.496   5.901   5.583  0.8789  1.8021 -0.9509
 5515TIP3    H238037   4.538   5.932   5.725 -0.1960 -1.1136  0.0807
 5516TIP3   OH238038   4.645   5.775  17.618  0.2247  0.7619  0.6566
 5516TIP3    H138039   4.720   5.717  17.614  0.5378  1.2250 -0.5368
 5516TIP3    H238040   4.592   5.752  17.542 -0.7958  0.5253  1.4121
 5517TIP3   OH238041   5.376   1.347  12.185 -0.8903  0.8906 -0.2381
 5517TIP3    H138042   5.426   1.278  12.142  0.8741  2.0776 -0.2214
 5517TIP3    H238043   5.294   1.351  12.137 -0.9728 -1.0739 -0.3378
 5518TIP3   OH238044   1.401   5.131  11.194 -0.2642  0.1587 -0.3070
 5518TIP3    H138045   1.473   5.186  11.226  0.9354 -2.6219  2.2140
 5518TIP3    H238046   1.404   5.142  11.099  2.2414  1.6455 -0.1486
 5519TIP3   OH238047   4.380   3.955   2.744  0.5120  0.0822 -0.1449
 5519TIP3    H138048   4.433   3.877   2.761  0.6624  0.3489  0.6648
 5519TIP3    H238049   4.306   3.923   2.693  0.2468 -0.7126  0.6960
 5520TIP3   OH238050   1.933   1.177   4.805 -0.5769 -0.3414 -0.5530
 5520TIP3    H138051   1.922   1.271   4.791  0.9178  0.5422  3.2048
 5520TIP3    H238052   1.863   1.152   4.866  1.5903 -0.5656  2.0069
 5521TIP3   OH238053   4.187   4.342  14.846  0.4793  0.3995  0.3145
 5521TIP3    H138054   4.103   4.374  14.879  0.4734 -0.9195  1.6976
 5521TIP3    H238055   4.169   4.313  14.757 -0.1084  1.7514 -0.0237
 5522TIP3   OH238056   4.199   6.567  17.261  0.1641  0.4227  0.0804
 5522TIP3    H138057   4.285   6.531  17.237  0.7376  0.7137  1.5726
 5522TIP3    H238058   4.219   6.651  17.302 -0.9357  0.9912 -0.5016
 5523TIP3   OH238059   2.097   2.489  11.981  0.1051  0.1289  0.2420
 5523TIP3    H138060   2.049   2.421  12.029  2.7854 -3.1778 -1.3302
 5523TIP3    H238061   2.182   2.493  12.023  1.3335 -0.4082 -2.0161
 5524TIP3   OH238062   3.821   0.477   2.739 -0.0015  0.1137  0.6552
 5524TIP3    H138063   3.751   0.455   2.679  1.0993 -0.3683 -0.4973
 5524TIP3    H238064   3.824   0.404   2.801  1.7283 -1.7165 -1.4123
 5525TIP3   OH238065   4.371   0.202   0.273 -0.3694  0.1097  0.0762
 5525TIP3    H138066   4.310   0.190   0.346 -0.9082 -0.0675 -0.3935
 5525TIP3    H238067   4.325   0.166   0.197 -0.1609  1.0452 -0.5083
 5526TIP3   OH238068   2.057   2.540  13.075  0.4078  0.7079  0.2533
 5526TIP3    H138069   2.034   2.552  13.168  0.8434  0.1325  0.4394
 5526TIP3    H238070   1.973   2.544  13.029  0.1503  0.6477  0.7093
 5527TIP3   OH238071   6.523   5.564  14.644 -0.0160  0.7268 -0.2128
 5527TIP3    H138072   6.567   5.521  14.718 -0.1080  1.8441  0.5154
 5527TIP3    H238073   6.507   5.493  14.582 -1.1063 -0.5249  1.3887
 5528TIP3   OH238074   5.333   2.069  11.921  0.2006  0.6217  0.1009
 5528TIP3    H138075   5.368   2.023  11.845  4.8189  3.3498  0.2140
 5528TIP3    H238076   5.316   2.158  11.890 -1.2019  0.9177  1.5509
 5529TIP3   OH238077   4.305   3.282  11.661  0.2433 -0.2411  0.0275
 5529TIP3    H138078   4.264   3.287  11.575 -0.2622 -0.0036  0.2776
 5529TIP3    H238079   4.296   3.190  11.686 -1.4541  0.0617  0.6976
 5530TIP3   OH238080   3.190   5.157   1.487  0.3949 -0.4003 -0.3421
 5530TIP3    H138081   3.141   5.206   1.553  2.3648  1.0985  0.0978
 5530TIP3    H238082   3.209   5.221   1.419  2.5269 -0.6638 -0.0469
 5531TIP3   OH238083   0.480   3.686  12.443 -0.2294 -0.0574 -0.1900
 5531TIP3    H138084   0.563   3.732  12.457 -1.5435  2.7670 -0.9049
 5531TIP3    H238085   0.484   3.656  12.352 -0.7480  1.9169 -0.9056
 5532TIP3   OH238086   4.748   1.393   3.529  0.0536 -0.0297  0.1039
 5532TIP3    H138087   4.749   1.431   3.616  0.9956 -1.2154  0.6411
 5532TIP3    H238088   4.830   1.345   3.522 -1.1515 -2.1747 -0.4060
 5533TIP3   OH238089   6.475   2.876   1.839  0.2897  0.5092 -0.3990
 5533TIP3    H138090   6.512   2.801   1.793  0.3627  0.3681 -0.1081
 5533TIP3    H238091   6.528   2.951   1.811  2.7877 -0.0864  2.2787
 5534TIP3   OH238092   3.029   2.121   3.680 -0.6620 -0.2339 -0.0397
 5534TIP3    H138093   3.092   2.111   3.609 -0.6951 -0.0949 -0.0899
 5534TIP3    H238094   2.966   2.051   3.666 -1.3890  0.5638 -0.9101
 5535TIP3   OH238095   1.914   4.808   5.363 -0.0627  0.0312 -0.1199
 5535TIP3    H138096   1.956   4.862   5.296 -1.8851 -1.8096 -2.9990
 5535TIP3    H238097   1.918   4.719   5.327 -4.0876 -0.5893  0.5261
 5536TIP3   OH238098   1.989   0.327  15.939  0.5007  0.2264  0.0280
 5536TIP3    H138099   2.034   0.269  15.878 -1.7644 -1.9002  0.2352
 5536TIP3    H238100   2.018   0.298  16.026  0.0358 -0.0047  0.1075
 5537TIP3   OH238101   2.926   4.918  12.364  0.0472 -0.5095 -0.0128
 5537TIP3    H138102   2.960   4.946  12.279 -2.7592  1.5106 -0.6283
 5537TIP3    H238103   2.968   4.977  12.427  0.4851 -0.5335 -0.2821
 5538TIP3   OH238104   4.560   5.695   2.991  0.2189  0.4282  0.0603
 5538TIP3    H138105   4.492   5.675   3.056  0.0374  0.7585 -0.0282
 5538TIP3    H238106   4.523   5.667   2.908 -0.4948  2.1125 -0.2320
 5539TIP3   OH238107   4.558   2.417   2.471 -0.4469 -0.2220 -0.2955
 5539TIP3    H138108   4.529   2.506   2.491  1.3824  0.2750  0.3375
 5539TIP3    H238109   4.596   2.385   2.552  0.6543 -0.8570 -1.0328
 5540TIP3   OH238110   1.518   4.204   3.195  0.0872 -0.1645 -0.6098
 5540TIP3    H138111   1.451   4.173   3.135  0.0128  1.5013 -1.4382
 5540TIP3    H238112   1.500   4.298   3.205  1.4074  0.0228  0.3139
 5541TIP3   OH238113   4.888   0.298   0.558  0.2610  0.6898  0.3240
 5541TIP3    H138114   4.800   0.280   0.523  0.8432 -0.2533 -0.7475
 5541TIP3    H238115   4.872   0.334   0.645 -1.1833 -0.3946  0.5612
 5542TIP3   OH238116   3.492   3.670  13.339 -0.2349  0.0872 -0.1569
 5542TIP3    H138117   3.416   3.634  13.293 -0.1240 -0.4451  0.0706
 5542TIP3    H238118   3.463   3.757  13.368  0.3514  1.2845 -2.9165
 5543TIP3   OH238119   5.527   0.845   5.054  0.3699  1.0549 -0.5336
 5543TIP3    H138120   5.510   0.816   4.965  4.1188 -0.4588 -0.9161
 5543TIP3    H238121   5.493   0.935   5.057 -1.2389  0.6123 -2.9415
 5544TIP3   OH238122   1.746   4.920   3.623  0.3296 -0.5978 -0.1560
 5544TIP3    H138123   1.809   4.923   3.694  0.2758  0.5628 -0.1453
 5544TIP3    H238124   1.711   4.831   3.626  0.5104 -0.6407  1.0980
 5545TIP3   OH238125   3.464   2.104   5.971  0.0382  0.6638  0.3095
 5545TIP3    H138126   3.475   2.168   6.042  2.9653 -1.1573  1.7122
 5545TIP3    H238127   3.464   2.019   6.015  0.0067 -0.4573 -1.7379
 5546TIP3   OH238128   6.206   6.226   1.352  0.1020 -0.8640  0.3589
 5546TIP3    H138129   6.263   6.278   1.408 -1.0098  0.5134  0.2705
 5546TIP3    H238130   6.137   6.286   1.325  0.6302 -1.4285 -2.6036
 5547TIP3   OH238131   6.388   6.192   0.421 -0.7790 -0.1062  0.1636
 5547TIP3    H138132   6.321   6.146   0.471  0.1564 -1.8335 -0.1118
 5547TIP3    H238133   6.357   6.191   0.331 -1.2268  0.7134  0.2982
 5548TIP3   OH238134   3.542   3.734  14.948 -0.5023 -0.2454 -0.1675
 5548TIP3    H138135   3.569   3.717  15.038 -0.6170 -1.4974 -0.3635
 5548TIP3    H238136   3.576   3.822  14.930 -0.3189 -0.0532  1.0305
 5549TIP3   OH238137   1.362   3.024  13.192  0.2912 -0.4537  0.6023
 5549TIP3    H138138   1.347   2.945  13.139  1.7405  0.4138 -1.1751
 5549TIP3    H238139   1.338   2.997  13.281 -2.0379 -2.0259 -0.3917
 5550TIP3   OH238140   5.433   5.608  12.956  0.5586 -0.6223  0.3451
 5550TIP3    H138141   5.494   5.645  12.893 -0.1857 -1.7923 -1.1222
 5550TIP3    H238142   5.478   5.532  12.992 -0.2485 -1.9949 -1.3605
 5551TIP3   OH238143   5.571   1.036  13.678  0.0880  0.0495  0.5468
 5551TIP3    H138144   5.665   1.027  13.696 -0.0148  2.2075  2.6367
 5551TIP3    H238145   5.529   0.978  13.742 -0.0392  0.7237  1.0842
 5552TIP3   OH238146   6.608   3.320   4.597  0.2930 -0.3134 -0.4116
 5552TIP3    H138147   6.637   3.262   4.527 -1.1758 -1.0996 -0.4030
 5552TIP3    H238148   6.560   3.263   4.657 -1.3140  0.9129 -0.4759
 5553TIP3   OH238149   1.748   4.746  14.663  0.2178  0.0540 -0.1486
 5553TIP3    H138150   1.762   4.737  14.568 -4.0705 -2.2651 -0.8197
 5553TIP3    H238151   1.699   4.828  14.672 -0.8388 -0.5499 -0.2295
 5554TIP3   OH238152   4.702   6.365  12.310  0.6959 -0.1437 -0.3362
 5554TIP3    H138153   4.622   6.348  12.260  0.3577 -0.1983  0.2130
 5554TIP3    H238154   4.739   6.279  12.328  0.1008 -0.2242  0.6377
 5555TIP3   OH238155   2.464   4.574  12.596 -0.1321  0.1337 -0.1827
 5555TIP3    H138156   2.476   4.509  12.527  0.2113 -0.3174  0.2921
 5555TIP3    H238157   2.393   4.631  12.564  1.1650  0.9876 -1.6734
 5556TIP3   OH238158   5.270   2.311  14.967  0.3196 -0.0185  0.3237
 5556TIP3    H138159   5.290   2.233  14.915  0.9760  1.3354 -1.5132
 5556TIP3    H238160   5.175   2.306  14.982  0.3439 -1.1220  0.1865
 5557TIP3   OH238161   6.144   0.864  11.828 -0.0034  0.1168 -0.9522
 5557TIP3    H138162   6.166   0.773  11.806  1.7836  0.4863 -0.8606
 5557TIP3    H238163   6.052   0.873  11.802 -0.4821 -1.9460 -0.1517
 5558TIP3   OH238164   2.651   2.832   5.094 -0.1062 -0.2384 -0.1244
 5558TIP3    H138165   2.577   2.868   5.046 -0.5199  1.1276  1.4296
 5558TIP3    H238166   2.694   2.909   5.132  0.2190 -1.2296  1.6144
 5559TIP3   OH238167   1.626   3.332  17.298  0.5078  0.0840 -0.0466
 5559TIP3    H138168   1.717   3.300  17.302  1.2329  1.6400 -2.0799
 5559TIP3    H238169   1.610   3.346  17.204 -1.7791  0.0749  0.2872
 5560TIP3   OH238170   5.321   5.471   5.726 -0.0034  0.2384 -0.2070
 5560TIP3    H138171   5.240   5.428   5.698 -0.6429  0.6007  1.0278
 5560TIP3    H238172   5.319   5.466   5.822  1.4473  0.2395 -0.1524
 5561TIP3   OH238173   3.804   2.066   5.983  0.0024 -0.3831  0.2821
 5561TIP3    H138174   3.804   1.982   6.029 -1.8846  0.3637  1.8126
 5561TIP3    H238175   3.714   2.099   5.994  0.3493  1.2828 -1.3301
 5562TIP3   OH238176   5.595   4.516  14.536 -0.7941 -0.1288 -0.6355
 5562TIP3    H138177   5.599   4.462  14.615 -2.8909  0.4677 -0.0413
 5562TIP3    H238178   5.536   4.469  14.477 -1.2834  0.6681 -0.7992
 5563TIP3   OH238179   3.900   2.862   1.139  0.0955  0.1700 -0.3883
 5563TIP3    H138180   3.949   2.944   1.135 -0.4052  0.4893 -0.0659
 5563TIP3    H238181   3.945   2.805   1.076  0.5779  0.6147 -0.4595
 5564TIP3   OH238182   4.625   4.701  14.053  0.0827 -0.6952  0.4929
 5564TIP3    H138183   4.532   4.698  14.078 -0.4630 -0.7637 -1.3786
 5564TIP3    H238184   4.665   4.627  14.098 -1.1990 -1.8365 -0.1855
 5565TIP3   OH238185   0.700   2.742   6.038 -0.5156  0.0103  0.5121
 5565TIP3    H138186   0.621   2.782   6.002  0.2152  0.2272 -0.9776
 5565TIP3    H238187   0.772   2.787   5.992  0.3671 -2.7930 -1.1392
 5566TIP3   OH238188   4.309   5.499  12.499  0.1517 -0.5655  0.1830
 5566TIP3    H138189   4.295   5.586  12.461 -0.2085 -1.0244 -0.7613
 5566TIP3    H238190   4.390   5.468  12.458  0.0040 -0.8835  0.1290
 5567TIP3   OH238191   5.291   2.336  11.813  0.1574 -0.6965  0.4039
 5567TIP3    H138192   5.239   2.369  11.740  0.4293  0.2654  0.6376
 5567TIP3    H238193   5.377   2.378  11.804 -0.0727  0.1328  1.7613
 5568TIP3   OH238194   0.762   4.166  16.483  0.1228 -0.3157 -0.0244
 5568TIP3    H138195   0.741   4.074  16.493  0.0380 -0.2882  0.0503
 5568TIP3    H238196   0.795   4.173  16.394  1.3194 -0.6383  0.3849
 5569TIP3   OH238197   1.766   0.742  15.601  0.9130 -0.0264  0.3464
 5569TIP3    H138198   1.708   0.778  15.668 -0.2991  0.1765 -0.7885
 5569TIP3    H238199   1.807   0.666  15.643  1.3264  0.9492  1.8034
 5570TIP3   OH238200   6.575   4.173   4.897  0.2956 -0.1556  0.1560
 5570TIP3    H138201   6.536   4.258   4.877  0.5415 -0.7852 -3.7675
 5570TIP3    H238202   6.657   4.194   4.942 -1.0564  1.4339  2.1111
 5571TIP3   OH238203   4.790   5.160  16.393 -0.3456  0.8828 -0.3769
 5571TIP3    H138204   4.760   5.206  16.471 -1.2778 -0.5191  0.1439
 5571TIP3    H238205   4.778   5.222  16.322  0.2169  2.0731  0.5418
 5572TIP3   OH238206   2.412   0.124  12.303 -0.1766  0.6158  0.3992
 5572TIP3    H138207   2.483   0.096  12.245  1.0274 -0.6474  2.3663
 5572TIP3    H238208   2.457   0.154  12.382 -1.8056  1.3903  1.0628
 5573TIP3   OH238209   0.767   6.495  12.910 -0.1354 -0.1825  0.0907
 5573TIP3    H138210   0.786   6.450  12.828  0.7053 -1.9402  1.1914
 5573TIP3    H238211   0.842   6.552  12.925  0.1002 -0.4755  0.0322
 5574TIP3   OH238212   3.787   1.000  14.381 -0.8230 -0.0791 -0.2802
 5574TIP3    H138213   3.712   0.940  14.382 -1.3767  0.5964  0.2922
 5574TIP3    H238214   3.838   0.976  14.458 -0.3370 -0.6714 -0.7824
 5575TIP3   OH238215   6.590   1.773  16.041  0.7200 -0.0714 -0.2327
 5575TIP3    H138216   6.516   1.749  16.096  1.6794  0.3119  1.2765
 5575TIP3    H238217   6.611   1.693  15.993  0.1953 -0.5667  0.3487
 5576TIP3   OH238218   5.980   6.649  12.955  0.1190 -1.0076  0.1343
 5576TIP3    H138219   5.889   6.621  12.951 -0.0391 -0.3656 -1.7777
 5576TIP3    H238220   5.978   6.742  12.932  1.2382 -0.9302  0.2712
 5577TIP3   OH238221   1.365   4.919  12.194 -0.1343 -0.5755  0.2290
 5577TIP3    H138222   1.455   4.898  12.170  0.2534  2.0829 -1.1008
 5577TIP3    H238223   1.324   4.948  12.112 -1.4884  0.4771  1.2161
 5578TIP3   OH238224   3.410   6.038  16.343 -0.4670  0.1784 -0.1440
 5578TIP3    H138225   3.416   5.946  16.316 -1.1419  0.1768 -0.3152
 5578TIP3    H238226   3.337   6.040  16.405 -0.5223  0.6200 -0.2176
 5579TIP3   OH238227   4.713   5.196  14.490 -0.3912 -0.1772 -0.0725
 5579TIP3    H138228   4.632   5.230  14.529 -0.5397 -1.3926  0.7574
 5579TIP3    H238229   4.701   5.101  14.491  1.1026 -0.3789  0.1710
 5580TIP3   OH238230   6.371   1.220  13.194  0.1691  0.3929  0.4087
 5580TIP3    H138231   6.429   1.145  13.183  0.7973  0.5545  2.3906
 5580TIP3    H238232   6.402   1.283  13.129  1.8372  0.2379  1.0073
 5581TIP3   OH238233   1.500   1.527   2.671 -0.5673  0.0727  0.1940
 5581TIP3    H138234   1.589   1.496   2.687 -0.2179  0.1042 -1.5042
 5581TIP3    H238235   1.466   1.549   2.758  1.0200 -0.0723  0.8838
 5582TIP3   OH238236   2.191   0.819  17.609 -0.8327 -0.6926 -0.0837
 5582TIP3    H138237   2.116   0.776  17.650 -1.7841 -0.5822 -1.6411
 5582TIP3    H238238   2.168   0.912  17.610 -0.3052 -0.5630  0.2363
 5583TIP3   OH238239   2.796   4.248   1.897  0.4160  0.2646 -0.1681
 5583TIP3    H138240   2.727   4.312   1.912 -0.1820 -0.4380  0.1452
 5583TIP3    H238241   2.775   4.209   1.812 -0.6895 -1.2987  0.7816
 5584TIP3   OH238242   1.175   2.140   1.030  0.1823 -0.1160 -0.1771
 5584TIP3    H138243   1.245   2.086   1.066  0.1493 -1.1273 -1.5501
 5584TIP3    H238244   1.128   2.173   1.107  2.2350  0.7611  0.7996
 5585TIP3   OH238245   4.574   1.790   2.183 -0.0431  0.2462  0.3740
 5585TIP3    H138246   4.649   1.733   2.168 -1.1864 -1.0750 -0.6548
 5585TIP3    H238247   4.545   1.768   2.272  1.6311  1.8733  1.3977
 5586TIP3   OH238248   3.922   0.995   4.885  0.4639 -0.3553 -0.0325
 5586TIP3    H138249   3.944   0.916   4.934  2.7698  1.0996  1.4967
 5586TIP3    H238250   3.827   1.002   4.889  0.4261 -1.5708  2.1840
 5587TIP3   OH238251   4.644   1.861  12.169  0.6030 -0.0546 -0.8863
 5587TIP3    H138252   4.662   1.888  12.260 -1.1635 -0.2594 -0.4261
 5587TIP3    H238253   4.587   1.785  12.178  1.4945 -0.9003 -2.1981
 5588TIP3   OH238254   0.413   4.931   3.442  0.3299 -0.0494 -0.6589
 5588TIP3    H138255   0.338   4.979   3.478 -1.0002 -3.5973  1.9377
 5588TIP3    H238256   0.489   4.985   3.464 -0.9156  0.5125  3.1548
 5589TIP3   OH238257   0.224   2.738   1.235  0.6008  0.1450 -0.1584
 5589TIP3    H138258   0.249   2.766   1.323 -1.9002  0.7132  0.4571
 5589TIP3    H238259   0.175   2.657   1.249  1.3769 -0.5193 -1.1961
 5590TIP3   OH238260   5.404   5.315   1.531  0.1402 -0.3286  0.1908
 5590TIP3    H138261   5.396   5.331   1.625 -3.1784  1.3287 -0.2208
 5590TIP3    H238262   5.364   5.228   1.519 -0.2830 -0.1481  0.2480
 5591TIP3   OH238263   0.650   3.609   0.119  0.1402 -0.7698  0.0616
 5591TIP3    H138264   0.600   3.608   0.038  1.3205 -0.7587 -0.7021
 5591TIP3    H238265   0.607   3.545   0.175 -0.3595 -1.2035 -0.7964
 5592TIP3   OH238266   5.720   6.167   6.363 -0.5879 -0.1685 -0.1695
 5592TIP3    H138267   5.739   6.170   6.269  1.6222  0.5358  0.2236
 5592TIP3    H238268   5.679   6.251   6.382  0.5768  0.4501 -0.2583
 5593TIP3   OH238269   1.363   3.964  17.362 -0.3971 -0.1088  0.1001
 5593TIP3    H138270   1.390   3.880  17.402  0.1180  0.1019  0.2048
 5593TIP3    H238271   1.442   4.018  17.366 -1.1476  0.9442  1.5020
 5594TIP3   OH238272   5.551   3.947  16.544 -0.5715  0.2922 -0.3713
 5594TIP3    H138273   5.586   4.036  16.540  0.9245 -0.2129  0.5477
 5594TIP3    H238274   5.594   3.901  16.473 -1.3802  0.2903 -0.8742
 5595TIP3   OH238275   4.308   5.925   5.123 -0.0289  0.0338 -0.6677
 5595TIP3    H138276   4.267   6.010   5.115  0.8017  0.4998 -0.1234
 5595TIP3    H238277   4.402   5.944   5.127  0.1389 -0.8697 -0.0849
 5596TIP3   OH238278   2.846   5.196  11.581  0.0851  0.0944  0.1961
 5596TIP3    H138279   2.940   5.178  11.583 -0.1180 -1.0134  1.4307
 5596TIP3    H238280   2.840   5.291  11.588  1.1292  0.0486  3.0242
 5597TIP3   OH238281   3.770   2.001  17.302 -0.1528  0.1151  0.2846
 5597TIP3    H138282   3.715   2.002  17.224 -1.9172  0.4640  1.4823
 5597TIP3    H238283   3.778   2.093  17.326  0.3970  0.0082  0.5187
 5598TIP3   OH238284   1.842   3.231   3.141 -0.6439 -0.3750  0.2341
 5598TIP3    H138285   1.805   3.146   3.165  0.2203 -0.7179  0.3774
 5598TIP3    H238286   1.934   3.213   3.123  0.0521  0.8670  2.2501
 5599TIP3   OH238287   3.915   4.076  11.058 -0.4168 -0.6640 -0.1787
 5599TIP3    H138288   3.888   3.995  11.102 -1.2161 -0.0855  0.4378
 5599TIP3    H238289   3.933   4.137  11.130 -0.7304 -0.0164 -0.6372
 5600TIP3   OH238290   2.843   2.439   5.351 -0.3456  0.1033 -0.3432
 5600TIP3    H138291   2.816   2.471   5.265 -3.7360 -1.1805  0.0859
 5600TIP3    H238292   2.765   2.448   5.406  1.8924  1.5763  2.9180
 5601TIP3   OH238293   1.442   2.867   3.408 -0.1458 -0.7420  0.0694
 5601TIP3    H138294   1.433   2.772   3.396  0.9642 -0.9767  0.9082
 5601TIP3    H238295   1.388   2.886   3.485 -0.7656 -0.5962 -0.3921
 5602TIP3   OH238296   0.033   0.190   1.202 -0.2645  0.4519 -0.4141
 5602TIP3    H138297  -0.005   0.169   1.288  0.2231  0.7330 -0.1253
 5602TIP3    H238298   0.012   0.114   1.148 -0.8671  0.4124 -0.1426
 5603TIP3   OH238299   1.607   1.345   1.890  0.0802  0.0668  0.0426
 5603TIP3    H138300   1.670   1.358   1.819 -0.1167  1.8808  0.1499
 5603TIP3    H238301   1.660   1.348   1.970  0.1054 -0.4851  0.0531
 5604TIP3   OH238302   2.121   0.379   4.682 -0.4922  0.5284  0.3065
 5604TIP3    H138303   2.047   0.340   4.730  0.1340 -1.2993 -0.1196
 5604TIP3    H238304   2.082   0.417   4.604 -1.2140  1.3203  1.0369
 5605TIP3   OH238305   0.834   0.287  16.452 -0.3500 -0.0252  0.5291
 5605TIP3    H138306   0.839   0.357  16.517  0.1284  0.8796 -0.4528
 5605TIP3    H238307   0.749   0.246  16.469 -0.9805  1.2639  0.6746
 5606TIP3   OH238308   5.710   6.612   6.096  0.1459 -0.3338 -0.3237
 5606TIP3    H138309   5.786   6.641   6.046  0.5038  2.5376  1.6461
 5606TIP3    H238310   5.746   6.570   6.173 -0.2314  0.5601  0.3608
 5607TIP3   OH238311   1.521   6.319   4.367  0.3016  0.7835 -0.4138
 5607TIP3    H138312   1.468   6.242   4.346  0.5227  0.9998 -1.8614
 5607TIP3    H238313   1.576   6.333   4.290  1.6359  1.2763  0.5800
 5608TIP3   OH238314   4.705   5.824  15.351 -0.2825  0.2998 -0.1563
 5608TIP3    H138315   4.650   5.870  15.414  0.4091 -1.4340  1.7995
 5608TIP3    H238316   4.676   5.733  15.356  1.4923 -0.3091 -0.5051
 5609TIP3   OH238317   3.208   5.043   4.375 -0.0840  0.1683 -0.1177
 5609TIP3    H138318   3.275   5.111   4.363 -0.3546  0.4116 -0.2735
 5609TIP3    H238319   3.250   4.963   4.344  0.6978  0.0138  1.2684
 5610TIP3   OH238320   6.130   4.255  13.739 -0.2624  0.0566  0.4469
 5610TIP3    H138321   6.222   4.229  13.728 -0.2404 -0.3533  1.5350
 5610TIP3    H238322   6.112   4.310  13.662  0.9822  0.3961  0.3762
 5611TIP3   OH238323   0.798   5.412   1.233  0.1623  0.5328  0.3981
 5611TIP3    H138324   0.867   5.379   1.291 -1.1433 -0.4447  1.4485
 5611TIP3    H238325   0.798   5.350   1.160  0.8132  0.9007  0.0817
 5612TIP3   OH238326   2.377   1.774   2.951 -0.3438  0.0003 -0.1350
 5612TIP3    H138327   2.399   1.702   3.010  1.3208  0.8349  0.3421
 5612TIP3    H238328   2.309   1.739   2.894 -0.6985 -1.4199  1.1041
 5613TIP3   OH238329   3.997   5.745   0.836  0.2466 -0.2931  0.2205
 5613TIP3    H138330   4.034   5.672   0.787  1.3766 -0.7646  1.6858
 5613TIP3    H238331   3.976   5.707   0.922 -2.3695  0.3088 -0.0753
 5614TIP3   OH238332   6.151   5.212   4.617  1.2863  0.6333 -0.2708
 5614TIP3    H138333   6.206   5.290   4.614 -0.0761  1.6237  0.0668
 5614TIP3    H238334   6.107   5.216   4.702  0.9690 -0.3548 -0.3740
 5615TIP3   OH238335   5.436   1.811   4.133 -0.2827  0.3352 -0.2614
 5615TIP3    H138336   5.500   1.828   4.203 -1.1339 -1.0683  0.9179
 5615TIP3    H238337   5.431   1.716   4.128 -2.2198  0.3970 -0.3363
 5616TIP3   OH238338   4.896   2.221   3.776  0.1883  0.2330 -0.1880
 5616TIP3    H138339   4.918   2.135   3.739 -0.1181  0.6175 -1.3322
 5616TIP3    H238340   4.976   2.249   3.819  0.4503 -0.4160 -0.2356
 5617TIP3   OH238341   1.406   5.166  13.136  0.3403  0.3252  0.0530
 5617TIP3    H138342   1.491   5.211  13.129  0.3301  0.1973 -0.9620
 5617TIP3    H238343   1.398   5.145  13.229  1.6651 -0.1200  0.0891
 5618TIP3   OH238344   1.159   4.249  11.585 -0.1630  0.2056  0.3901
 5618TIP3    H138345   1.251   4.235  11.605 -0.3474  0.2830  1.3240
 5618TIP3    H238346   1.114   4.178  11.631 -0.6029  0.4085  0.2750
 5619TIP3   OH238347   2.621   3.760   3.625 -0.9016  0.4138  0.1330
 5619TIP3    H138348   2.583   3.694   3.684 -0.7172 -0.0979 -0.3178
 5619TIP3    H238349   2.550   3.780   3.563 -0.4478 -0.5283 -0.6980
 5620TIP3   OH238350   0.157   0.757   5.913  0.5482  0.4215 -0.1429
 5620TIP3    H138351   0.148   0.804   5.830  0.9174  0.5445 -0.1155
 5620TIP3    H238352   0.229   0.696   5.898 -0.6586 -0.9625 -0.5580
 5621TIP3   OH238353   0.863   1.751  13.570  0.3625  0.0563  0.2108
 5621TIP3    H138354   0.788   1.776  13.624 -0.0580 -0.3944 -0.1502
 5621TIP3    H238355   0.839   1.779  13.482  0.9285  0.5436  0.2081
 5622TIP3   OH238356   5.421   0.027   5.939  0.1143 -0.5235  0.2663
 5622TIP3    H138357   5.477   0.099   5.909 -0.9136  0.3680  0.4094
 5622TIP3    H238358   5.349   0.071   5.986 -0.4409 -1.6575  0.5092
 5623TIP3   OH238359   2.407   6.300  13.098 -0.4456 -0.2053  0.4779
 5623TIP3    H138360   2.475   6.368  13.100 -2.1433  1.7687 -2.2155
 5623TIP3    H238361   2.362   6.310  13.182 -0.3843  1.7751  0.3290
 5624TIP3   OH238362   4.692   6.298   1.376 -0.6822  0.4773  0.0437
 5624TIP3    H138363   4.612   6.305   1.428 -0.5078 -0.4364  0.4434
 5624TIP3    H238364   4.684   6.215   1.330  0.8592 -0.5253  1.5171
 5625TIP3   OH238365   2.822   1.864   3.875 -0.2358 -1.0127  0.3662
 5625TIP3    H138366   2.843   1.774   3.899 -0.0755 -1.1847 -0.3916
 5625TIP3    H238367   2.835   1.867   3.780  1.5075  0.2658  0.5840
 5626TIP3   OH238368   5.331   5.723  16.733  0.6737  0.8147  0.7494
 5626TIP3    H138369   5.318   5.812  16.767 -1.8170  1.0093 -0.4556
 5626TIP3    H238370   5.270   5.717  16.660  0.3947 -2.0804  1.1166
 5627TIP3   OH238371   1.851   6.069  14.900 -0.4042 -0.0871 -0.1102
 5627TIP3    H138372   1.765   6.067  14.858 -1.7700  0.7770  2.4186
 5627TIP3    H238373   1.883   6.157  14.884 -0.8315  0.1771  0.4519
 5628TIP3   OH238374   5.854   4.119  15.343  0.5261  0.1920 -0.0350
 5628TIP3    H138375   5.842   4.079  15.429 -0.7352  1.6841  0.5311
 5628TIP3    H238376   5.855   4.045  15.282 -1.4672 -0.7367  0.9772
 5629TIP3   OH238377   1.228   0.748  11.459 -0.6429 -0.1202  0.3371
 5629TIP3    H138378   1.292   0.745  11.530  0.3066  0.8012 -0.4558
 5629TIP3    H238379   1.275   0.716  11.382 -0.1124  3.3826 -0.9559
 5630TIP3   OH238380   5.043   5.054  13.922 -0.0028  0.4521  0.3919
 5630TIP3    H138381   5.012   5.109  13.850  2.2851  1.9854  0.4567
 5630TIP3    H238382   4.976   5.063  13.989 -0.9766  1.0032 -0.6064
 5631TIP3   OH238383   2.884   3.856   5.077 -0.4949  0.3433  0.0283
 5631TIP3    H138384   2.941   3.829   5.005 -1.0048  1.9069 -1.0053
 5631TIP3    H238385   2.796   3.856   5.040 -0.8110  0.8321  0.7425
 5632TIP3   OH238386   4.792   0.368  11.708  0.2603  0.3175  0.1441
 5632TIP3    H138387   4.785   0.432  11.779  2.0077  1.3128 -0.5152
 5632TIP3    H238388   4.715   0.383  11.654 -1.6187 -1.1065  2.2736
 5633TIP3   OH238389   6.092   2.763   0.080  0.4059  0.1233  0.5523
 5633TIP3    H138390   6.151   2.687   0.086  0.5813  0.2414  0.3252
 5633TIP3    H238391   6.090   2.784  -0.013  1.0170  0.9189  0.7039
 5634TIP3   OH238392   0.807   3.926   3.616 -0.1463  0.0110  0.1882
 5634TIP3    H138393   0.712   3.918   3.618 -0.2541  1.2902  1.1453
 5634TIP3    H238394   0.827   3.952   3.526 -1.0730  3.3514  0.8219
 5635TIP3   OH238395   5.775   1.149   3.431 -0.3703  0.4636  0.0434
 5635TIP3    H138396   5.711   1.216   3.407  0.4986  1.4215  0.3337
 5635TIP3    H238397   5.781   1.092   3.354 -2.3661 -0.3259  0.3834
 5636TIP3   OH238398   3.894   1.856  16.679  0.4614 -0.1186  0.1505
 5636TIP3    H138399   3.824   1.798  16.648  0.6004 -0.0229 -0.3538
 5636TIP3    H238400   3.966   1.841  16.618  0.9984 -0.4388  0.8385
 5637TIP3   OH238401   2.636   2.565  15.675 -0.2637  0.0665  0.5957
 5637TIP3    H138402   2.714   2.597  15.720  0.0944  1.0112 -0.6289
 5637TIP3    H238403   2.626   2.475  15.704 -0.1635  0.6757  2.6755
 5638TIP3   OH238404   5.440   4.833  11.720 -0.2262  0.3302  0.0937
 5638TIP3    H138405   5.461   4.747  11.758 -1.2901  0.0497  0.0858
 5638TIP3    H238406   5.523   4.880  11.720  0.4945 -0.8789 -0.3493
 5639TIP3   OH238407   0.884   4.861   4.884  0.0250 -0.2980 -0.3385
 5639TIP3    H138408   0.829   4.897   4.953  0.9567 -0.1610  0.3613
 5639TIP3    H238409   0.856   4.770   4.875  0.9368 -0.7784  1.3474
 5640TIP3   OH238410   5.578   0.599  17.067 -0.2675  0.6149  0.5078
 5640TIP3    H138411   5.576   0.676  17.124  0.9818  0.1699  1.1672
 5640TIP3    H238412   5.497   0.552  17.088 -1.9748  2.5807 -1.1534
 5641TIP3   OH238413   1.841   4.205   2.824 -0.2471 -0.3152  0.4148
 5641TIP3    H138414   1.838   4.173   2.914  1.0219 -0.1870  0.5144
 5641TIP3    H238415   1.776   4.275   2.822 -1.1197 -1.0744  0.9080
 5642TIP3   OH238416   3.553   5.300  17.554 -0.2907  0.4491  0.0230
 5642TIP3    H138417   3.608   5.291  17.476  0.3529 -2.3424  0.6656
 5642TIP3    H238418   3.465   5.316  17.520  0.3385  1.5344 -1.1607
 5643TIP3   OH238419   0.845   3.976   3.295 -0.1630  0.1970  0.5621
 5643TIP3    H138420   0.759   4.011   3.316  0.0566 -0.6375  3.2021
 5643TIP3    H238421   0.907   4.033   3.340  0.5814 -0.1084 -0.0331
 5644TIP3   OH238422   6.607   2.333  12.509 -0.3415 -0.6852  0.1762
 5644TIP3    H138423   6.578   2.425  12.504  1.1546  0.1399  3.5188
 5644TIP3    H238424   6.702   2.339  12.512 -0.1427 -2.5531 -1.1935
 5645TIP3   OH238425   4.378   0.040   2.797 -0.3000  0.2424  0.2771
 5645TIP3    H138426   4.451   0.063   2.855 -1.0595  2.7842  0.3187
 5645TIP3    H238427   4.311   0.005   2.855  0.5197 -1.3423  0.3350
 5646TIP3   OH238428   1.681   5.446  15.251 -0.1750  0.0636  0.0311
 5646TIP3    H138429   1.657   5.389  15.324  0.2079 -0.6927 -0.4222
 5646TIP3    H238430   1.776   5.442  15.249 -0.1923 -0.1066 -0.6473
 5647TIP3   OH238431   1.167   0.549   3.792 -0.1995  0.8882  0.2156
 5647TIP3    H138432   1.251   0.570   3.833  0.5003 -1.7171  0.2695
 5647TIP3    H238433   1.128   0.635   3.774  1.8110  2.1709  1.4791
 5648TIP3   OH238434   2.076   1.551   5.354 -0.7503 -0.1044 -0.2531
 5648TIP3    H138435   2.144   1.595   5.304 -0.6460 -0.8933 -0.8298
 5648TIP3    H238436   2.003   1.541   5.293 -2.2580  2.5665  0.9043
 5649TIP3   OH238437   2.806   0.624  11.567 -0.3517 -0.5682  0.1353
 5649TIP3    H138438   2.737   0.656  11.625  0.5006  0.6353  0.5353
 5649TIP3    H238439   2.803   0.683  11.492  0.3872 -0.3309  0.2749
 5650TIP3   OH238440   5.869   1.412   3.533 -0.1760  0.1449 -0.0362
 5650TIP3    H138441   5.815   1.425   3.455  0.7670 -1.6022 -1.0381
 5650TIP3    H238442   5.918   1.332   3.515  2.3664  1.3600  1.0202
 5651TIP3   OH238443   4.768   4.075   5.399  0.0743 -0.2410  0.0184
 5651TIP3    H138444   4.687   4.043   5.359  0.4842  0.0861 -1.1175
 5651TIP3    H238445   4.748   4.079   5.493 -1.3455  0.1807 -0.2671
 5652TIP3   OH238446   6.288   4.703   1.249 -0.4922  0.0834  0.2837
 5652TIP3    H138447   6.378   4.698   1.282 -0.4782 -0.0049  0.2329
 5652TIP3    H238448   6.296   4.752   1.167 -0.1672 -1.7703 -0.8456
 5653TIP3   OH238449   4.795   1.412   5.219 -0.1892 -0.2970 -0.3363
 5653TIP3    H138450   4.834   1.477   5.161  1.1004 -1.7041 -1.1070
 5653TIP3    H238451   4.837   1.330   5.196  1.2498 -0.7893  3.3257
 5654TIP3   OH238452   0.502   3.386  13.777  0.0619 -0.0270 -0.3437
 5654TIP3    H138453   0.556   3.465  13.779 -1.2317  0.8478  0.4875
 5654TIP3    H238454   0.566   3.314  13.782  1.2531  0.9303 -1.1011
 5655TIP3   OH238455   1.708   1.199   6.392  0.3770  0.0973 -0.0089
 5655TIP3    H138456   1.783   1.150   6.359  0.1627  0.0767 -0.4772
 5655TIP3    H238457   1.633   1.140   6.379  0.4610 -0.4753  1.7940
 5656TIP3   OH238458   3.126   2.919   5.590  0.0007 -0.1599 -0.2376
 5656TIP3    H138459   3.066   2.957   5.527 -0.9963 -1.8562 -0.3686
 5656TIP3    H238460   3.097   2.954   5.675  0.2047  0.6933 -0.5070
 5657TIP3   OH238461   5.904   1.411   0.701  0.0711  0.1870 -0.3163
 5657TIP3    H138462   5.906   1.505   0.681 -2.9405 -0.1376 -2.9877
 5657TIP3    H238463   5.813   1.395   0.728  0.5340 -1.9639  0.0906
 5658TIP3   OH238464   4.106   3.576   5.645 -0.4069 -0.2521  0.0035
 5658TIP3    H138465   4.131   3.619   5.564 -1.6780 -1.6785 -1.2271
 5658TIP3    H238466   4.046   3.637   5.688 -3.3712 -1.1832 -2.4243
 5659TIP3   OH238467   4.084   6.658  14.215 -0.3375 -0.1115 -0.4925
 5659TIP3    H138468   4.017   6.596  14.185 -1.4074  1.0133 -0.4878
 5659TIP3    H238469   4.140   6.607  14.274  0.8083 -1.9454 -2.9992
 5660TIP3   OH238470   2.348   6.389   1.500 -0.1900 -0.0607 -0.0262
 5660TIP3    H138471   2.305   6.457   1.448  0.3192  0.4775  0.2533
 5660TIP3    H238472   2.288   6.373   1.573 -0.4061 -0.0604 -0.2039
 5661TIP3   OH238473   5.951   5.525  15.809 -0.2573 -0.1801  0.3131
 5661TIP3    H138474   6.036   5.494  15.840  0.3781 -0.2177 -1.3404
 5661TIP3    H238475   5.894   5.448  15.815  0.1888 -0.5249  0.2144
 5662TIP3   OH238476   2.072   1.816  13.266 -0.9708  0.4302 -0.1527
 5662TIP3    H138477   2.107   1.736  13.306 -0.7882  0.8787  0.6121
 5662TIP3    H238478   1.982   1.794  13.244 -0.8476 -0.0652 -0.1745
 5663TIP3   OH238479   0.533   5.148   4.579  0.2344  0.0109  0.1299
 5663TIP3    H138480   0.605   5.090   4.603 -0.1509 -0.4717  0.1342
 5663TIP3    H238481   0.455   5.093   4.586 -0.0713  0.3598 -0.4681
 5664TIP3   OH238482   6.318   2.016  12.582  0.1799  0.6962 -0.2983
 5664TIP3    H138483   6.302   1.925  12.555  0.5611  0.9345 -1.3663
 5664TIP3    H238484   6.286   2.020  12.672  0.0020 -0.4552 -0.2950
 5665TIP3   OH238485   1.700   4.879   5.128  0.4452  0.0103 -0.2296
 5665TIP3    H138486   1.768   4.844   5.186  0.9329  0.9680 -0.2010
 5665TIP3    H238487   1.663   4.953   5.177 -0.2849 -0.1899 -0.4588
 5666TIP3   OH238488   3.114   1.535   6.529 -0.2607 -0.2166 -0.2621
 5666TIP3    H138489   3.070   1.535   6.614 -0.5022 -1.2852 -0.3696
 5666TIP3    H238490   3.095   1.448   6.493 -1.1624  0.6243 -1.9331
 5667TIP3   OH238491   6.529   2.485  17.000  0.5442  0.3120 -0.1711
 5667TIP3    H138492   6.591   2.439  16.943  0.6133  1.0281 -0.6838
 5667TIP3    H238493   6.475   2.537  16.940 -1.2728 -1.1006  0.1549
 5668TIP3   OH238494   0.699   2.232  16.758 -0.7469  0.4075 -0.8399
 5668TIP3    H138495   0.736   2.320  16.764  0.0175  0.0340  0.4915
 5668TIP3    H238496   0.773   2.176  16.734 -0.6755 -0.1687  0.6092
 5669TIP3   OH238497   1.798   6.222   2.261 -0.2785 -0.3654  0.3040
 5669TIP3    H138498   1.714   6.259   2.235 -0.9463 -1.2255  1.1379
 5669TIP3    H238499   1.786   6.200   2.354 -0.0439 -2.8922 -0.1951
 5670TIP3   OH238500   0.433   1.397  12.950  0.7049 -0.2394  0.0418
 5670TIP3    H138501   0.426   1.411  12.856 -2.4146 -0.2665  0.1646
 5670TIP3    H238502   0.384   1.469  12.990 -0.4675 -1.7386  1.4731
 5671TIP3   OH238503   1.743   0.466   1.189 -0.0984  0.1373 -0.3863
 5671TIP3    H138504   1.714   0.552   1.221 -1.4519 -0.1668 -0.7463
 5671TIP3    H238505   1.678   0.405   1.222  0.9871 -0.8028  0.0630
 5672TIP3   OH238506   0.870   2.926   1.655 -0.3476  0.2275  0.2583
 5672TIP3    H138507   0.805   2.947   1.723 -1.6990  0.1295 -0.9582
 5672TIP3    H238508   0.836   2.968   1.576 -0.4537 -2.2318 -1.0902
 5673TIP3   OH238509   0.694   4.405   5.080 -0.2756  0.3680 -0.1303
 5673TIP3    H138510   0.668   4.404   5.172  0.7048  1.2998  0.1843
 5673TIP3    H238511   0.769   4.346   5.075 -2.1898 -2.1451 -0.9892
 5674TIP3   OH238512   5.069   5.787   3.880  0.1465 -0.2392 -0.6386
 5674TIP3    H138513   5.076   5.698   3.913  1.7626  0.0470 -0.1262
 5674TIP3    H238514   5.001   5.782   3.813 -0.6143 -1.5966  0.1924
 5675TIP3   OH238515   2.948   4.453  13.997  0.3835  0.2476 -0.5685
 5675TIP3    H138516   2.894   4.493  13.928 -2.9616 -2.9586 -0.0954
 5675TIP3    H238517   2.925   4.501  14.076 -0.8769 -0.2527 -0.6078
 5676TIP3   OH238518   1.369   5.349  17.628  0.1841 -1.1325  0.4964
 5676TIP3    H138519   1.350   5.262  17.593  2.2057 -1.1183 -0.7835
 5676TIP3    H238520   1.367   5.407  17.552 -1.8655  0.1309  1.4334
 5677TIP3   OH238521   5.862   1.475  17.518 -0.2846 -0.3109  0.1358
 5677TIP3    H138522   5.945   1.462  17.563 -0.8336  0.5232  1.4466
 5677TIP3    H238523   5.823   1.551  17.561 -0.7797  0.6441 -1.8736
 5678TIP3   OH238524   3.741   2.749  11.720 -0.0828  0.1438  0.4987
 5678TIP3    H138525   3.824   2.767  11.676 -0.5179  2.9810  0.6741
 5678TIP3    H238526   3.681   2.816  11.687 -2.2835 -1.6726  0.5607
 5679TIP3   OH238527   5.996   0.365  15.016 -0.4320  0.0793 -0.2324
 5679TIP3    H138528   5.905   0.382  15.043 -0.7878 -0.3801 -1.1161
 5679TIP3    H238529   6.021   0.287  15.065 -0.9442 -0.5225 -0.9095
 5680TIP3   OH238530   0.430   5.091  13.780 -1.0886  0.4730  0.3080
 5680TIP3    H138531   0.502   5.048  13.735  0.3299  0.8628  2.0922
 5680TIP3    H238532   0.440   5.065  13.872 -2.7863  1.1315  0.7120
 5681TIP3   OH238533   0.607   5.011  15.429 -0.2003 -0.1788 -0.4836
 5681TIP3    H138534   0.656   4.930  15.409  0.4352 -0.1067  0.6951
 5681TIP3    H238535   0.657   5.080  15.385  0.8109 -0.1061  0.7099
 5682TIP3   OH238536   1.999   3.131   1.931 -0.4548 -0.2072  0.1079
 5682TIP3    H138537   1.927   3.093   1.881 -0.2914 -0.0137 -0.2743
 5682TIP3    H238538   2.078   3.103   1.886 -0.3492  1.5457 -0.8867
 5683TIP3   OH238539   0.918   6.027  13.744  0.4799  0.5194  0.0378
 5683TIP3    H138540   0.897   5.973  13.820  0.9170 -1.6819 -1.3081
 5683TIP3    H238541   1.012   6.013  13.731 -0.1438 -2.0256 -2.8733
 5684TIP3   OH238542   5.983   2.935   3.884  0.1743 -0.1064 -0.9049
 5684TIP3    H138543   6.016   2.915   3.797  1.0277 -0.3264 -0.5415
 5684TIP3    H238544   5.988   2.851   3.931  1.0912  0.3107 -0.2219
 5685TIP3   OH238545   3.576   3.588  14.390 -0.4460 -0.1840  0.2799
 5685TIP3    H138546   3.612   3.547  14.311  0.4702  4.1704 -1.8963
 5685TIP3    H238547   3.614   3.538  14.462  0.4011 -3.0908 -1.9424
 5686TIP3   OH238548   5.398   1.510  13.451 -0.3086 -0.2117 -0.6187
 5686TIP3    H138549   5.390   1.605  13.458  0.8125 -0.2338  2.0249
 5686TIP3    H238550   5.308   1.479  13.443 -0.7187  1.0297 -1.0830
 5687TIP3   OH238551   0.630   2.389   5.484 -0.3481  0.3539 -0.4892
 5687TIP3    H138552   0.646   2.431   5.569 -0.7093 -1.5442  0.5736
 5687TIP3    H238553   0.714   2.349   5.461 -0.7596 -0.7889 -0.0446
 5688TIP3   OH238554   2.694   2.672  13.333 -0.3352  0.2378  0.4985
 5688TIP3    H138555   2.659   2.684  13.245 -1.0688 -0.7848  0.6356
 5688TIP3    H238556   2.671   2.753  13.380 -0.8089  0.3705  0.0372
 5689TIP3   OH238557   2.377   1.022   4.223 -0.8927 -0.4171  0.1371
 5689TIP3    H138558   2.412   1.069   4.299 -0.1282  0.4711 -0.7355
 5689TIP3    H238559   2.283   1.042   4.225 -1.2945 -2.1417  2.0133
 5690TIP3   OH238560   5.711   1.755  12.091  0.0283  0.2107 -0.5276
 5690TIP3    H138561   5.686   1.668  12.060  0.2153 -0.0834  0.1265
 5690TIP3    H238562   5.632   1.789  12.132  0.3303 -0.2249  0.4534
 5691TIP3   OH238563   0.897   2.542   4.494  0.5849  0.2318  0.2191
 5691TIP3    H138564   0.867   2.525   4.583  1.9879 -1.4999  0.4366
 5691TIP3    H238565   0.969   2.604   4.504 -0.0202  0.9456  0.1629
 5692TIP3   OH238566   0.817   1.211  14.647 -0.6198  0.4426 -0.6322
 5692TIP3    H138567   0.911   1.222  14.634 -0.4400 -2.3188 -2.4984
 5692TIP3    H238568   0.782   1.300  14.649  2.1176  1.6123  1.5221
 5693TIP3   OH238569   2.514   4.649   5.505 -0.4875  0.1135 -0.0606
 5693TIP3    H138570   2.446   4.629   5.442  0.2069  0.0181 -0.7988
 5693TIP3    H238571   2.595   4.621   5.462  0.1418  1.3336  0.2837
 5694TIP3   OH238572   3.012   3.710   4.814 -1.0678 -0.4934  0.8081
 5694TIP3    H138573   3.024   3.759   4.732  0.8481  1.2398  2.0195
 5694TIP3    H238574   3.004   3.619   4.786 -0.0600 -0.0122 -1.2944
 5695TIP3   OH238575   5.228   0.129  14.994 -0.6585  0.2292 -0.3511
 5695TIP3    H138576   5.179   0.208  14.974 -1.3150 -0.0145  0.2439
 5695TIP3    H238577   5.257   0.096  14.909  0.0868  1.3882 -0.5709
 5696TIP3   OH238578   4.574   1.806  13.454 -0.4015  0.7389 -0.3839
 5696TIP3    H138579   4.561   1.901  13.454 -1.3432  0.6491  1.1787
 5696TIP3    H238580   4.642   1.791  13.521  0.5587  0.3774 -1.4082
 5697TIP3   OH238581   5.917   1.671  11.565 -0.5042 -0.1327 -0.4934
 5697TIP3    H138582   5.889   1.691  11.476 -1.3367 -0.7972 -0.4047
 5697TIP3    H238583   5.866   1.593  11.588 -2.2986  1.4736  1.4726
 5698TIP3   OH238584   0.579   4.226   2.406 -0.4156 -0.0634 -0.2903
 5698TIP3    H138585   0.645   4.180   2.458 -0.6206 -1.0839 -0.8995
 5698TIP3    H238586   0.630   4.288   2.353 -0.0628 -0.0177  0.0969
 5699TIP3   OH238587   5.592   6.646   3.281 -0.8917 -0.4129  0.2113
 5699TIP3    H138588   5.573   6.570   3.227 -0.3427 -0.1180 -0.4063
 5699TIP3    H238589   5.509   6.694   3.285 -0.8063 -0.1643 -0.8088
 5700TIP3   OH238590   6.579   0.134   1.380  0.1943 -0.1967 -0.3139
 5700TIP3    H138591   6.615   0.046   1.372 -1.7489 -0.8973 -2.4437
 5700TIP3    H238592   6.494   0.121   1.423 -0.0266  0.6692 -0.4741
 5701TIP3   OH238593   2.232   0.123  12.640 -0.3548  0.2891  0.1333
 5701TIP3    H138594   2.189   0.038  12.631 -1.3633  0.6937  0.9341
 5701TIP3    H238595   2.169   0.186  12.606 -1.3238  1.0969  3.0968
 5702TIP3   OH238596   3.626   1.128  15.174 -0.2015 -0.6835 -0.2896
 5702TIP3    H138597   3.684   1.201  15.150 -1.5565  0.6834  0.4504
 5702TIP3    H238598   3.602   1.147  15.265 -0.1763 -2.3574  0.0860
 5703TIP3   OH238599   5.523   6.032   2.470 -0.1386  0.2084  0.4646
 5703TIP3    H138600   5.616   6.012   2.469  0.4985  2.7291  1.1464
 5703TIP3    H238601   5.503   6.060   2.380  0.1140  0.9943  0.6479
 5704TIP3   OH238602   6.540   2.553  11.980 -0.0704  0.2126 -0.1969
 5704TIP3    H138603   6.485   2.585  11.909  0.0758  1.5886  0.2667
 5704TIP3    H238604   6.582   2.475  11.945  0.5032  1.2260 -1.8691
 5705TIP3   OH238605   1.371   0.761  16.023 -0.4342  0.6266  0.8178
 5705TIP3    H138606   1.303   0.826  16.002  1.1679  1.9026 -0.6466
 5705TIP3    H238607   1.449   0.813  16.042  0.0333 -0.7808  3.1554
 5706TIP3   OH238608   1.897   4.636   0.864  0.0021  0.1244 -0.6526
 5706TIP3    H138609   1.896   4.560   0.806  0.9407 -0.7969  0.4672
 5706TIP3    H238610   1.988   4.665   0.864 -0.0734  0.3867  0.0049
 5707TIP3   OH238611   0.888   1.322  14.223 -0.3596  0.2322  0.1388
 5707TIP3    H138612   0.944   1.304  14.148  0.0027  1.5279  0.0640
 5707TIP3    H238613   0.925   1.269  14.294 -0.4398 -0.6611 -0.4834
 5708TIP3   OH238614   3.459   3.414   3.511 -0.3648  0.4365 -0.2162
 5708TIP3    H138615   3.412   3.345   3.558 -1.0655  0.1305 -1.3249
 5708TIP3    H238616   3.501   3.466   3.579  1.0255 -1.6703  0.6214
 5709TIP3   OH238617   6.065   3.865  11.213 -0.0797  0.7108  0.0601
 5709TIP3    H138618   6.049   3.905  11.299  1.7247  1.0976  0.2569
 5709TIP3    H238619   6.090   3.938  11.157  1.7106  0.1089  0.0117
 5710TIP3   OH238620   2.200   0.947   0.468  0.3304  0.4548  0.0666
 5710TIP3    H138621   2.231   0.947   0.377 -0.9645 -1.9664 -0.4659
 5710TIP3    H238622   2.105   0.943   0.460  0.1924  0.5136  1.5423
 5711TIP3   OH238623   2.009   2.892  16.638 -0.1267  0.0047 -0.4130
 5711TIP3    H138624   2.045   2.932  16.558  1.9009  0.8250  0.8295
 5711TIP3    H238625   2.078   2.834  16.668 -0.2901  0.7232  1.4476
 5712TIP3   OH238626   6.709   1.616   5.954  0.2451 -0.1709  0.4450
 5712TIP3    H138627   6.683   1.538   5.905 -2.0908  1.0602 -0.4244
 5712TIP3    H238628   6.779   1.655   5.902 -0.2571 -0.3922 -0.4185
 5713TIP3   OH238629   0.332   0.698  16.648 -0.3564  0.6599  0.2059
 5713TIP3    H138630   0.273   0.773  16.645 -1.6705 -0.3508 -0.7561
 5713TIP3    H238631   0.345   0.680  16.741 -3.1736 -0.2481  0.5026
 5714TIP3   OH238632   1.733   3.016  14.490  0.3986  0.1618 -0.1339
 5714TIP3    H138633   1.743   3.024  14.395  3.4895  0.4560  0.0978
 5714TIP3    H238634   1.707   2.925  14.504  3.1960 -0.9272 -1.2244
 5715TIP3   OH238635   5.544   1.263   2.953  0.0299  0.3164 -0.0837
 5715TIP3    H138636   5.607   1.206   2.908 -0.9299  0.6070 -1.8661
 5715TIP3    H238637   5.505   1.207   3.020  0.6545 -0.4878 -0.3785
 5716TIP3   OH238638   5.601   2.559   1.515  0.3344  0.0402  0.0756
 5716TIP3    H138639   5.588   2.623   1.585 -0.0230  1.1637 -0.9813
 5716TIP3    H238640   5.619   2.477   1.560  2.1122  1.1281  1.4840
 5717TIP3   OH238641   4.434   1.325   1.293  0.4007 -0.2312  0.7932
 5717TIP3    H138642   4.400   1.248   1.249  4.5982 -1.0231 -1.6778
 5717TIP3    H238643   4.457   1.294   1.381 -0.4514 -1.0164  0.7492
 5718TIP3   OH238644   1.396   0.127   0.063 -0.2025 -0.2940 -0.1632
 5718TIP3    H138645   1.438   0.203   0.023 -1.7125 -0.0808 -1.4630
 5718TIP3    H238646   1.338   0.093  -0.005 -2.6786 -0.1101  1.6899
 5719TIP3   OH238647   6.576   6.201   4.479 -0.4734  0.0081  0.3230
 5719TIP3    H138648   6.578   6.120   4.428  1.2786 -0.4437  1.0180
 5719TIP3    H238649   6.612   6.176   4.564 -0.1891  1.4541  0.6491
 5720TIP3   OH238650   1.581   1.782  13.775 -0.1918  0.3265  0.6665
 5720TIP3    H138651   1.556   1.723  13.705  1.7760  0.2659 -0.0493
 5720TIP3    H238652   1.517   1.853  13.772 -1.3041 -0.6861  0.1468
 5721TIP3   OH238653   6.335   0.847   2.786  0.2253 -0.6175 -0.3491
 5721TIP3    H138654   6.315   0.848   2.692 -0.2189 -2.5016 -0.3088
 5721TIP3    H238655   6.403   0.780   2.796 -0.4602 -1.1873  0.7778
 5722TIP3   OH238656   4.074   5.179  13.300 -0.4008  0.2156  0.3426
 5722TIP3    H138657   4.058   5.188  13.206 -1.5237  1.5253  0.6255
 5722TIP3    H238658   4.089   5.085  13.313  0.2286  0.0718 -1.1912
 5723TIP3   OH238659   0.732   3.159  13.389 -0.1763  0.0762  0.2921
 5723TIP3    H138660   0.804   3.203  13.344  1.4185 -3.3094 -0.7963
 5723TIP3    H238661   0.659   3.164  13.328 -0.4052  2.0785  0.6825
 5724TIP3   OH238662   4.666   4.627  14.880 -0.1564  0.5579 -0.3777
 5724TIP3    H138663   4.585   4.579  14.864  0.7680 -1.8401  1.5963
 5724TIP3    H238664   4.719   4.611  14.801 -0.2465 -0.9364 -0.1685
 5725TIP3   OH238665   4.160   3.968  13.902 -0.0040 -0.1088  0.0255
 5725TIP3    H138666   4.169   3.878  13.935  1.6679 -0.6849 -1.7840
 5725TIP3    H238667   4.117   3.957  13.817 -2.4932  1.1424  1.0305
 5726TIP3   OH238668   0.063   6.003   5.604 -0.5307 -0.1498 -0.3682
 5726TIP3    H138669  -0.002   6.027   5.539  0.7596  2.2033 -0.8832
 5726TIP3    H238670   0.062   6.074   5.668  1.7937  0.2219 -0.6406
 5727TIP3   OH238671   2.262   5.499  14.584  0.3774 -0.1893  0.1808
 5727TIP3    H138672   2.255   5.582  14.631 -0.7960 -1.1498  1.8068
 5727TIP3    H238673   2.223   5.435  14.643  0.3064 -1.7368 -1.4646
 5728TIP3   OH238674   0.449   1.790   4.292 -0.4623  0.0136 -0.3619
 5728TIP3    H138675   0.428   1.697   4.307 -0.9904  0.1710 -0.0979
 5728TIP3    H238676   0.529   1.788   4.240  0.9500 -0.5943  1.7170
 5729TIP3   OH238677   4.256   1.109   3.177  0.0278  0.8006 -0.3106
 5729TIP3    H138678   4.238   1.082   3.267  0.0499  0.5250 -0.3886
 5729TIP3    H238679   4.274   1.203   3.183  0.8620  0.6251  0.0897
 5730TIP3   OH238680   2.282   2.144   0.223 -0.1050  0.1383 -0.4732
 5730TIP3    H138681   2.304   2.051   0.234  0.2122  0.2815  0.1206
 5730TIP3    H238682   2.347   2.190   0.276 -0.8386  0.6552 -0.0233
 5731TIP3   OH238683   4.015   5.329  11.823 -0.1736 -0.0554 -0.1801
 5731TIP3    H138684   4.003   5.419  11.854  1.1055  0.5477 -1.3340
 5731TIP3    H238685   4.101   5.330  11.780 -0.6669 -1.5352 -1.2516
 5732TIP3   OH238686   5.393   0.043   0.163  0.2880 -0.2347 -0.0356
 5732TIP3    H138687   5.401  -0.023   0.093  0.9904 -0.3890  0.1894
 5732TIP3    H238688   5.437   0.120   0.128  0.0205 -0.0792 -0.0387
 5733TIP3   OH238689   6.610   4.825  15.677  0.6180 -0.0398  0.3131
 5733TIP3    H138690   6.538   4.763  15.684  0.8352 -0.0997  2.9253
 5733TIP3    H238691   6.688   4.770  15.669  0.5778 -0.0307 -0.1507
 5734TIP3   OH238692   2.191   5.537   0.827  0.2325 -0.5582  0.4705
 5734TIP3    H138693   2.280   5.508   0.848  0.2590  0.1636  1.4408
 5734TIP3    H238694   2.203   5.613   0.771  0.4060  1.8429  3.5026
 5735TIP3   OH238695   0.405   1.038  15.902 -0.1194 -0.9478 -0.6238
 5735TIP3    H138696   0.488   0.997  15.925 -0.0986 -0.8024 -0.4336
 5735TIP3    H238697   0.425   1.094  15.827  0.6802  1.5641  1.3266
 5736TIP3   OH238698   0.105   0.015  15.748 -0.0534  0.4251 -0.5339
 5736TIP3    H138699   0.168  -0.057  15.750  0.0520  0.4532 -2.0296
 5736TIP3    H238700   0.157   0.092  15.771  0.4924  0.4482 -1.7604
 5737TIP3   OH238701   2.943   3.817  11.890 -0.0762 -0.0415  0.2327
 5737TIP3    H138702   3.016   3.878  11.894 -0.4278  0.3224  2.5471
 5737TIP3    H238703   2.868   3.867  11.924 -0.7777 -1.1912  0.4336
 5738TIP3   OH238704   4.181   2.724   2.322  0.1463 -0.2781 -0.5188
 5738TIP3    H138705   4.267   2.709   2.359  0.5234  0.5046 -1.0425
 5738TIP3    H238706   4.183   2.815   2.292 -1.7624  0.6789  1.9022
 5739TIP3   OH238707   2.841   0.022  11.905 -0.7983 -0.6133  0.3073
 5739TIP3    H138708   2.747   0.006  11.903 -0.8173 -0.4491 -1.3300
 5739TIP3    H238709   2.880  -0.065  11.918 -1.0965 -1.2663 -2.5757
 5740TIP3   OH238710   4.643   0.890   0.430 -0.7703 -0.8489 -0.2252
 5740TIP3    H138711   4.644   0.981   0.460 -0.7978 -0.7036 -0.6566
 5740TIP3    H238712   4.559   0.856   0.462 -1.2318 -0.4152 -0.9525
 5741TIP3   OH238713   1.613   0.202   1.199  0.0025 -0.4717 -0.1731
 5741TIP3    H138714   1.594   0.177   1.290  0.0405  1.2334  0.3339
 5741TIP3    H238715   1.529   0.195   1.154 -0.6639  1.3495  0.6844
 5742TIP3   OH238716   0.806   3.002   3.247 -0.2931 -0.0128  0.4753
 5742TIP3    H138717   0.738   3.050   3.294  1.1932  0.6212  2.1081
 5742TIP3    H238718   0.784   2.910   3.259 -0.0077  0.1387  2.4260
 5743TIP3   OH238719   3.108   1.360   5.296  0.2663  0.2127 -0.1896
 5743TIP3    H138720   3.184   1.326   5.344 -2.1452 -1.7211  2.5912
 5743TIP3    H238721   3.059   1.282   5.270 -2.4851  1.3182  1.2366
 5744TIP3   OH238722   1.006   5.115  16.142  0.7193  0.0361  0.0422
 5744TIP3    H138723   0.979   5.113  16.050  0.1491 -1.1519  0.2101
 5744TIP3    H238724   0.924   5.106  16.191  1.0271  0.5774  0.6648
 5745TIP3   OH238725   3.093   1.939  14.361 -0.7292 -0.2416  0.5456
 5745TIP3    H138726   3.102   1.850  14.328 -1.2679 -0.1158  0.0420
 5745TIP3    H238727   3.110   1.932  14.455  1.8136 -0.4567  0.1427
 5746TIP3   OH238728   3.722   0.918  10.965  0.3335 -0.3700  0.3560
 5746TIP3    H138729   3.646   0.907  11.022 -0.0019  1.4685  0.3322
 5746TIP3    H238730   3.686   0.945  10.881  0.9831  0.5605  0.3555
 5747TIP3   OH238731   3.233   4.320  12.971 -0.0722  0.3947  0.0225
 5747TIP3    H138732   3.214   4.304  12.879  0.4998  0.5735 -0.1315
 5747TIP3    H238733   3.155   4.291  13.017 -0.4268  0.4602 -0.5317
 5748TIP3   OH238734   3.502   3.200   4.655  0.3579  0.0007 -0.4080
 5748TIP3    H138735   3.512   3.216   4.561  0.5394  0.0755 -0.3755
 5748TIP3    H238736   3.409   3.181   4.666  0.0161  1.5526 -0.3681
 5749TIP3   OH238737   4.307   5.620  14.583 -0.4163  0.2707  0.1351
 5749TIP3    H138738   4.295   5.670  14.502 -1.4187 -0.6541 -0.3061
 5749TIP3    H238739   4.220   5.589  14.605  0.2293 -1.6720  0.1353
 5750TIP3   OH238740   6.256   6.710   3.839  0.2688 -0.0246 -0.5192
 5750TIP3    H138741   6.328   6.665   3.795 -0.3950 -1.6951  0.0160
 5750TIP3    H238742   6.186   6.712   3.773 -0.4595 -1.8334  0.1337
 5751TIP3   OH238743   4.286   6.356   4.872 -0.9093 -0.9931 -0.5948
 5751TIP3    H138744   4.347   6.302   4.821 -0.9434 -0.6024 -1.0614
 5751TIP3    H238745   4.298   6.327   4.962 -0.2132 -1.1006 -0.7122
 5752TIP3   OH238746   4.968   4.417  12.240  0.1577 -0.1616  0.2625
 5752TIP3    H138747   4.979   4.458  12.326  0.3661  0.0141  0.1522
 5752TIP3    H238748   4.970   4.490  12.178  1.3407 -0.4077 -0.0093
 5753TIP3   OH238749   2.800   2.281   4.909 -0.0960  0.2354  0.3672
 5753TIP3    H138750   2.813   2.369   4.943  0.3246  0.3983 -0.2129
 5753TIP3    H238751   2.859   2.227   4.962  1.1501  0.6072 -0.5928
 5754TIP3   OH238752   5.903   3.835   4.675 -0.2194  0.3421 -0.3674
 5754TIP3    H138753   5.847   3.760   4.654 -2.0662  2.0696 -1.9987
 5754TIP3    H238754   5.846   3.894   4.725  1.3192  0.5474  1.2432
 5755TIP3   OH238755   5.246   4.314   3.620  0.1589  0.0925  0.4289
 5755TIP3    H138756   5.338   4.307   3.646 -0.2050 -0.6314  1.5972
 5755TIP3    H238757   5.197   4.305   3.701 -1.0173 -2.0419 -0.4235
 5756TIP3   OH238758   0.812   6.530   5.271  0.5622  0.1076 -0.0826
 5756TIP3    H138759   0.820   6.586   5.194 -1.9091  0.9957  0.2158
 5756TIP3    H238760   0.806   6.591   5.344  0.0568 -0.6186  0.4929
 5757TIP3   OH238761   0.107   4.096   2.890 -0.3337  0.0885  0.5204
 5757TIP3    H138762   0.042   4.073   2.824  2.2553 -0.2695 -2.0737
 5757TIP3    H238763   0.129   4.012   2.932 -1.8035  0.2827  1.7677
 5758TIP3   OH238764   4.868   6.272   5.530  0.5305  0.2229  0.1531
 5758TIP3    H138765   4.957   6.267   5.563  0.6878  1.2802 -0.0767
 5758TIP3    H238766   4.841   6.181   5.519  0.3193 -0.2471  3.5326
 5759TIP3   OH238767   1.660   3.497  13.046 -0.1663 -0.5166 -0.0690
 5759TIP3    H138768   1.690   3.541  12.966  1.7199 -0.7969  0.4588
 5759TIP3    H238769   1.700   3.546  13.117  0.0582 -1.6728  0.6228
 5760TIP3   OH238770   6.520   1.573   0.185 -0.5805 -0.2288 -0.6220
 5760TIP3    H138771   6.464   1.542   0.256 -0.5017  0.6815 -0.1529
 5760TIP3    H238772   6.463   1.626   0.130 -0.3497  0.1046 -0.5411
 5761TIP3   OH238773   4.141   1.259  16.494 -0.2975 -0.0439 -0.0420
 5761TIP3    H138774   4.113   1.237  16.405  1.0134 -0.3490 -0.4006
 5761TIP3    H238775   4.233   1.232  16.498 -0.5071 -0.6361  1.6171
 5762TIP3   OH238776   1.477   0.739  12.620  0.4269  0.2475 -0.1851
 5762TIP3    H138777   1.470   0.645  12.600  1.4294  0.2595 -0.6719
 5762TIP3    H238778   1.428   0.750  12.701  0.1162 -0.6603 -0.2345
 5763TIP3   OH238779   3.766   0.124   3.437 -0.2705  0.1334 -0.0908
 5763TIP3    H138780   3.682   0.163   3.412  0.4739  1.4255 -0.6835
 5763TIP3    H238781   3.797   0.081   3.357 -1.8789 -3.3835  0.9610
 5764TIP3   OH238782   4.304   2.257  17.030  0.0305  0.4528 -0.2527
 5764TIP3    H138783   4.260   2.309  16.962  0.1126  2.0404  0.8424
 5764TIP3    H238784   4.324   2.321  17.099 -0.3712 -1.1596  1.4304
 5765TIP3   OH238785   4.480   6.599  16.331 -0.1175 -0.2461  0.3570
 5765TIP3    H138786   4.415   6.530  16.320  0.0083 -0.4424  0.8292
 5765TIP3    H238787   4.562   6.552  16.349 -0.2934  0.0426  2.0813
 5766TIP3   OH238788   5.323   0.997  14.903 -0.4107 -0.1611 -0.8699
 5766TIP3    H138789   5.375   1.012  14.981 -0.1830  3.0740 -1.5005
 5766TIP3    H238790   5.323   0.902  14.891 -0.7747 -0.8332  3.2046
 5767TIP3   OH238791   2.676   2.081  11.384 -0.2308  0.2158  0.2996
 5767TIP3    H138792   2.740   2.087  11.313  0.1517 -0.4226  0.5830
 5767TIP3    H238793   2.613   2.015  11.355 -1.8244  2.0733 -0.7786
 5768TIP3   OH238794   2.771   2.770   5.346  0.2336  0.3462  0.0576
 5768TIP3    H138795   2.675   2.775   5.350  0.0419  0.4927 -2.6011
 5768TIP3    H238796   2.800   2.860   5.359 -0.1245  0.5938 -0.7977
 5769TIP3   OH238797   4.986   2.227   0.934  0.2148  0.0983 -0.3087
 5769TIP3    H138798   4.992   2.143   0.981  3.7627  1.4951  2.2826
 5769TIP3    H238799   5.067   2.230   0.882 -0.9410  1.0417 -2.1290
 5770TIP3   OH238800   4.102   2.854   0.683  0.1460 -0.0930  0.1853
 5770TIP3    H138801   4.041   2.844   0.609 -0.5267  0.1292  0.7001
 5770TIP3    H238802   4.186   2.826   0.648 -0.1605  0.0184 -0.6754
 5771TIP3   OH238803   2.298   3.510   5.972 -0.6174  0.1176  0.1918
 5771TIP3    H138804   2.338   3.459   6.042 -1.6727 -0.7359  0.2034
 5771TIP3    H238805   2.231   3.563   6.016 -0.3343  0.6435  0.0096
 5772TIP3   OH238806   3.776   6.281   3.338  0.7845  0.5454  0.0492
 5772TIP3    H138807   3.760   6.238   3.422  2.1256 -0.6736 -0.2959
 5772TIP3    H238808   3.711   6.242   3.279 -1.4090  2.6971  0.8371
 5773TIP3   OH238809   1.459   1.794   4.213 -0.0409 -0.2963 -0.3563
 5773TIP3    H138810   1.476   1.780   4.306  0.6818 -0.2563 -0.4830
 5773TIP3    H238811   1.402   1.721   4.188 -0.1928 -0.3399  0.0958
 5774TIP3   OH238812   1.549   5.274  13.452 -0.3861 -0.6882 -0.3343
 5774TIP3    H138813   1.453   5.276  13.455 -0.4197 -0.1747 -1.4046
 5774TIP3    H238814   1.572   5.343  13.390  0.5853 -2.2273 -1.7463
 5775TIP3   OH238815   4.224   0.116   5.341  0.2362  0.1162  0.8021
 5775TIP3    H138816   4.192   0.096   5.429 -0.0381 -0.1139  0.6495
 5775TIP3    H238817   4.156   0.171   5.302  0.5078  0.4880  0.8478
 5776TIP3   OH238818   3.745   5.222  17.383 -0.3331 -0.3664  0.1001
 5776TIP3    H138819   3.732   5.127  17.387 -1.2053 -0.2520  0.0373
 5776TIP3    H238820   3.795   5.235  17.302 -1.5904 -0.6393 -0.7474
 5777TIP3   OH238821   0.672   3.727   2.739  0.0736 -1.0004  0.5717
 5777TIP3    H138822   0.657   3.718   2.833 -0.0468 -2.3529  0.4467
 5777TIP3    H238823   0.628   3.809   2.716  1.8797  0.4629  2.0252
 5778TIP3   OH238824   6.182   5.898  14.475 -0.0368 -0.3677  0.3867
 5778TIP3    H138825   6.256   5.879  14.532 -0.5983  1.0754  1.6824
 5778TIP3    H238826   6.114   5.836  14.502 -0.2056  0.1251  1.1391
 5779TIP3   OH238827   2.398   2.665   3.070  0.8408 -0.0789  0.3317
 5779TIP3    H138828   2.425   2.733   3.132 -0.1126  1.6994 -1.1155
 5779TIP3    H238829   2.408   2.705   2.984 -2.1971 -0.8246 -0.4780
 5780TIP3   OH238830   1.332   4.712   5.738  0.5108  0.5035  0.1414
 5780TIP3    H138831   1.298   4.763   5.665  0.0830  1.2232  0.8248
 5780TIP3    H238832   1.291   4.626   5.728  0.2560  0.6748 -0.3231
 5781TIP3   OH238833   3.863   0.788   1.515 -0.1994 -0.1624 -0.1277
 5781TIP3    H138834   3.796   0.855   1.503  0.1110  0.0225 -0.8640
 5781TIP3    H238835   3.890   0.764   1.426  1.1467  0.2190  0.1514
 5782TIP3   OH238836   0.481   1.421   4.880  0.5284 -0.2197 -0.1464
 5782TIP3    H138837   0.463   1.492   4.941 -1.4465 -0.0284 -0.8565
 5782TIP3    H238838   0.482   1.342   4.934 -1.7200 -0.1196  0.1435
 5783TIP3   OH238839   3.472   2.720   4.462  1.2006 -0.2849  0.4778
 5783TIP3    H138840   3.559   2.689   4.439  2.0025  1.2801  1.2000
 5783TIP3    H238841   3.476   2.734   4.557  0.7347  1.3517  0.2969
 5784TIP3   OH238842   3.820   5.492   2.351 -0.0906 -0.2774 -0.2431
 5784TIP3    H138843   3.788   5.497   2.261 -1.6733 -0.5435  0.2684
 5784TIP3    H238844   3.904   5.538   2.350  1.0497 -2.1843 -2.3265
 5785TIP3   OH238845   6.598   2.525   4.362  0.1699 -0.3038  0.0160
 5785TIP3    H138846   6.593   2.549   4.269 -0.1331  2.0705  0.5935
 5785TIP3    H238847   6.514   2.482   4.380  1.1190 -2.9500 -1.2858
 5786TIP3   OH238848   2.530   0.439  16.901 -0.0475  0.2777  0.3316
 5786TIP3    H138849   2.516   0.354  16.859  0.8294 -0.0847  0.7589
 5786TIP3    H238850   2.575   0.419  16.983  2.8488  1.3278 -0.8564
 5787TIP3   OH238851   2.551   4.566  13.621 -0.4072  0.3713  0.3405
 5787TIP3    H138852   2.606   4.614  13.560  0.5155 -2.1002 -0.9007
 5787TIP3    H238853   2.613   4.516  13.675 -1.3502 -1.1621  0.0609
 5788TIP3   OH238854   3.233   1.126   0.344 -0.2849 -0.3353 -0.0600
 5788TIP3    H138855   3.281   1.102   0.423  1.4703 -0.3487 -1.0771
 5788TIP3    H238856   3.263   1.063   0.278 -0.3453  0.7811 -1.1782
 5789TIP3   OH238857   0.526   4.360   0.028  0.3652  0.5233 -0.1975
 5789TIP3    H138858   0.567   4.324  -0.051 -0.4888 -2.0127  0.4207
 5789TIP3    H238859   0.434   4.370   0.006  0.2350  0.4045  0.2760
 5790TIP3   OH238860   3.690   2.142  14.699  0.8872  0.4688 -0.8212
 5790TIP3    H138861   3.726   2.062  14.660  0.6603 -1.1712  2.0574
 5790TIP3    H238862   3.596   2.136  14.684  0.6541 -0.7718  0.8395
 5791TIP3   OH238863   4.466   1.509   4.926 -0.4405  0.0920  0.7264
 5791TIP3    H138864   4.554   1.543   4.907  0.0266 -1.3837  0.0659
 5791TIP3    H238865   4.419   1.583   4.964  1.5915  0.4752  2.6977
 5792TIP3   OH238866   5.231   2.963  11.243  0.5892  0.8162  0.1562
 5792TIP3    H138867   5.139   2.979  11.220  0.6106  0.4212 -0.2096
 5792TIP3    H238868   5.253   2.881  11.199  0.5013 -0.2102  1.9284
 5793TIP3   OH238869   0.892   5.537   0.371 -0.8121 -0.0538 -0.1030
 5793TIP3    H138870   0.893   5.456   0.422  1.4611 -0.1442 -0.1918
 5793TIP3    H238871   0.980   5.573   0.381 -1.2211  1.4888 -1.5327
 5794TIP3   OH238872   6.161   1.861  11.561 -0.1887 -0.2209 -0.3687
 5794TIP3    H138873   6.068   1.845  11.548 -0.6558  0.6300  1.5618
 5794TIP3    H238874   6.186   1.919  11.489 -1.4501  0.5177 -0.2402
 5795TIP3   OH238875   1.543   4.979  16.755  0.2703  0.3226  0.5288
 5795TIP3    H138876   1.480   4.907  16.750 -0.4578  0.9958 -0.1950
 5795TIP3    H238877   1.568   4.983  16.848  0.7647 -1.2193  0.4935
 5796TIP3   OH238878   3.457   2.931   2.879  0.2781  0.5182 -0.7753
 5796TIP3    H138879   3.411   2.853   2.847  1.0159 -0.2342 -0.0419
 5796TIP3    H238880   3.408   2.956   2.958 -0.7656  1.6109 -1.7394
 5797TIP3   OH238881   1.461   3.779   3.604  0.4699 -0.6062 -0.0137
 5797TIP3    H138882   1.394   3.826   3.654  1.5035  1.4133 -0.4195
 5797TIP3    H238883   1.448   3.807   3.514  1.8099 -0.2004 -0.1047
 5798TIP3   OH238884   3.735   0.964  11.426 -0.8793  0.0408  0.5129
 5798TIP3    H138885   3.789   1.003  11.358  0.6765  0.2552  1.7995
 5798TIP3    H238886   3.697   0.886  11.385  0.8486 -0.4232 -0.3037
 5799TIP3   OH238887   1.869   2.459  16.573 -0.2186 -0.1059 -0.0540
 5799TIP3    H138888   1.917   2.452  16.490 -0.0452  1.4660 -0.1125
 5799TIP3    H238889   1.787   2.502  16.549 -0.4755 -0.2952  0.4870
 5800TIP3   OH238890   0.620   3.798  15.567 -0.0309  0.0452  0.0397
 5800TIP3    H138891   0.567   3.762  15.496  1.0369  0.9831 -1.2799
 5800TIP3    H238892   0.556   3.831  15.630 -1.0046 -0.6646 -0.5358
 5801TIP3   OH238893   5.548   0.462   0.818 -0.6472 -0.2975  0.3613
 5801TIP3    H138894   5.470   0.501   0.779 -0.3940  0.6521  0.7785
 5801TIP3    H238895   5.534   0.469   0.913  0.9064  2.0248  0.5188
 5802TIP3   OH238896   2.103   0.643   4.804  0.3520 -0.4438 -0.0067
 5802TIP3    H138897   2.079   0.618   4.714  1.5066 -0.7494 -0.2498
 5802TIP3    H238898   2.198   0.628   4.808  0.4848  0.5499  0.9495
 5803TIP3   OH238899   1.783   0.474   4.684 -0.1226  0.2026  0.2738
 5803TIP3    H138900   1.732   0.448   4.608  1.0388 -1.2295 -0.0487
 5803TIP3    H238901   1.805   0.566   4.668  0.5649 -0.2130 -1.4124
 5804TIP3   OH238902   2.933   3.650  15.653 -0.3644 -0.5020 -0.3016
 5804TIP3    H138903   3.015   3.682  15.614  0.7357 -2.4935  0.2237
 5804TIP3    H238904   2.899   3.724  15.703  0.1568  0.9311 -1.9801
 5805TIP3   OH238905   1.729   3.124  13.926  0.0197  0.0260  0.0594
 5805TIP3    H138906   1.661   3.057  13.917  0.5093 -0.5608  0.6389
 5805TIP3    H238907   1.698   3.197  13.872 -1.0672 -0.2329  0.3079
 5806TIP3   OH238908   2.839   3.429   5.928 -0.1556  0.4829  0.1132
 5806TIP3    H138909   2.781   3.466   5.995 -0.5942  0.5691 -0.3093
 5806TIP3    H238910   2.789   3.436   5.847  0.1038 -0.2286 -0.1194
 5807TIP3   OH238911   3.849   5.956  15.693 -0.7415  0.4675 -0.5634
 5807TIP3    H138912   3.812   5.871  15.668 -1.9726  0.7428  0.2189
 5807TIP3    H238913   3.857   5.952  15.788  0.6583  0.6816 -0.6547
 5808TIP3   OH238914   1.632   2.358  17.262 -0.1291  0.4787  0.1097
 5808TIP3    H138915   1.591   2.307  17.192 -0.0775 -0.8611  1.0086
 5808TIP3    H238916   1.630   2.448  17.231 -0.2904 -0.0559 -1.5160
 5809TIP3   OH238917   5.911   1.272  14.034  0.1060  0.5453 -0.7382
 5809TIP3    H138918   5.840   1.209  14.020 -0.4271  0.5409  1.6155
 5809TIP3    H238919   5.989   1.228  13.999 -0.5859 -0.5767 -0.9059
 5810TIP3   OH238920   5.492   0.269   0.042 -0.6453 -0.2226  0.1298
 5810TIP3    H138921   5.445   0.347   0.069 -1.1806 -0.4944 -0.0119
 5810TIP3    H238922   5.571   0.302  -0.001 -0.9521  0.2394 -0.0767
 5811TIP3   OH238923   4.314   5.952  17.132  0.2255  0.3164  0.1904
 5811TIP3    H138924   4.267   6.032  17.110 -1.0829 -0.8673 -1.6374
 5811TIP3    H238925   4.297   5.938  17.225 -2.4627  0.3589 -0.2396
 5812TIP3   OH238926   2.180   5.672  13.219 -0.0641 -0.4203  0.3488
 5812TIP3    H138927   2.266   5.695  13.184 -0.5094  4.0192  1.6163
 5812TIP3    H238928   2.193   5.667  13.314 -1.3238  1.4572  0.6678
 5813TIP3   OH238929   5.338   4.565  17.468 -0.1014 -0.2572 -0.2210
 5813TIP3    H138930   5.331   4.493  17.406 -2.0857 -1.4546  1.3115
 5813TIP3    H238931   5.294   4.638  17.424 -0.1128 -0.6380 -0.8539
 5814TIP3   OH238932   1.970   3.528   2.615 -0.3987  0.3748  0.3560
 5814TIP3    H138933   2.058   3.502   2.643  0.2454 -1.0313 -2.6052
 5814TIP3    H238934   1.969   3.623   2.623  1.7979  0.5316 -0.4772
 5815TIP3   OH238935   6.087   2.511  12.120  0.2074  0.3243 -0.4312
 5815TIP3    H138936   6.085   2.605  12.100  0.4540  0.7955  1.5359
 5815TIP3    H238937   6.180   2.492  12.135  0.0161  0.1125  0.5668
 5816TIP3   OH238938   6.568   2.889  12.233 -0.5961  0.1422 -0.5073
 5816TIP3    H138939   6.608   2.883  12.320 -2.4018 -0.5983  0.3045
 5816TIP3    H238940   6.476   2.905  12.250 -0.8343  0.8326 -2.3217
 5817TIP3   OH238941   3.977   3.699  13.241 -0.4025 -0.4095  0.3047
 5817TIP3    H138942   3.884   3.674  13.246 -0.1287 -1.4368  0.4198
 5817TIP3    H238943   4.024   3.628  13.285  0.5478 -0.5829 -0.9196
 5818TIP3   OH238944   1.458   4.534  11.498  0.0203 -0.2973 -0.0527
 5818TIP3    H138945   1.381   4.528  11.442  0.6879 -1.4985 -0.8972
 5818TIP3    H238946   1.527   4.489  11.449  0.6208 -1.4866  1.7626
 5819TIP3   OH238947   0.757   4.409  15.730 -0.2496 -0.4304 -0.0713
 5819TIP3    H138948   0.824   4.415  15.798 -1.8075 -0.7414  1.5731
 5819TIP3    H238949   0.733   4.499  15.711  0.6943 -0.3094 -0.7753
 5820TIP3   OH238950   5.266   5.406  15.943 -0.7954 -0.3889  0.0064
 5820TIP3    H138951   5.223   5.321  15.954  1.2348 -1.5805 -0.5900
 5820TIP3    H238952   5.256   5.426  15.850  0.8156 -1.2595 -0.4016
 5821TIP3   OH238953   2.393   2.924   4.227 -0.4985 -0.0535  0.0472
 5821TIP3    H138954   2.409   2.872   4.148  0.1617  3.5894 -2.4454
 5821TIP3    H238955   2.298   2.937   4.227 -0.4044  0.7270 -0.7508
 5822TIP3   OH238956   3.718   2.644   4.086  0.0032  0.3705 -0.6196
 5822TIP3    H138957   3.722   2.565   4.140  0.0860  1.2971  0.7587
 5822TIP3    H238958   3.633   2.639   4.043 -0.4901  0.1031  0.3672
 5823TIP3   OH238959   4.531   4.052   1.969  0.0755 -0.3533  0.0358
 5823TIP3    H138960   4.591   3.986   1.935  0.7539 -0.4615  1.3909
 5823TIP3    H238961   4.524   4.033   2.062 -0.3702  0.9793  0.3039
 5824TIP3   OH238962   6.117   1.187  14.435 -0.1597  0.1862  0.3064
 5824TIP3    H138963   6.024   1.203  14.419 -0.1549 -0.3770 -0.3342
 5824TIP3    H238964   6.139   1.242  14.511 -0.9907  0.3838  0.4063
 5825TIP3   OH238965   4.866   5.282   4.478  0.2196 -0.1978  0.1737
 5825TIP3    H138966   4.774   5.260   4.462  0.0700  1.1728 -1.0823
 5825TIP3    H238967   4.865   5.329   4.561  0.0186 -1.4201  0.8971
 5826TIP3   OH238968   6.716   4.637  16.035  0.0339  0.4668 -0.0291
 5826TIP3    H138969   6.702   4.728  16.009 -2.7312  0.2732  0.4953
 5826TIP3    H238970   6.739   4.592  15.954 -2.0842  1.0228 -1.0046
 5827TIP3   OH238971   3.761   6.315  16.996 -0.0036  0.4804 -0.0096
 5827TIP3    H138972   3.837   6.370  17.018  0.4744  0.3826 -1.3455
 5827TIP3    H238973   3.777   6.287  16.906 -2.0008  1.0557 -0.5868
 5828TIP3   OH238974   5.428   4.598  15.294 -0.2454 -0.9041  0.4872
 5828TIP3    H138975   5.411   4.672  15.353  0.2948  1.4398 -2.0810
 5828TIP3    H238976   5.342   4.558  15.281 -0.7028 -0.2089  1.2727
 5829TIP3   OH238977   4.841   3.351  12.617 -0.2510  0.1692  0.2285
 5829TIP3    H138978   4.805   3.436  12.639 -0.7759 -0.1233  0.5044
 5829TIP3    H238979   4.901   3.330  12.689  0.5931  0.7137 -0.2946
 5830TIP3   OH238980   5.812   5.719   3.114 -0.2807 -0.1073  0.2311
 5830TIP3    H138981   5.744   5.777   3.148  1.3137  2.4663 -0.6798
 5830TIP3    H238982   5.882   5.723   3.180  0.0583 -0.5785 -0.0885
 5831TIP3   OH238983   3.176   1.238   0.902 -0.3999 -0.0396 -0.7768
 5831TIP3    H138984   3.081   1.232   0.903 -0.4442  0.6420  0.6354
 5831TIP3    H238985   3.195   1.332   0.904  0.2761 -0.1735  0.9390
 5832TIP3   OH238986   5.669   2.519   5.348 -0.2495 -0.2816  0.3347
 5832TIP3    H138987   5.694   2.566   5.269 -0.2387 -1.9804 -0.7185
 5832TIP3    H238988   5.752   2.498   5.391 -0.2908  1.8951  1.6297
 5833TIP3   OH238989   6.351   4.073  13.445 -0.3275  0.4504 -0.4306
 5833TIP3    H138990   6.375   4.078  13.352  1.1394 -0.4193 -0.1370
 5833TIP3    H238991   6.277   4.134  13.454 -0.1442  0.9730 -2.0465
 5834TIP3   OH238992   6.350   3.907  14.011 -0.5641  0.2056 -0.4534
 5834TIP3    H138993   6.427   3.851  14.026 -0.1472  0.9144  0.1169
 5834TIP3    H238994   6.380   3.972  13.947 -1.2620 -0.6257 -1.6784
 5835TIP3   OH238995   3.079   2.523   2.808  0.2482 -0.4520  0.2088
 5835TIP3    H138996   3.089   2.429   2.823 -0.2750 -0.5908 -0.2854
 5835TIP3    H238997   3.059   2.558   2.895  1.0634 -0.6990  0.5119
 5836TIP3   OH238998   1.687   2.755   2.863 -0.4327  0.1249 -0.9705
 5836TIP3    H138999   1.742   2.796   2.796  2.8492 -0.3688  1.1777
 5836TIP3    H239000   1.709   2.662   2.857 -0.0024  0.0830  0.7730
 5837TIP3   OH239001   1.625   2.698   1.339 -0.0058 -0.2833  0.0216
 5837TIP3    H139002   1.623   2.780   1.290  2.8750 -0.4559 -0.5452
 5837TIP3    H239003   1.579   2.635   1.284  2.4232 -0.2719 -2.1750
 5838TIP3   OH239004   4.368   2.803   3.970 -0.7743 -0.1972 -0.3276
 5838TIP3    H139005   4.289   2.753   3.990 -2.0534  1.5390 -0.8168
 5838TIP3    H239006   4.336   2.889   3.943  1.3159  0.7474  0.0108
 5839TIP3   OH239007   6.597   5.990  11.892  0.5359 -0.3511 -0.2509
 5839TIP3    H139008   6.601   6.073  11.941 -2.0008 -0.5806  0.4643
 5839TIP3    H239009   6.596   5.923  11.960  1.5449 -0.9380 -0.8024
 5840TIP3   OH239010   4.859   3.979   0.144 -0.5063  0.2625  0.1394
 5840TIP3    H139011   4.904   3.895   0.140 -0.5429  0.1911  1.1115
 5840TIP3    H239012   4.857   4.009   0.053  1.0167  0.0119 -0.0022
 5841TIP3   OH239013   4.395   5.319   0.796 -0.9446 -0.4743  0.8946
 5841TIP3    H139014   4.466   5.382   0.805 -1.2520 -0.3285  2.6172
 5841TIP3    H239015   4.340   5.334   0.873 -2.8165 -0.6245 -0.3560
 5842TIP3   OH239016   4.139   6.476   0.559 -0.5333  0.1643  0.0201
 5842TIP3    H139017   4.218   6.424   0.575 -1.0197 -0.7195 -0.4031
 5842TIP3    H239018   4.164   6.533   0.486 -0.3367 -0.2348 -0.2290
 5843TIP3   OH239019   0.538   6.129   4.855  0.0507 -0.9639 -0.1114
 5843TIP3    H139020   0.495   6.171   4.930  3.3822  3.3669 -0.2664
 5843TIP3    H239021   0.475   6.139   4.783 -0.0980  2.3523  0.3332
 5844TIP3   OH239022   5.396   3.482   0.158  0.6634 -0.1252 -0.3019
 5844TIP3    H139023   5.406   3.571   0.191 -1.1947  0.1184 -0.3085
 5844TIP3    H239024   5.329   3.488   0.090 -0.7929 -1.7898  0.8928
 5845TIP3   OH239025   3.219   4.909   1.409 -0.5877 -0.5517 -0.8875
 5845TIP3    H139026   3.259   4.861   1.481 -2.3783 -0.5058  0.2052
 5845TIP3    H239027   3.197   4.994   1.446 -2.4679 -0.8790 -1.1415
 5846TIP3   OH239028   6.341   6.679   1.877 -0.5014 -0.1450  0.2388
 5846TIP3    H139029   6.246   6.679   1.873 -0.4711  0.1539 -0.5621
 5846TIP3    H239030   6.367   6.590   1.851 -0.5062  0.3064 -1.4392
 5847TIP3   OH239031   4.549   2.203   6.093 -0.3841 -0.0811  0.4303
 5847TIP3    H139032   4.498   2.180   6.015 -0.8194  0.8007  0.4370
 5847TIP3    H239033   4.640   2.203   6.063 -0.5207 -0.1108  0.0103
 5848TIP3   OH239034   4.135   3.935   1.926  0.4299 -0.3130 -0.5460
 5848TIP3    H139035   4.187   3.949   2.006  0.5171 -1.5946 -0.3643
 5848TIP3    H239036   4.158   4.010   1.870 -0.0196  0.8915  0.8040
 5849TIP3   OH239037   3.376   1.115  16.377  0.1524  0.2352 -0.0598
 5849TIP3    H139038   3.369   1.136  16.284  0.9518 -0.0228 -0.1820
 5849TIP3    H239039   3.452   1.057  16.383 -1.7753 -2.4458  0.3132
 5850TIP3   OH239040   1.149   6.397  11.652  0.0585 -0.4476  0.3945
 5850TIP3    H139041   1.138   6.350  11.569 -0.8466 -0.9999  0.8140
 5850TIP3    H239042   1.202   6.473  11.629  0.2535 -0.8639 -0.5955
 5851TIP3   OH239043   1.667   5.266  16.042  0.5666 -0.2164 -0.0387
 5851TIP3    H139044   1.755   5.228  16.044 -0.0987 -1.8189  0.8869
 5851TIP3    H239045   1.658   5.301  15.954  2.6388  1.3047  0.2828
 5852TIP3   OH239046   1.751   4.525   2.371  0.4901 -0.7407  0.2840
 5852TIP3    H139047   1.694   4.506   2.446  0.6484 -0.0255  0.5903
 5852TIP3    H239048   1.757   4.442   2.325  0.4028 -1.2019  1.0763
 5853TIP3   OH239049   1.880   0.623  15.821  0.4164 -0.2196 -0.2981
 5853TIP3    H139050   1.937   0.700  15.826  0.2228 -0.1091  0.4330
 5853TIP3    H239051   1.934   0.551  15.852 -0.0280  0.0164  1.1605
 5854TIP3   OH239052   6.291   2.314  17.094  0.3389  0.1361 -0.3008
 5854TIP3    H139053   6.362   2.359  17.048  1.2010 -0.2845  0.5673
 5854TIP3    H239054   6.307   2.332  17.186 -1.2723  0.8438 -0.1293
 5855TIP3   OH239055   4.155   3.495   0.845  0.4859  0.0608  0.2611
 5855TIP3    H139056   4.219   3.478   0.914 -0.6511  0.2555  1.4118
 5855TIP3    H239057   4.174   3.584   0.816  0.5156  0.2551  0.8553
 5856TIP3   OH239058   5.298   4.258   2.763 -0.3343 -0.1186 -0.1553
 5856TIP3    H139059   5.392   4.267   2.777 -0.1159 -0.0595 -1.5285
 5856TIP3    H239060   5.286   4.268   2.668 -1.6918 -0.4031 -0.0439
 5857TIP3   OH239061   4.499   5.077  13.247 -0.4009 -0.3885  0.3384
 5857TIP3    H139062   4.449   5.005  13.210 -0.0881 -0.5903  0.3070
 5857TIP3    H239063   4.553   5.037  13.315  2.0079 -0.7404 -1.6381
 5858TIP3   OH239064   1.912   3.345  15.389  0.0065 -0.1784 -0.0790
 5858TIP3    H139065   1.937   3.403  15.317  1.7214 -2.0680 -1.0983
 5858TIP3    H239066   1.986   3.285  15.398 -1.5390 -1.9924  1.1608
 5859TIP3   OH239067   0.231   2.096   0.795 -0.0986  0.1109  0.1732
 5859TIP3    H139068   0.211   2.013   0.838 -0.1554 -0.1117 -0.2815
 5859TIP3    H239069   0.287   2.142   0.858  2.5454 -1.5473 -0.8070
 5860TIP3   OH239070   2.430   2.381   4.816  0.4728 -0.1792  0.0723
 5860TIP3    H139071   2.369   2.453   4.798 -1.6115 -1.4266  1.6222
 5860TIP3    H239072   2.446   2.385   4.910  0.1081 -1.8467  0.2433
 5861TIP3   OH239073   3.943   1.887   5.264  0.4987 -0.2219 -0.4386
 5861TIP3    H139074   3.921   1.885   5.357  0.3462 -0.4139 -0.4800
 5861TIP3    H239075   4.000   1.812   5.251  0.5433 -0.1787 -0.4952
 5862TIP3   OH239076   3.479   1.332   5.933 -0.0792  0.4976 -0.1504
 5862TIP3    H139077   3.566   1.330   5.895 -0.2563 -1.0232 -0.5335
 5862TIP3    H239078   3.451   1.241   5.935 -2.0033  1.0193 -0.8275
 5863TIP3   OH239079   2.193   3.627   3.356  0.1322 -0.1731 -0.3239
 5863TIP3    H139080   2.128   3.586   3.414  2.7088 -2.1495  1.4360
 5863TIP3    H239081   2.232   3.553   3.308  2.2032  0.6639 -0.0364
 5864TIP3   OH239082   4.720   2.356  12.579  0.3369  0.1779  0.1905
 5864TIP3    H139083   4.757   2.383  12.663 -0.6476 -1.1339  1.0787
 5864TIP3    H239084   4.773   2.403  12.514  1.8104  0.4137  1.4879
 5865TIP3   OH239085   4.406   4.925   0.240 -0.0439 -0.6354  0.0240
 5865TIP3    H139086   4.424   4.939   0.147  1.7047  1.0685  0.5405
 5865TIP3    H239087   4.332   4.864   0.242 -0.2659 -0.5372 -2.4643
 5866TIP3   OH239088   3.555   0.406  12.314 -0.0079 -0.2766  0.1277
 5866TIP3    H139089   3.547   0.391  12.409  1.1509 -0.4616  0.2150
 5866TIP3    H239090   3.544   0.319  12.275 -2.5838  0.0833 -0.1031
 5867TIP3   OH239091   1.894   4.622   1.992  0.0367 -0.1812  0.9609
 5867TIP3    H139092   1.923   4.703   2.033  0.9840  0.5738 -1.0794
 5867TIP3    H239093   1.975   4.575   1.972 -0.1698  0.5255 -2.0070
 5868TIP3   OH239094   2.254   4.680   1.380  0.0184 -0.5708  0.5904
 5868TIP3    H139095   2.349   4.691   1.382 -0.0676  0.1775  1.0927
 5868TIP3    H239096   2.221   4.746   1.442 -0.7295 -2.1088  1.8826
 5869TIP3   OH239097   0.154   5.875  14.195 -0.0985 -0.0061  0.1076
 5869TIP3    H139098   0.207   5.953  14.215 -2.8760  1.8796  0.6624
 5869TIP3    H239099   0.178   5.853  14.105  1.5342  0.8179  0.3031
 5870TIP3   OH239100   1.219   1.443   3.682  0.5373 -0.7406 -0.2767
 5870TIP3    H139101   1.205   1.386   3.758 -2.1359 -0.4563 -0.4491
 5870TIP3    H239102   1.249   1.385   3.613  0.3336 -1.4938  0.2601
 5871TIP3   OH239103   1.034   2.264  10.841  0.6673  0.4693  0.2717
 5871TIP3    H139104   0.939   2.257  10.838  0.5152 -0.4935  3.5783
 5871TIP3    H239105   1.065   2.187  10.792 -0.3405 -0.8249  1.5844
 5872TIP3   OH239106   4.068   2.520  11.742 -0.0516 -0.4556 -0.1856
 5872TIP3    H139107   3.991   2.463  11.743  0.0466 -0.6636 -1.5350
 5872TIP3    H239108   4.088   2.536  11.834 -2.2551  0.3667  0.2142
 5873TIP3   OH239109   5.779   3.387   0.823  0.4408  0.8071  0.7562
 5873TIP3    H139110   5.845   3.429   0.768  0.4922  0.0024  0.1717
 5873TIP3    H239111   5.715   3.352   0.760  1.0776 -1.1164  1.1005
 5874TIP3   OH239112   3.771   0.331  15.274  0.8045  0.3880  0.0515
 5874TIP3    H139113   3.750   0.387  15.199  0.9186 -0.7570 -0.8639
 5874TIP3    H239114   3.700   0.346  15.336 -1.9932 -2.0825 -2.2340
 5875TIP3   OH239115   3.552   4.889   3.619  0.0091  0.3921 -0.6536
 5875TIP3    H139116   3.508   4.813   3.581  1.2020 -1.1989  0.9670
 5875TIP3    H239117   3.563   4.949   3.546 -1.3230 -0.8000 -1.9219
 5876TIP3   OH239118   1.311   0.176   5.362  0.0301  0.7683 -0.5713
 5876TIP3    H139119   1.233   0.137   5.403  0.0502  0.1020 -1.1430
 5876TIP3    H239120   1.342   0.239   5.426 -1.3285  1.4784 -0.5664
 5877TIP3   OH239121   4.079   4.242  13.520 -0.4213  0.1185 -0.1060
 5877TIP3    H139122   4.064   4.286  13.603 -1.2490 -0.0832 -0.1463
 5877TIP3    H239123   4.145   4.296  13.476  2.6407 -1.5156  2.0262
 5878TIP3   OH239124   2.951   0.545   2.281  0.3119 -0.3183 -0.2343
 5878TIP3    H139125   2.933   0.631   2.317  1.4264 -0.3065  0.3413
 5878TIP3    H239126   2.906   0.543   2.197  0.5076  0.9238 -0.3740
 5879TIP3   OH239127   0.726   2.523  14.036  0.0968  0.1419 -0.5837
 5879TIP3    H139128   0.801   2.488  13.987  0.3516 -0.4923  0.2248
 5879TIP3    H239129   0.715   2.461  14.108 -0.7258  0.6614 -0.2607
 5880TIP3   OH239130   2.738   6.577  14.993 -0.5904 -0.1428 -0.7130
 5880TIP3    H139131   2.693   6.594  14.911 -2.2597 -0.5630  0.0799
 5880TIP3    H239132   2.724   6.484  15.010 -0.4185 -0.0231  0.1398
 5881TIP3   OH239133   0.410   2.754  17.605  0.2925 -0.1304  0.9295
 5881TIP3    H139134   0.318   2.740  17.626  0.4109  1.4315  2.7875
 5881TIP3    H239135   0.424   2.848  17.618  2.2674 -0.4177  1.3261
 5882TIP3   OH239136   0.228   2.144  12.139 -0.5769 -0.0817 -0.3143
 5882TIP3    H139137   0.214   2.235  12.165  1.5130  0.0835  0.3746
 5882TIP3    H239138   0.269   2.149  12.053 -0.7912 -0.4035 -0.4400
 5883TIP3   OH239139   4.353   1.542  16.733  0.0121  0.7110 -0.4582
 5883TIP3    H139140   4.396   1.464  16.768 -1.8964 -0.1684  0.0099
 5883TIP3    H239141   4.362   1.534  16.638  1.6243  1.0137 -0.3591
 5884TIP3   OH239142   1.835   3.740   1.694 -0.0284  0.3021  0.4288
 5884TIP3    H139143   1.806   3.693   1.772 -0.5568 -0.5716 -0.2664
 5884TIP3    H239144   1.862   3.826   1.726 -0.6482  0.1178  1.5065
 5885TIP3   OH239145   6.726   6.198   0.825  0.3863  0.2743 -0.7690
 5885TIP3    H139146   6.819   6.190   0.803  0.1605 -0.1559 -1.6361
 5885TIP3    H239147   6.690   6.257   0.758  0.0467  0.4986 -0.3959
 5886TIP3   OH239148   1.516   6.487   5.130  0.5262  0.3262 -0.0356
 5886TIP3    H139149   1.468   6.546   5.188  1.2503  0.4952  0.3995
 5886TIP3    H239150   1.453   6.465   5.061 -0.2163  0.4305  0.6000
 5887TIP3   OH239151   2.210   1.423  17.182 -0.1728 -0.5114 -1.0084
 5887TIP3    H139152   2.283   1.430  17.120 -1.0980 -0.6015 -2.1377
 5887TIP3    H239153   2.203   1.511  17.220 -0.3343 -0.1208 -1.9053
 5888TIP3   OH239154   6.280   4.203   4.481 -0.0800 -0.5674  0.8189
 5888TIP3    H139155   6.240   4.222   4.396  0.6029  1.0851  0.8197
 5888TIP3    H239156   6.209   4.167   4.533 -0.8877 -0.2137 -0.0040
 5889TIP3   OH239157   0.766   6.301  14.011  0.7035 -0.3287  0.0141
 5889TIP3    H139158   0.704   6.275  13.943  0.7044 -2.1593  0.6511
 5889TIP3    H239159   0.745   6.244  14.086  1.7405  0.5120  0.9848
 5890TIP3   OH239160   1.495   4.953  11.905 -0.0499 -0.0215 -0.1479
 5890TIP3    H139161   1.559   4.956  11.976 -1.2023 -2.0816  1.0474
 5890TIP3    H239162   1.450   5.038  11.909  1.8172  1.0433 -0.3458
 5891TIP3   OH239163   4.757   5.847  11.752 -0.3798 -0.6566 -0.1898
 5891TIP3    H139164   4.703   5.926  11.750  1.2739  0.6385  1.6921
 5891TIP3    H239165   4.836   5.872  11.703 -0.1489 -1.4281 -0.2222
 5892TIP3   OH239166   3.904   2.401   6.474 -0.2261  0.6416  0.0560
 5892TIP3    H139167   3.989   2.431   6.441 -1.1199  3.1046 -0.2614
 5892TIP3    H239168   3.843   2.421   6.402 -1.3295  0.5765  0.9487
 5893TIP3   OH239169   6.405   1.095   0.608 -0.3762 -0.4915  0.2525
 5893TIP3    H139170   6.328   1.038   0.602  1.0165 -2.2365 -2.5314
 5893TIP3    H239171   6.399   1.152   0.531  0.5819  0.1063  0.6059
 5894TIP3   OH239172   1.171   2.109  13.883 -0.0702  0.4286  0.5277
 5894TIP3    H139173   1.154   2.094  13.976 -1.2440  1.1670  0.4553
 5894TIP3    H239174   1.098   2.066  13.838  1.9633 -2.4804 -0.2885
 5895TIP3   OH239175   6.455   1.310  15.585  0.0347  0.8994 -0.2723
 5895TIP3    H139176   6.533   1.318  15.639  0.5593  1.0684 -1.0430
 5895TIP3    H239177   6.388   1.360  15.632  0.4678  1.0015  0.2396
 5896TIP3   OH239178   5.811   5.471  16.734  0.5351  0.6910  0.5352
 5896TIP3    H139179   5.770   5.420  16.804  0.6521  0.2675  0.3002
 5896TIP3    H239180   5.873   5.528  16.779  3.3803 -2.1458  0.5769
 5897TIP3   OH239181   5.806   5.393   5.695  0.2888  0.1002 -0.2235
 5897TIP3    H139182   5.770   5.425   5.613 -0.8611 -3.0998 -1.0753
 5897TIP3    H239183   5.888   5.350   5.671  1.2624  1.3116  0.7388
 5898TIP3   OH239184   0.702   3.167   4.644  0.2104  0.2067 -0.6368
 5898TIP3    H139185   0.685   3.141   4.734  0.6513  0.6439 -0.4213
 5898TIP3    H239186   0.703   3.263   4.646  1.3744  0.2132 -0.8813
 5899TIP3   OH239187   1.757   4.465  16.760  0.3145 -0.0733 -0.5843
 5899TIP3    H139188   1.837   4.413  16.758  1.3848  1.5037 -2.1745
 5899TIP3    H239189   1.786   4.554  16.739 -1.2346  1.5215  3.1980
 5900TIP3   OH239190   4.159   4.034   6.209  0.3955  0.1311 -0.2517
 5900TIP3    H139191   4.122   4.120   6.187  0.5080  0.6279  1.3898
 5900TIP3    H239192   4.094   3.994   6.266  0.9564 -0.3160  0.0772
 5901TIP3   OH239193   5.810   2.159  17.050  0.3899  0.6778 -0.3203
 5901TIP3    H139194   5.820   2.065  17.066  1.0927  0.9846  1.1996
 5901TIP3    H239195   5.716   2.174  17.057  0.3921  0.2829  0.6493
 5902TIP3   OH239196   2.397   5.733  17.253 -0.5507 -0.2665  0.4566
 5902TIP3    H139197   2.474   5.710  17.306  1.8259 -1.2807 -3.0578
 5902TIP3    H239198   2.394   5.829  17.255  1.2514 -0.1702  0.2030
 5903TIP3   OH239199   2.850   6.344   6.095 -0.0789  0.0603  0.0446
 5903TIP3    H139200   2.785   6.410   6.074 -0.0776 -0.4768 -1.8453
 5903TIP3    H239201   2.887   6.372   6.178 -1.6783  1.1664  0.4234
 5904TIP3   OH239202   1.444   2.685   3.707 -0.4101 -0.0109 -0.5601
 5904TIP3    H139203   1.407   2.750   3.767 -0.3147  1.3066 -1.8860
 5904TIP3    H239204   1.532   2.718   3.687 -0.1295 -0.8692 -0.8013
 5905TIP3   OH239205   4.643   5.307   3.468 -0.4203  0.7648 -0.0366
 5905TIP3    H139206   4.604   5.378   3.519  0.5528  1.9016 -0.8108
 5905TIP3    H239207   4.738   5.318   3.480 -0.1589  1.1087 -2.0958
 5906TIP3   OH239208   4.351   0.673  11.750  0.5663  0.1013  0.0286
 5906TIP3    H139209   4.335   0.596  11.697 -1.7951 -0.4926  1.4815
 5906TIP3    H239210   4.267   0.720  11.752  0.4543  0.0207  3.2503
 5907TIP3   OH239211   2.094   3.032   4.178  0.0642 -0.3633 -0.1074
 5907TIP3    H139212   2.058   3.048   4.266 -1.3031 -1.9102 -0.3486
 5907TIP3    H239213   2.032   2.972   4.137  0.1268  1.1085 -2.5287
 5908TIP3   OH239214   3.019   6.188  12.179  0.3626  0.1478  0.0966
 5908TIP3    H139215   2.940   6.239  12.198  0.7526  0.9439 -0.3317
 5908TIP3    H239216   2.995   6.132  12.106  0.0465  0.0268  0.2957
 5909TIP3   OH239217   5.687   3.373  15.410 -0.0206 -0.1421  0.2095
 5909TIP3    H139218   5.739   3.359  15.489  0.9373 -1.1279 -0.5572
 5909TIP3    H239219   5.596   3.377  15.441  0.4565  1.7531  1.6000
 5910TIP3   OH239220   0.608   6.035   2.654  0.3600  0.3870  0.9845
 5910TIP3    H139221   0.648   6.076   2.731  0.1289  1.9348  0.3111
 5910TIP3    H239222   0.522   6.007   2.685  0.8615 -0.4242  1.6913
 5911TIP3   OH239223   6.135   2.996  14.412  0.0529 -0.3873  0.2507
 5911TIP3    H139224   6.166   2.927  14.471 -0.2528  0.5536  1.5433
 5911TIP3    H239225   6.212   3.020  14.360  0.1331 -1.7723 -0.3087
 5912TIP3   OH239226   3.668   0.188   4.173  0.0799  0.4445 -0.4118
 5912TIP3    H139227   3.666   0.275   4.134 -0.6796  0.1852 -0.9785
 5912TIP3    H239228   3.707   0.132   4.106 -0.3487  0.1708 -0.4369
 5913TIP3   OH239229   1.744   5.338  11.048 -0.1023 -0.0767  0.4934
 5913TIP3    H139230   1.789   5.400  10.991 -1.4602  1.4890  1.0493
 5913TIP3    H239231   1.687   5.288  10.990  0.5490 -0.4048  0.1266
 5914TIP3   OH239232   3.135   3.217  17.568 -0.5411  0.1175  0.3457
 5914TIP3    H139233   3.174   3.261  17.644  0.5750 -0.1760 -0.0282
 5914TIP3    H239234   3.207   3.211  17.505 -0.6066 -2.3424  0.4201
 5915TIP3   OH239235   4.027   3.810   1.016 -0.0235 -0.0519  1.0792
 5915TIP3    H139236   3.932   3.799   1.018  0.1678 -2.1395  0.6779
 5915TIP3    H239237   4.045   3.846   0.929 -0.3518 -0.7600  0.7157
 5916TIP3   OH239238   2.219   5.889   1.332 -0.2448  0.0643 -0.1242
 5916TIP3    H139239   2.169   5.885   1.414  0.2723  0.2560  0.2007
 5916TIP3    H239240   2.257   5.977   1.330 -0.2518  0.0613 -0.5696
 5917TIP3   OH239241   2.957   4.183   4.246 -0.1014  0.2712 -1.0252
 5917TIP3    H139242   2.981   4.249   4.181 -0.4008  1.5169  0.0865
 5917TIP3    H239243   2.883   4.222   4.294 -0.6157 -1.0851 -0.6701
 5918TIP3   OH239244   4.713   6.511  12.535  0.0257  0.0530  0.3540
 5918TIP3    H139245   4.809   6.511  12.526  0.2628  0.0106  2.3952
 5918TIP3    H239246   4.682   6.468  12.456  1.8445 -1.9713  0.6347
 5919TIP3   OH239247   2.381   6.282  16.063 -0.1291  0.1381  0.2176
 5919TIP3    H139248   2.321   6.215  16.096 -0.0696 -0.6445 -1.1681
 5919TIP3    H239249   2.385   6.347  16.133 -2.7383  0.3320  0.2771
 5920TIP3   OH239250   6.696   2.804  13.106 -0.2782 -0.5796 -0.0907
 5920TIP3    H139251   6.690   2.774  13.197 -0.2210 -0.0368  0.0975
 5920TIP3    H239252   6.758   2.743  13.065  0.8419  0.0350  0.6169
 5921TIP3   OH239253   1.526   6.503   6.572  0.4728  0.1062 -0.2834
 5921TIP3    H139254   1.613   6.535   6.596 -0.4538  1.5528  1.3562
 5921TIP3    H239255   1.470   6.581   6.575 -0.4253 -0.2349 -4.0441
 5922TIP3   OH239256   0.074   5.190  13.496 -0.6209  0.6175 -0.3185
 5922TIP3    H139257   0.160   5.210  13.532 -1.7081  2.7614  1.3356
 5922TIP3    H239258   0.050   5.107  13.536 -0.3081  1.2031  1.1377
 5923TIP3   OH239259   3.260   2.788   0.785  0.0663 -0.1120  0.2159
 5923TIP3    H139260   3.239   2.767   0.876  1.4973  0.1979  0.6316
 5923TIP3    H239261   3.228   2.713   0.735 -0.1896 -0.5571  1.0425
 5924TIP3   OH239262   0.518   1.543  16.120 -0.6977 -0.1754 -0.0986
 5924TIP3    H139263   0.547   1.468  16.173 -0.4977  0.6388  0.9903
 5924TIP3    H239264   0.443   1.578  16.168 -1.2992 -0.1595 -1.0297
 5925TIP3   OH239265   2.649   2.902   2.541 -0.2577 -0.5547 -0.2498
 5925TIP3    H139266   2.683   2.886   2.453 -0.9532  0.3914 -0.7091
 5925TIP3    H239267   2.663   2.995   2.556 -0.7724 -0.5673  0.3533
 5926TIP3   OH239268   4.062   3.103   0.009 -0.5102  0.4227  0.8371
 5926TIP3    H139269   4.095   3.036   0.069 -2.2662 -0.7530  0.5449
 5926TIP3    H239270   4.060   3.060  -0.076 -1.3012  0.9590  0.5748
 5927TIP3   OH239271   2.265   6.708  16.931 -0.3207 -0.1948 -0.4741
 5927TIP3    H139272   2.274   6.616  16.956  0.8930 -0.1571 -0.7222
 5927TIP3    H239273   2.202   6.707  16.860 -0.9096 -0.7385  0.0382
 5928TIP3   OH239274   0.523   6.110  16.450 -0.5673 -0.4386 -0.2670
 5928TIP3    H139275   0.440   6.074  16.421 -1.0613 -1.0833  1.8161
 5928TIP3    H239276   0.537   6.074  16.537  0.8906  1.2744  0.2934
 5929TIP3   OH239277   0.696   5.097   2.166  0.3091  0.0008  0.0157
 5929TIP3    H139278   0.783   5.118   2.132  0.1145  0.3715 -0.2699
 5929TIP3    H239279   0.697   5.003   2.179  1.3469  0.1930  1.6782
 5930TIP3   OH239280   2.514   5.716   5.139  0.0988  0.1098 -0.0508
 5930TIP3    H139281   2.559   5.654   5.081 -1.2211 -1.8658  0.9474
 5930TIP3    H239282   2.469   5.661   5.203 -1.1771  2.1187  0.8710
 5931TIP3   OH239283   0.694   4.869  16.086  0.1275 -0.1576  0.4655
 5931TIP3    H139284   0.644   4.791  16.109 -0.1307 -0.3916 -0.8474
 5931TIP3    H239285   0.661   4.937  16.145 -2.9527  0.1333 -1.4115
 5932TIP3   OH239286   2.413   0.623   3.091  0.0674  0.2825  0.7001
 5932TIP3    H139287   2.366   0.581   3.019 -0.6096 -0.8826  1.7834
 5932TIP3    H239288   2.344   0.669   3.141  0.4396  0.5788  0.9498
 5933TIP3   OH239289   2.532   0.029  14.533 -0.4799  0.2302 -0.3931
 5933TIP3    H139290   2.504   0.093  14.598 -1.3252  0.5400 -1.0507
 5933TIP3    H239291   2.487   0.054  14.452  1.3696  0.5145 -1.4088
 5934TIP3   OH239292   1.805   6.566   4.416 -0.2568  0.0821  0.6047
 5934TIP3    H139293   1.869   6.573   4.486 -1.1695 -0.7667  1.5646
 5934TIP3    H239294   1.842   6.501   4.356 -0.0338 -0.1130  0.9476
 5935TIP3   OH239295   3.380   2.927  16.261  0.6252 -0.0155 -0.3390
 5935TIP3    H139296   3.373   2.833  16.275  1.8207 -0.2487 -1.0564
 5935TIP3    H239297   3.380   2.937  16.165 -1.1787  0.8885 -0.2774
 5936TIP3   OH239298   5.769   4.669   3.766  0.3913  0.5903 -0.2519
 5936TIP3    H139299   5.845   4.724   3.747  0.6753  0.3519  0.1612
 5936TIP3    H239300   5.801   4.579   3.754  0.6190  0.4230  1.4074
 5937TIP3   OH239301   0.849   6.271   4.403 -0.0983 -0.4722  0.4571
 5937TIP3    H139302   0.897   6.189   4.396 -0.4822 -0.6922  0.3713
 5937TIP3    H239303   0.766   6.254   4.358 -0.3769 -0.1937  0.8572
 5938TIP3   OH239304   3.310   4.597   6.153 -0.0705 -0.2893 -0.3614
 5938TIP3    H139305   3.229   4.629   6.114  0.2488  3.0018  1.2992
 5938TIP3    H239306   3.379   4.638   6.101  0.4676 -1.0928 -0.2903
 5939TIP3   OH239307   1.614   0.428   2.728  0.0360  1.0621  0.5239
 5939TIP3    H139308   1.699   0.470   2.719 -0.0895  1.4226  0.9841
 5939TIP3    H239309   1.551   0.492   2.696 -0.1897  1.4008  1.6098
 5940TIP3   OH239310   2.472   6.157   1.809 -0.4587  0.1080  0.6588
 5940TIP3    H139311   2.526   6.229   1.776 -1.5243  0.6824  0.1351
 5940TIP3    H239312   2.533   6.103   1.859  0.8903  0.0732 -0.9285
 5941TIP3   OH239313   4.165   3.361  12.139  0.1555  0.5929  0.1449
 5941TIP3    H139314   4.104   3.380  12.210  0.9982  1.1366  0.7394
 5941TIP3    H239315   4.185   3.268  12.150 -1.6501  0.0425 -0.9344
 5942TIP3   OH239316   2.012   1.336   4.026  0.5721 -0.1169  0.2606
 5942TIP3    H139317   1.926   1.313   4.062  0.3070  0.9941  0.3811
 5942TIP3    H239318   2.065   1.358   4.103  0.4701  0.7447  0.1040
 5943TIP3   OH239319   4.728   2.034   0.693 -0.2109 -0.2103  0.3753
 5943TIP3    H139320   4.722   2.080   0.609  1.6249  2.7256  1.6457
 5943TIP3    H239321   4.766   1.949   0.672  0.2944  0.4910 -1.7611
 5944TIP3   OH239322   3.764   2.569  11.912 -0.2033  0.1449 -0.0298
 5944TIP3    H139323   3.760   2.617  11.830  1.2206 -1.1537 -0.9228
 5944TIP3    H239324   3.725   2.628  11.977  0.1706  1.8739 -1.3101
 5945TIP3   OH239325   1.961   2.584   5.868 -0.0116 -0.2809  0.1147
 5945TIP3    H139326   1.891   2.537   5.823  0.0790 -0.6909  0.3990
 5945TIP3    H239327   1.921   2.666   5.897 -0.1600 -0.1598 -0.4184
 5946TIP3   OH239328   1.594   2.210  13.926 -0.2278  0.1308  0.0573
 5946TIP3    H139329   1.665   2.256  13.971 -0.4084 -0.3905  0.8965
 5946TIP3    H239330   1.514   2.240  13.969 -0.4863  0.3817 -0.5894
 5947TIP3   OH239331   1.049   6.209  17.522  0.4138 -0.5477  0.5969
 5947TIP3    H139332   1.118   6.154  17.486  0.8523  0.2227  0.2210
 5947TIP3    H239333   1.018   6.260  17.447  0.2957 -0.0078  1.0035
 5948TIP3   OH239334   5.221   2.656   1.735 -0.2128  0.1002  0.5920
 5948TIP3    H139335   5.207   2.667   1.641  0.6342  0.0833  0.4572
 5948TIP3    H239336   5.137   2.624   1.768 -0.2541 -0.7461 -0.2952
 5949TIP3   OH239337   2.859   4.841   0.656 -0.5384  0.8939 -0.7158
 5949TIP3    H139338   2.765   4.859   0.654 -0.1563  3.3942 -0.1702
 5949TIP3    H239339   2.888   4.853   0.566 -0.7093  0.1667 -0.8756
 5950TIP3   OH239340   1.422   0.728   0.719 -0.5797 -0.1160  0.1215
 5950TIP3    H139341   1.475   0.787   0.667  1.5512 -0.3305  1.9097
 5950TIP3    H239342   1.453   0.640   0.695 -1.6352 -0.3806 -0.3421
 5951TIP3   OH239343   1.479   1.592   1.846  0.0843 -0.2294 -0.1951
 5951TIP3    H139344   1.538   1.519   1.865  0.2138  0.3034  1.6764
 5951TIP3    H239345   1.537   1.662   1.817 -0.0069 -0.7399 -1.6703
 5952TIP3   OH239346   5.414   0.728   4.452  0.1657 -0.9012  0.6009
 5952TIP3    H139347   5.411   0.638   4.485 -1.1020 -1.6206 -1.2906
 5952TIP3    H239348   5.421   0.719   4.357  0.6264  1.0166  0.4096
 5953TIP3   OH239349   1.003   3.163  15.584  0.3860 -0.8237 -0.3526
 5953TIP3    H139350   1.039   3.169  15.673 -0.2513  0.7551 -0.1742
 5953TIP3    H239351   0.964   3.076  15.581  1.7959 -1.5252  0.3637
 5954TIP3   OH239352   5.384   3.821  16.728 -0.2052  0.0680 -0.3858
 5954TIP3    H139353   5.427   3.893  16.681 -0.6427  0.4701 -0.1736
 5954TIP3    H239354   5.291   3.843  16.727 -0.0932  0.8992  2.0226
 5955TIP3   OH239355   6.058   5.880   1.645 -0.7720 -0.2997 -0.2093
 5955TIP3    H139356   6.026   5.892   1.734  0.9626  1.2188  0.2742
 5955TIP3    H239357   6.017   5.951   1.596 -1.0334 -0.6027 -0.4353
 5956TIP3   OH239358   5.972   4.789  14.224 -0.1569  0.8482 -0.2550
 5956TIP3    H139359   5.978   4.711  14.280 -3.5702  0.6562  0.0637
 5956TIP3    H239360   5.960   4.755  14.136  0.5352  1.0510 -0.4260
 5957TIP3   OH239361   1.010   3.580  17.102  0.1402 -0.1596 -0.5976
 5957TIP3    H139362   0.991   3.523  17.027 -0.7037  0.2685 -0.7126
 5957TIP3    H239363   1.033   3.664  17.063  1.4079 -0.4122 -0.4244
 5958TIP3   OH239364   3.464   5.317  13.554  0.0216 -0.4972  0.1940
 5958TIP3    H139365   3.552   5.349  13.533 -0.0996  0.2444  0.7289
 5958TIP3    H239366   3.414   5.328  13.473 -0.3112  1.8241  0.6218
 5959TIP3   OH239367   1.026   2.377   0.008 -0.3693  0.4989  0.6168
 5959TIP3    H139368   1.024   2.430   0.088 -0.9779  0.4724  0.6236
 5959TIP3    H239369   0.985   2.295   0.032  0.3829  0.0918  0.5455
 5960TIP3   OH239370   0.620   1.847   0.803 -0.0746  0.1406 -0.3849
 5960TIP3    H139371   0.575   1.831   0.886  0.2433  0.5420 -0.1276
 5960TIP3    H239372   0.551   1.841   0.736 -0.5009  0.7205 -0.0024
 5961TIP3   OH239373   0.086   1.374  12.168 -0.0235  0.8870 -0.3132
 5961TIP3    H139374   0.140   1.302  12.201 -0.5284 -0.3575 -2.0979
 5961TIP3    H239375   0.031   1.334  12.101 -0.6003  2.8671 -1.0757
 5962TIP3   OH239376   6.354   5.671   5.400  0.1383  0.4002 -0.0270
 5962TIP3    H139377   6.326   5.635   5.484  1.3767 -0.7185 -0.0543
 5962TIP3    H239378   6.392   5.596   5.353 -0.8958  0.9099 -1.7624
 5963TIP3   OH239379   4.293   2.369  15.873 -0.4779 -0.4115  0.3673
 5963TIP3    H139380   4.263   2.341  15.786  1.2817  0.9634 -0.7482
 5963TIP3    H239381   4.252   2.306  15.933 -1.4748 -1.6248 -1.4586
 5964TIP3   OH239382   2.016   1.995   7.352  0.1597 -0.3715  0.0354
 5964TIP3    H139383   2.077   1.968   7.422  2.0270  1.7541 -0.6510
 5964TIP3    H239384   2.049   1.949   7.274 -0.6403 -1.0965  0.1108
 5965TIP3   OH239385   2.676   4.541  14.728  0.2147 -0.1018  0.1042
 5965TIP3    H139386   2.727   4.567  14.805 -1.1546  0.5472  0.8397
 5965TIP3    H239387   2.649   4.624  14.689  0.9639 -0.4255 -1.1585
 5966TIP3   OH239388   6.317   6.389  13.167 -0.2491  0.2638  0.1485
 5966TIP3    H139389   6.340   6.426  13.081 -3.5779 -1.7292 -1.8525
 5966TIP3    H239390   6.237   6.437  13.192 -0.7405 -0.8968  0.8423
 5967TIP3   OH239391   3.068   3.772  13.025  0.1651 -0.1528  0.2316
 5967TIP3    H139392   3.113   3.843  13.070  0.0720 -0.3916  0.7120
 5967TIP3    H239393   3.091   3.783  12.933 -1.1688  1.4873  0.0370
 5968TIP3   OH239394   1.416   1.621  11.175  0.7270  0.7789 -0.2804
 5968TIP3    H139395   1.351   1.638  11.108 -1.4917 -1.8143  0.9778
 5968TIP3    H239396   1.445   1.531  11.159  0.9409  0.4684  1.5672
 5969TIP3   OH239397   6.676   4.228   0.388  0.3794 -0.4039 -0.6288
 5969TIP3    H139398   6.612   4.214   0.318  1.9876 -2.6303 -1.7939
 5969TIP3    H239399   6.627   4.211   0.468 -0.3204 -3.3415 -1.5487
 5970TIP3   OH239400   3.372   1.666   0.896 -0.4381 -0.0659 -0.0525
 5970TIP3    H139401   3.453   1.682   0.847 -0.3863 -0.3993 -0.0802
 5970TIP3    H239402   3.397   1.677   0.987 -0.3659 -0.1390 -0.0628
 5971TIP3   OH239403   1.407   0.375  12.321  0.0594  0.0202 -0.1814
 5971TIP3    H139404   1.462   0.339  12.252 -0.6258  0.4911 -0.9923
 5971TIP3    H239405   1.374   0.458  12.285 -1.1928 -0.2647  0.2502
 5972TIP3   OH239406   5.109   4.716   1.431 -0.2875  0.2251  0.1747
 5972TIP3    H139407   5.042   4.686   1.493 -0.6565  0.7885  0.0519
 5972TIP3    H239408   5.105   4.652   1.360 -1.9398  1.1978 -0.6864
 5973TIP3   OH239409   4.082   4.234  11.720 -0.2851 -0.4687  0.6303
 5973TIP3    H139410   4.145   4.198  11.783 -0.4355  0.5619  1.3936
 5973TIP3    H239411   4.008   4.173  11.723 -0.5192 -0.1526  1.8746
 5974TIP3   OH239412   0.632   4.049  14.168 -0.3875  0.4588 -0.6941
 5974TIP3    H139413   0.699   4.111  14.139 -0.0152  0.0748 -0.6685
 5974TIP3    H239414   0.588   4.093  14.241  0.6618  0.2100  0.0987
 5975TIP3   OH239415   3.207   0.741   2.467  0.5908 -0.3060  0.4442
 5975TIP3    H139416   3.281   0.742   2.407  2.1071 -3.2973  2.0038
 5975TIP3    H239417   3.130   0.744   2.411  1.7478  3.2791 -1.2276
 5976TIP3   OH239418   2.078   2.258  13.495 -0.1589  0.6503 -0.6087
 5976TIP3    H139419   2.076   2.353  13.506 -1.5269  0.5428  0.2299
 5976TIP3    H239420   1.987   2.231  13.502  0.2650 -0.7836 -0.3770
 5977TIP3   OH239421   0.460   6.176   6.587 -0.6942 -0.2684  0.0810
 5977TIP3    H139422   0.458   6.081   6.601  0.8828 -0.5234 -1.2245
 5977TIP3    H239423   0.377   6.207   6.625 -0.6287 -1.9645  1.7791
 5978TIP3   OH239424   3.451   0.141   2.025 -0.7956  0.0871  0.0568
 5978TIP3    H139425   3.468   0.214   1.964 -0.9426  0.3452  0.3216
 5978TIP3    H239426   3.500   0.165   2.104 -1.5653  0.3334  0.4646
 5979TIP3   OH239427   4.714   4.833   2.469 -0.0701  0.4178 -0.4132
 5979TIP3    H139428   4.776   4.762   2.485  0.0555  0.2663 -1.5151
 5979TIP3    H239429   4.723   4.853   2.376 -0.2236  1.7741 -0.1597
 5980TIP3   OH239430   0.499   6.032  17.030  0.3995  0.2829  0.0976
 5980TIP3    H139431   0.514   6.060  17.121  0.1077 -0.2261  0.3087
 5980TIP3    H239432   0.571   5.972  17.012  0.2697  0.1240  0.1069
 5981TIP3   OH239433   5.683   0.411  17.576 -0.2620  0.4573 -0.2049
 5981TIP3    H139434   5.672   0.498  17.615  0.4390  0.5500 -0.2042
 5981TIP3    H239435   5.668   0.425  17.483  1.6262  0.9444 -0.4700
 5982TIP3   OH239436   6.530   0.287  12.399 -0.4377 -0.9347 -0.1600
 5982TIP3    H139437   6.535   0.278  12.494  1.2911  0.1882 -0.0901
 5982TIP3    H239438   6.622   0.286  12.370 -0.8641  0.0111 -1.6735
 5983TIP3   OH239439   1.260   6.086   4.982  0.0031 -0.1206  0.4177
 5983TIP3    H139440   1.247   6.139   4.903 -0.1089 -1.7752 -0.7191
 5983TIP3    H239441   1.172   6.076   5.018 -0.2444 -1.0285 -0.3932
 5984TIP3   OH239442   1.710   1.143  16.722 -0.0709 -0.6673  0.5231
 5984TIP3    H139443   1.663   1.216  16.761 -3.1926 -2.6863  0.9582
 5984TIP3    H239444   1.800   1.174  16.713 -0.7873  2.4649  2.4678
 5985TIP3   OH239445   5.096   4.605   5.934 -0.0539  0.4667  0.6700
 5985TIP3    H139446   5.118   4.638   6.021 -0.7833  2.2919  0.1972
 5985TIP3    H239447   5.181   4.577   5.897  0.6191  1.8530  1.1023
 5986TIP3   OH239448   1.418   5.701   3.957 -0.0913  0.1315  0.2617
 5986TIP3    H139449   1.359   5.670   3.888 -0.4619  2.2075 -0.4384
 5986TIP3    H239450   1.506   5.691   3.919 -0.0594 -1.4778  0.6856
 5987TIP3   OH239451   2.128   2.876   4.510 -0.0022 -0.0393  0.0031
 5987TIP3    H139452   2.108   2.826   4.431 -1.0226 -0.9254  0.8009
 5987TIP3    H239453   2.046   2.918   4.534  0.7243  1.6932 -0.3903
 5988TIP3   OH239454   1.222   0.827  12.052  0.4393 -0.2401  0.9662
 5988TIP3    H139455   1.225   0.732  12.045 -0.0332 -0.3119  1.5911
 5988TIP3    H239456   1.309   0.857  12.027  0.1898 -0.7333 -0.6095
 5989TIP3   OH239457   0.618   5.154  12.158 -0.0052  0.1087 -0.1657
 5989TIP3    H139458   0.645   5.063  12.173  0.7617  0.5464  1.2921
 5989TIP3    H239459   0.537   5.163  12.208  0.9300  0.7282  1.2957
 5990TIP3   OH239460   4.090   2.838  11.189  0.1631 -0.2621 -0.1099
 5990TIP3    H139461   4.054   2.768  11.243  1.8483 -1.0233  0.1046
 5990TIP3    H239462   4.087   2.916  11.246  0.5342 -0.7228  0.5616
 5991TIP3   OH239463   6.257   6.646   0.049  0.7614  0.5932  0.1606
 5991TIP3    H139464   6.316   6.611   0.116 -0.1491 -0.2867  0.5168
 5991TIP3    H239465   6.199   6.706   0.097  0.7838  0.7666 -0.0266
 5992TIP3   OH239466   5.231   4.157  11.561  0.4624  0.1105 -0.0736
 5992TIP3    H139467   5.193   4.073  11.536 -0.8024  0.5698  0.2192
 5992TIP3    H239468   5.281   4.139  11.640 -1.0820 -0.1027  0.8864
 5993TIP3   OH239469   2.467   2.835  12.593 -0.0756  0.3048 -0.3528
 5993TIP3    H139470   2.451   2.911  12.537  0.7257  1.7293  1.2655
 5993TIP3    H239471   2.387   2.826  12.644 -0.1190  0.1491 -0.4492
 5994TIP3   OH239472   5.441   0.987  12.280  0.9842 -0.0075  0.2262
 5994TIP3    H139473   5.504   1.034  12.226  0.0555 -1.2003 -2.0558
 5994TIP3    H239474   5.395   1.055  12.328  2.1010  1.0931 -0.2211
 5995TIP3   OH239475   1.617   0.478   1.935 -0.3245  1.0579  0.0146
 5995TIP3    H139476   1.577   0.495   2.020  1.1807  0.1551  0.9560
 5995TIP3    H239477   1.705   0.516   1.942 -0.6660  2.3190 -1.7106
 5996TIP3   OH239478   1.664   4.991   0.046  0.4991  0.4914 -0.2146
 5996TIP3    H139479   1.743   4.940   0.061  0.8919  1.2153  0.2405
 5996TIP3    H239480   1.601   4.959   0.111  1.0707  1.2523  0.7403
 5997TIP3   OH239481   2.954   2.471   4.178 -0.1862 -0.9035 -0.4196
 5997TIP3    H139482   3.003   2.518   4.109  0.3753 -1.4314 -0.3919
 5997TIP3    H239483   2.925   2.540   4.237  1.0295 -0.6101 -0.1289
 5998TIP3   OH239484   0.678   1.192   3.396  0.7286  0.6739 -0.2941
 5998TIP3    H139485   0.591   1.157   3.373  0.0698  2.3683 -0.5603
 5998TIP3    H239486   0.683   1.185   3.491 -0.1641  1.4962 -0.1645
 5999TIP3   OH239487   5.964   4.942  15.983  0.2598  0.7624 -0.2559
 5999TIP3    H139488   5.996   5.029  16.005 -1.2154  1.2871 -0.0950
 5999TIP3    H239489   5.871   4.943  16.006 -0.3910 -0.0226 -2.5597
 6000TIP3   OH239490   2.922   4.223  12.403  0.2771 -1.0200  0.1099
 6000TIP3    H139491   2.900   4.264  12.486 -0.2309 -1.5534  0.2471
 6000TIP3    H239492   2.838   4.215  12.357  0.1588 -3.0231  0.6019
 6001TIP3   OH239493   4.121   4.829   4.641 -0.0206 -0.1449 -0.1952
 6001TIP3    H139494   4.213   4.856   4.634  0.1985 -1.2167 -1.9757
 6001TIP3    H239495   4.103   4.832   4.735  2.0924 -0.7239  0.2964
 6002TIP3   OH239496   2.149   0.840  12.419  0.1425 -0.2333  0.1199
 6002TIP3    H139497   2.086   0.772  12.441 -0.3115 -0.1291 -0.7918
 6002TIP3    H239498   2.176   0.876  12.503  1.0230 -2.0825  0.6801
 6003TIP3   OH239499   1.137   0.392   1.488 -0.3511 -0.0101 -0.6969
 6003TIP3    H139500   1.218   0.407   1.440 -0.1907  0.6055 -0.2450
 6003TIP3    H239501   1.157   0.418   1.578 -1.1110  0.3387 -0.6240
 6004TIP3   OH239502   3.441   0.543  15.196  0.6513 -0.2623 -0.2991
 6004TIP3    H139503   3.535   0.526  15.183  0.4255 -0.1239 -2.4980
 6004TIP3    H239504   3.398   0.474  15.145 -0.4713 -0.2349  0.5773
 6005TIP3   OH239505   3.449   3.710  17.055 -0.2375 -0.1675 -0.4105
 6005TIP3    H139506   3.385   3.776  17.030 -2.4744 -2.1498 -0.3366
 6005TIP3    H239507   3.434   3.695  17.149  1.4186  0.3681 -0.0173
 6006TIP3   OH239508   0.375   1.244   0.107  0.0178  0.6889 -0.3825
 6006TIP3    H139509   0.302   1.253   0.047 -1.0960  1.4641  1.0255
 6006TIP3    H239510   0.337   1.257   0.194  1.4637 -0.8948  0.5568
 6007TIP3   OH239511   4.478   5.047  10.777 -0.2366  1.1070 -0.0704
 6007TIP3    H139512   4.460   4.978  10.714  1.3117  1.5148 -0.9978
 6007TIP3    H239513   4.487   5.001  10.861  1.1751  0.1070 -0.7303
 6008TIP3   OH239514   2.116   5.454  15.630  0.2313 -0.5920  0.3360
 6008TIP3    H139515   2.170   5.377  15.646 -0.0396 -1.1714 -1.3000
 6008TIP3    H239516   2.137   5.514  15.701  4.4741 -0.0057 -1.1591
 6009TIP3   OH239517   2.191   4.959  13.453 -0.3320 -0.2115  0.1644
 6009TIP3    H139518   2.236   4.971  13.536 -0.3947 -1.2263  0.3632
 6009TIP3    H239519   2.121   5.023  13.454  0.2116  0.3891  0.4977
 6010TIP3   OH239520   3.961   2.725  14.882 -0.4452  0.2045 -0.4410
 6010TIP3    H139521   3.885   2.672  14.858 -1.5298  1.7166 -0.5130
 6010TIP3    H239522   4.023   2.712  14.810  0.8342 -3.5861  1.0994
 6011TIP3   OH239523   3.787   5.924  13.656 -0.2052 -0.1244  0.0830
 6011TIP3    H139524   3.797   5.901  13.749 -1.0150 -0.6827  0.0406
 6011TIP3    H239525   3.740   5.849  13.618  2.0042 -0.9418 -1.2481
 6012TIP3   OH239526   2.017   4.466   2.249 -0.0385 -0.7628  0.1697
 6012TIP3    H139527   1.950   4.531   2.266  0.6737  0.3134 -0.9789
 6012TIP3    H239528   1.983   4.415   2.176  0.5421  0.0472 -0.6863
 6013TIP3   OH239529   2.490   4.765   2.705  0.1167  0.2982 -0.1102
 6013TIP3    H139530   2.553   4.765   2.633  0.3130  0.0177  0.0564
 6013TIP3    H239531   2.444   4.848   2.698 -0.1942  0.0665 -0.8453
 6014TIP3   OH239532   6.384   0.914   2.300  0.4406  0.3550  1.0056
 6014TIP3    H139533   6.362   0.997   2.256 -1.6801  0.5221  2.1949
 6014TIP3    H239534   6.365   0.847   2.235 -0.0385  0.7116  0.7681
 6015TIP3   OH239535   6.156   0.577  11.755 -0.7324  0.2896 -0.8533
 6015TIP3    H139536   6.105   0.504  11.718 -0.0983 -1.3242  1.2632
 6015TIP3    H239537   6.247   0.557  11.733 -0.3833 -0.4886  1.0467
 6016TIP3   OH239538   1.635   5.286   4.977 -0.5194  0.5569  0.1346
 6016TIP3    H139539   1.582   5.257   4.903 -0.7184  1.0324  0.0849
 6016TIP3    H239540   1.721   5.248   4.962 -0.3786  1.1799 -0.6793
 6017TIP3   OH239541   2.800   3.650   3.032 -0.2635 -0.9418  0.0464
 6017TIP3    H139542   2.741   3.644   3.107 -0.0715 -2.5816  0.1082
 6017TIP3    H239543   2.887   3.639   3.070 -0.0660 -0.5299 -0.2793
 6018TIP3   OH239544   3.108   1.400   5.011 -0.0046 -0.7225 -0.2728
 6018TIP3    H139545   3.075   1.486   5.039  0.0426 -1.0626  0.8583
 6018TIP3    H239546   3.068   1.338   5.072  0.5252 -1.4422 -0.6457
 6019TIP3   OH239547   0.920   4.523  12.952  0.3054  0.3038 -0.5315
 6019TIP3    H139548   0.829   4.515  12.978  0.6944 -1.7935  0.4116
 6019TIP3    H239549   0.922   4.492  12.861 -0.1213  1.8125 -1.0790
 6020TIP3   OH239550   2.173   5.056  15.427  0.4094  0.1958 -0.3122
 6020TIP3    H139551   2.230   4.983  15.451  0.7747  0.2751 -0.9173
 6020TIP3    H239552   2.201   5.080  15.339 -0.2001  0.5926 -0.4007
 6021TIP3   OH239553   0.602   6.654   3.878 -0.2256 -0.1576  0.1298
 6021TIP3    H139554   0.546   6.731   3.870  0.2922  0.4602  1.8085
 6021TIP3    H239555   0.684   6.688   3.915  1.0198 -1.1372 -1.5789
 6022TIP3   OH239556   1.432   1.493   1.484  0.3974  0.1883  0.1013
 6022TIP3    H139557   1.522   1.501   1.517  0.5092 -2.1103  0.5306
 6022TIP3    H239558   1.379   1.480   1.562 -0.3128  1.3914 -0.1652
 6023TIP3   OH239559   0.195   3.002   2.288 -0.0252  0.8238  0.0721
 6023TIP3    H139560   0.288   3.004   2.266 -0.0106 -0.0597  0.0038
 6023TIP3    H239561   0.153   2.961   2.212 -0.0899 -1.4153  1.2392
 6024TIP3   OH239562   2.568   4.440   4.142 -0.2213  0.1653  0.3880
 6024TIP3    H139563   2.646   4.460   4.089 -0.7237  2.0362  0.2961
 6024TIP3    H239564   2.530   4.525   4.162 -3.2929 -0.7176 -1.0851
 6025TIP3   OH239565   2.905   3.707  13.732  0.1058 -0.0075 -0.7070
 6025TIP3    H139566   2.859   3.792  13.735  0.7203  0.3374  2.0586
 6025TIP3    H239567   2.972   3.715  13.799  1.7739 -1.8774 -2.0698
 6026TIP3   OH239568   2.150   2.032  11.884 -0.4581  0.1427  0.1652
 6026TIP3    H139569   2.219   1.975  11.851 -1.2644  0.3709 -2.0671
 6026TIP3    H239570   2.186   2.121  11.875  0.0801  0.1416  1.8890
 6027TIP3   OH239571   1.429   3.130  16.294  0.0672  0.3657  0.1343
 6027TIP3    H139572   1.463   3.140  16.383  0.1313 -0.4979  0.2187
 6027TIP3    H239573   1.450   3.039  16.271 -1.8674 -0.1090  0.0636
 6028TIP3   OH239574   3.424   6.297   4.616 -0.4980  1.1409 -0.3673
 6028TIP3    H139575   3.394   6.340   4.536  0.8658 -0.1377 -1.6341
 6028TIP3    H239576   3.411   6.204   4.600  1.5041  0.7222  0.1050
 6029TIP3   OH239577   0.674   0.761   2.502 -0.1619  0.0760 -0.0361
 6029TIP3    H139578   0.672   0.690   2.438 -0.4610 -0.6528  0.7579
 6029TIP3    H239579   0.587   0.759   2.542  0.1526  0.2442  0.6760
 6030TIP3   OH239580   0.663   6.138  13.800  0.4549 -0.2990  0.4048
 6030TIP3    H139581   0.755   6.119  13.782  0.9367  2.1662  0.0244
 6030TIP3    H239582   0.635   6.193  13.727 -0.6594  0.8445  1.6389
 6031TIP3   OH239583   0.890   4.883   4.226 -0.1568 -0.0782 -0.1340
 6031TIP3    H139584   0.984   4.904   4.226 -0.8375  3.5626 -1.3693
 6031TIP3    H239585   0.880   4.821   4.154  1.2894 -0.5998  0.0698
 6032TIP3   OH239586   3.159   0.923  11.927  0.4167  0.2066 -0.0606
 6032TIP3    H139587   3.114   0.979  11.990 -0.3042 -0.3738 -0.0595
 6032TIP3    H239588   3.117   0.838  11.935 -1.0081  0.5562 -2.6343
 6033TIP3   OH239589   1.287   5.828  11.042  0.0872  0.2439  0.4632
 6033TIP3    H139590   1.256   5.851  11.130  0.4102  3.2474 -0.0922
 6033TIP3    H239591   1.276   5.908  10.991 -0.1969 -1.4196 -2.3175
 6034TIP3   OH239592   1.994   0.394   1.827 -0.2586  0.2409  0.9181
 6034TIP3    H139593   1.970   0.484   1.849 -1.4254 -0.1239  1.2368
 6034TIP3    H239594   1.940   0.340   1.885  0.3674 -0.6734  0.6820
 6035TIP3   OH239595   5.304   2.656  12.193 -0.5224  0.1055  0.5343
 6035TIP3    H139596   5.225   2.608  12.215 -0.9909 -0.1234 -1.4846
 6035TIP3    H239597   5.338   2.613  12.115  1.3964  0.4402  1.1313
 6036TIP3   OH239598   0.735   1.603   6.268 -0.0614 -0.0940 -0.4357
 6036TIP3    H139599   0.798   1.597   6.340  0.1003  0.3564 -0.5351
 6036TIP3    H239600   0.650   1.588   6.309  0.0069  0.3994 -0.1025
 6037TIP3   OH239601   2.375   3.345  12.269  0.7982 -0.1840  0.1067
 6037TIP3    H139602   2.384   3.314  12.359  1.8697 -0.2156  0.0031
 6037TIP3    H239603   2.464   3.344  12.234  0.4832  0.4226 -0.7601
 6038TIP3   OH239604   1.927   5.963  16.159  0.1788 -0.3251  0.0379
 6038TIP3    H139605   1.892   5.951  16.071  0.9512  2.1382 -0.6899
 6038TIP3    H239606   1.993   5.895  16.169 -0.5527 -1.1901 -0.9298
 6039TIP3   OH239607   3.848   4.748  14.999 -0.8434 -0.1511 -0.0004
 6039TIP3    H139608   3.851   4.663  14.954  3.5785 -0.5220  0.4925
 6039TIP3    H239609   3.863   4.812  14.929  0.2749 -0.2418  0.1286
 6040TIP3   OH239610   0.187   1.270   6.029  0.3170 -0.7078 -0.2396
 6040TIP3    H139611   0.224   1.346   5.985 -0.0048 -0.8390 -0.7411
 6040TIP3    H239612   0.264   1.216   6.050  0.5988  0.0294  0.6657
 6041TIP3   OH239613   5.402   3.789  13.871  0.3269  0.1616 -0.3977
 6041TIP3    H139614   5.313   3.757  13.885  0.3063  0.5170  0.3421
 6041TIP3    H239615   5.398   3.882  13.895  1.1406 -0.0713  0.7354
 6042TIP3   OH239616   6.713   2.122   3.934 -0.2630  0.3371  0.8943
 6042TIP3    H139617   6.793   2.074   3.956 -0.7830 -0.7268  0.5525
 6042TIP3    H239618   6.734   2.213   3.953  1.3100  0.2009  0.0313
 6043TIP3   OH239619   4.641   0.539  16.940 -0.4350 -0.2524  0.3773
 6043TIP3    H139620   4.692   0.505  16.868  0.4651  3.1336 -0.7740
 6043TIP3    H239621   4.693   0.520  17.018  1.1339  0.4389 -0.4538
 6044TIP3   OH239622   4.505   1.542   6.218  0.0494 -0.0463 -0.0932
 6044TIP3    H139623   4.527   1.483   6.291  1.2167  0.1283 -0.2850
 6044TIP3    H239624   4.586   1.549   6.168 -0.4014  0.8193 -0.7216
 6045TIP3   OH239625   1.548   0.242   1.799  0.0511  0.1925 -0.3717
 6045TIP3    H139626   1.587   0.324   1.830 -0.9801  0.9751 -1.0766
 6045TIP3    H239627   1.473   0.228   1.857  0.6011 -0.6309  0.1693
 6046TIP3   OH239628   4.595   4.105  16.773  0.6749  0.0805 -0.3041
 6046TIP3    H139629   4.653   4.075  16.703  0.9715 -1.7018  0.6414
 6046TIP3    H239630   4.645   4.091  16.853 -0.1784  0.7709  0.3706
 6047TIP3   OH239631   2.682   6.085   4.503  0.3722  0.5867  0.1191
 6047TIP3    H139632   2.659   6.083   4.596 -0.3753 -0.0013 -0.0711
 6047TIP3    H239633   2.776   6.069   4.501  0.5118  1.2462  0.8051
 6048TIP3   OH239634   0.154   2.984  12.263 -0.7599  0.1816  0.1710
 6048TIP3    H139635   0.247   2.959  12.266 -0.5008  0.9435 -0.9300
 6048TIP3    H239636   0.110   2.908  12.225 -0.1222  0.8881 -2.1710
 6049TIP3   OH239637   6.714   2.476  15.293 -0.1603  0.4024  0.0924
 6049TIP3    H139638   6.675   2.430  15.218  3.1659 -0.4999 -1.2455
 6049TIP3    H239639   6.734   2.563  15.259 -1.5181  1.1030  0.9908
 6050TIP3   OH239640   0.686   1.669  15.467  0.2524 -0.2807  0.3538
 6050TIP3    H139641   0.685   1.760  15.497 -1.4100 -0.4825  1.0175
 6050TIP3    H239642   0.758   1.629  15.514  0.5650  0.5188  0.5809
 6051TIP3   OH239643   4.447   3.686   1.236  0.3438  0.8087  0.3370
 6051TIP3    H139644   4.447   3.765   1.183  0.1552  1.4717  1.2851
 6051TIP3    H239645   4.382   3.703   1.304  1.1853  0.3699  1.2942
 6052TIP3   OH239646   2.067   5.727  16.154 -0.2695  0.4732 -0.4256
 6052TIP3    H139647   2.004   5.657  16.140  0.3436  0.3188 -2.7421
 6052TIP3    H239648   2.150   5.682  16.171 -0.1721  0.6488 -0.4272
 6053TIP3   OH239649   0.633   3.099   0.512 -0.6641 -0.5175  0.5841
 6053TIP3    H139650   0.670   3.130   0.429  0.8363 -0.9080  1.0760
 6053TIP3    H239651   0.595   3.013   0.491  2.5184 -2.1332  0.8642
 6054TIP3   OH239652   4.038   3.169  13.767 -0.0013 -0.1668 -0.1949
 6054TIP3    H139653   4.021   3.203  13.679  1.4508 -2.4069 -1.4270
 6054TIP3    H239654   4.133   3.160  13.772  0.0324  0.7309  1.9792
 6055TIP3   OH239655   5.763   4.241   1.506 -0.3886 -0.5193 -0.7239
 6055TIP3    H139656   5.669   4.260   1.511 -0.1492  0.4232  1.5101
 6055TIP3    H239657   5.800   4.318   1.464 -0.3994  0.1942  0.5130
 6056TIP3   OH239658   4.576   0.924   0.175  0.0305  0.7473 -0.1332
 6056TIP3    H139659   4.614   1.012   0.173  0.4596  0.6346  1.4538
 6056TIP3    H239660   4.630   0.877   0.239  0.3820 -0.9590 -1.5991
 6057TIP3   OH239661   5.635   1.345   4.627 -0.2455  0.6416 -0.4330
 6057TIP3    H139662   5.649   1.250   4.630  2.7695  0.9904  2.3316
 6057TIP3    H239663   5.572   1.363   4.697 -0.1733  0.7755 -0.4017
 6058TIP3   OH239664   6.073   0.455  15.582 -0.3797  0.1946 -0.6936
 6058TIP3    H139665   6.002   0.449  15.519 -0.4951 -1.6461 -0.4395
 6058TIP3    H239666   6.138   0.391  15.552 -1.0830 -1.8441  1.7853
 6059TIP3   OH239667   3.410   4.327   2.305 -0.3036  0.0396  0.2350
 6059TIP3    H139668   3.477   4.291   2.362 -1.0030 -0.5564  0.6856
 6059TIP3    H239669   3.331   4.276   2.324 -0.7678  0.4068 -0.6328
 6060TIP3   OH239670   2.466   3.366  14.750 -0.4019  0.3212 -0.6929
 6060TIP3    H139671   2.415   3.339  14.827 -2.3632  1.1071 -1.6580
 6060TIP3    H239672   2.423   3.324  14.676  1.6923 -0.7356 -1.3859
 6061TIP3   OH239673   6.161   1.335  14.680  0.1171 -0.0210  0.0594
 6061TIP3    H139674   6.166   1.372  14.768  2.0302 -1.6671  0.7143
 6061TIP3    H239675   6.216   1.393  14.627 -1.9062  1.6236 -0.4019
 6062TIP3   OH239676   1.765   0.813   1.204  0.1612 -0.1067  0.4799
 6062TIP3    H139677   1.769   0.896   1.251  1.4765  0.1895 -0.0988
 6062TIP3    H239678   1.672   0.791   1.202 -0.3688  1.9852 -0.4261
 6063TIP3   OH239679   4.284   5.053   5.477 -0.0437 -0.1995 -0.1502
 6063TIP3    H139680   4.372   5.016   5.483 -0.6877 -1.5924  2.2417
 6063TIP3    H239681   4.235   5.008   5.546 -2.3624  1.2971 -0.7197
 6064TIP3   OH239682   3.671   5.599   1.060  0.0632 -0.0277 -0.1103
 6064TIP3    H139683   3.591   5.575   1.015 -0.5123 -0.6762  1.2033
 6064TIP3    H239684   3.699   5.519   1.105  2.0236 -0.1192 -1.3485
 6065TIP3   OH239685   2.805   6.027   2.853 -0.4949 -0.6026 -0.1304
 6065TIP3    H139686   2.778   6.057   2.940 -0.1363  0.1868 -0.2891
 6065TIP3    H239687   2.847   5.942   2.869  2.0447  0.7465  0.8297
 6066TIP3   OH239688   6.048   3.966   0.380 -0.2402 -0.3432 -0.3176
 6066TIP3    H139689   6.041   3.872   0.363 -1.0856 -0.3317 -0.1020
 6066TIP3    H239690   5.992   4.007   0.313  1.0429  0.1011 -1.1594
 6067TIP3   OH239691   4.688   4.347  17.325 -0.6845  0.3334  0.3868
 6067TIP3    H139692   4.765   4.399  17.347  0.7168 -1.0900 -0.9080
 6067TIP3    H239693   4.618   4.411  17.314  0.0842  1.6127  2.3465
 6068TIP3   OH239694   2.205   1.926   2.445  0.4459  0.2448  0.6770
 6068TIP3    H139695   2.175   2.016   2.434 -0.1822  0.0717  0.9029
 6068TIP3    H239696   2.231   1.898   2.357 -0.9622  0.0971  0.2759
 6069TIP3   OH239697   0.455   4.796  12.025 -0.5964  0.1717 -0.3859
 6069TIP3    H139698   0.504   4.869  11.987 -0.7052  0.6026  0.2772
 6069TIP3    H239699   0.427   4.829  12.110 -2.5408  0.1433 -0.9785
 6070TIP3   OH239700   5.745   4.473  16.856 -0.1071  0.2057 -0.1637
 6070TIP3    H139701   5.814   4.523  16.900  0.6485 -1.5454  0.7786
 6070TIP3    H239702   5.780   4.456  16.769  0.9490 -1.1046  0.4708
 6071TIP3   OH239703   2.749   2.137   0.570  0.3337 -0.5882  0.3491
 6071TIP3    H139704   2.679   2.087   0.612  1.1571 -1.9248  0.1942
 6071TIP3    H239705   2.731   2.129   0.476  0.6752 -0.9372  0.3094
 6072TIP3   OH239706   4.921   5.317   3.463  0.2240 -0.6537  0.7244
 6072TIP3    H139707   4.996   5.334   3.406 -0.6246  1.3100  0.1027
 6072TIP3    H239708   4.958   5.269   3.537  2.3875  1.3735  1.0689
 6073TIP3   OH239709   6.405   0.690   6.123  0.1257 -0.1203 -0.1489
 6073TIP3    H139710   6.411   0.601   6.158 -1.9620 -0.3257 -0.1573
 6073TIP3    H239711   6.372   0.678   6.034  0.6708  0.6355 -0.4627
 6074TIP3   OH239712   2.020   2.650   3.404 -0.3503 -0.1461  0.0531
 6074TIP3    H139713   1.994   2.721   3.462  0.1390 -1.0544  1.4339
 6074TIP3    H239714   2.029   2.691   3.318 -0.9042  1.2722  0.6432
 6075TIP3   OH239715   6.239   3.846   6.184  0.3151 -0.1407  0.6090
 6075TIP3    H139716   6.210   3.787   6.114  1.5651  0.1861 -0.2086
 6075TIP3    H239717   6.187   3.926   6.171 -0.5970 -0.6390  1.0565
 6076TIP3   OH239718   3.763   3.172  15.256 -0.0603  0.0787 -0.0831
 6076TIP3    H139719   3.723   3.219  15.183 -2.1592  0.7936  1.4260
 6076TIP3    H239720   3.855   3.165  15.232 -0.3889  1.6143 -2.0801
 6077TIP3   OH239721   6.304   5.755   4.565  0.5064  0.2415 -0.4292
 6077TIP3    H139722   6.223   5.708   4.581 -0.4939  1.9322 -0.2361
 6077TIP3    H239723   6.364   5.690   4.528 -1.2200 -0.8322 -1.4264
 6078TIP3   OH239724   2.995   6.412  15.365  0.8092  0.5215  0.0209
 6078TIP3    H139725   2.904   6.382  15.358  0.8293  0.7732 -1.5492
 6078TIP3    H239726   2.998   6.457  15.450 -0.0185 -1.0967  0.9674
 6079TIP3   OH239727   1.330   5.221   5.403 -0.0981  0.3021 -0.2219
 6079TIP3    H139728   1.248   5.200   5.358 -0.4867 -0.1480  0.6678
 6079TIP3    H239729   1.386   5.258   5.335 -0.0747 -1.8684 -1.4775
 6080TIP3   OH239730   2.327   2.946  15.318  0.3859 -0.1447 -0.3423
 6080TIP3    H139731   2.323   2.907  15.231  1.1402 -1.0568  0.0098
 6080TIP3    H239732   2.281   2.884  15.374  1.1120 -0.2682  0.1332
 6081TIP3   OH239733   5.129   3.886   0.111 -0.0697  0.1379  0.1795
 6081TIP3    H139734   5.091   3.904   0.024  1.0755 -1.2050 -0.6386
 6081TIP3    H239735   5.068   3.823   0.150  0.2675 -0.5035 -0.3212
 6082TIP3   OH239736   1.741   1.977  13.880  0.3418 -0.5095 -0.1713
 6082TIP3    H139737   1.693   1.911  13.830 -0.4751 -0.5397  0.6221
 6082TIP3    H239738   1.673   2.032  13.919  0.9455 -0.4825  0.8887
 6083TIP3   OH239739   5.727   1.452   1.750  0.4520  0.2229 -0.5583
 6083TIP3    H139740   5.803   1.509   1.746  0.4992  0.2397  0.4253
 6083TIP3    H239741   5.715   1.434   1.843 -0.2566 -0.4364 -0.7665
 6084TIP3   OH239742   3.920   2.953  15.010  0.7290 -0.3113 -0.2445
 6084TIP3    H139743   3.952   2.875  14.965 -0.2045 -0.2383 -1.0859
 6084TIP3    H239744   3.827   2.936  15.023  0.8402 -0.0049  1.0166
 6085TIP3   OH239745   0.448   4.087   5.246 -0.0620  0.6123  0.6429
 6085TIP3    H139746   0.485   4.163   5.202  1.0214 -0.1205  0.2644
 6085TIP3    H239747   0.424   4.028   5.175 -2.0090  1.0555  0.8701
 6086TIP3   OH239748   2.874   6.602  15.609 -0.0609 -0.0493 -0.0950
 6086TIP3    H139749   2.787   6.564  15.617  0.4757 -1.0902  1.3105
 6086TIP3    H239750   2.921   6.571  15.687  1.1996  1.4554 -0.1896
 6087TIP3   OH239751   1.751   1.816  15.057  0.1595 -0.1393 -0.3781
 6087TIP3    H139752   1.756   1.871  14.979 -0.6667  0.2926 -0.1339
 6087TIP3    H239753   1.661   1.824  15.087  0.3741 -0.5811  0.4246
 6088TIP3   OH239754   6.157   4.468  11.539  0.2462 -0.1596  0.1509
 6088TIP3    H139755   6.078   4.495  11.492  0.1826  2.4360  1.5760
 6088TIP3    H239756   6.224   4.529  11.509  0.5724  0.5597  2.2226
 6089TIP3   OH239757   0.981   1.962   4.364  0.3553 -0.6722  0.1234
 6089TIP3    H139758   0.992   1.988   4.273 -0.8740 -0.1631  0.1094
 6089TIP3    H239759   0.953   2.041   4.409 -0.8710 -1.3403  0.5793
 6090TIP3   OH239760   1.299   4.332  16.231  0.3970  0.8042 -0.4997
 6090TIP3    H139761   1.367   4.394  16.257 -0.6283  1.8788 -0.2848
 6090TIP3    H239762   1.265   4.297  16.314  1.9989 -1.2884 -0.6215
 6091TIP3   OH239763   0.018   3.340   2.464 -0.8600  0.2522  0.1956
 6091TIP3    H139764   0.036   3.247   2.473 -2.6044 -0.0118  1.4646
 6091TIP3    H239765  -0.042   3.347   2.391 -0.5695  0.4134 -0.0311
 6092TIP3   OH239766   1.800   0.327   3.163 -0.1453  0.4846 -0.4499
 6092TIP3    H139767   1.735   0.279   3.214 -0.5439 -1.5246 -2.6653
 6092TIP3    H239768   1.755   0.408   3.138  0.0157  1.4547  2.1091
 6093TIP3   OH239769   1.791   2.713  12.022  0.2535  0.0353  0.3745
 6093TIP3    H139770   1.705   2.738  11.989  1.0582  2.6486  0.0026
 6093TIP3    H239771   1.781   2.622  12.050 -1.9797 -0.4734 -1.7746
 6094TIP3   OH239772   2.617   1.002  13.849 -0.4253  0.3921 -0.1192
 6094TIP3    H139773   2.536   1.015  13.899 -0.8867 -1.4604 -0.2874
 6094TIP3    H239774   2.645   0.913  13.874  0.3316  0.1459 -1.7568
 6095TIP3   OH239775   2.181   4.936   4.952  0.0609  0.2447 -0.0721
 6095TIP3    H139776   2.137   4.963   4.872 -1.4786  1.2987  1.0643
 6095TIP3    H239777   2.234   4.861   4.927 -2.5844 -1.2715 -1.5043
 6096TIP3   OH239778   3.236   6.706  15.101 -0.0745 -0.0776  0.6926
 6096TIP3    H139779   3.197   6.773  15.157 -0.0095 -0.4994  1.2608
 6096TIP3    H239780   3.326   6.698  15.132  0.6403  1.2211 -0.9231
 6097TIP3   OH239781   4.166   5.759   0.518  0.1998 -0.4250  0.4413
 6097TIP3    H139782   4.117   5.703   0.458  0.1298 -2.0904  1.9679
 6097TIP3    H239783   4.178   5.705   0.596  3.1259  0.4608  0.7137
 6098TIP3   OH239784   6.611   1.237   5.437 -0.3569 -0.0799 -0.3302
 6098TIP3    H139785   6.588   1.323   5.472 -0.3987 -0.9948  2.0940
 6098TIP3    H239786   6.534   1.211   5.386 -1.0913  0.5751  0.4063
 6099TIP3   OH239787   4.001   6.007  17.081  0.1561 -0.4563  0.0214
 6099TIP3    H139788   3.948   5.928  17.090 -1.7154  0.7669  0.2500
 6099TIP3    H239789   3.970   6.065  17.150 -2.2649  2.4578 -3.1745
 6100TIP3   OH239790   5.532   4.340   3.615 -0.4989  0.1339  0.4763
 6100TIP3    H139791   5.547   4.305   3.703 -1.0886  0.8654  0.8871
 6100TIP3    H239792   5.597   4.298   3.560  0.1372 -0.0351  1.3474
 6101TIP3   OH239793   2.432   6.540   3.957  0.2010 -0.1082 -0.4333
 6101TIP3    H139794   2.514   6.536   4.008 -0.1845 -2.0092  0.1439
 6101TIP3    H239795   2.365   6.561   4.022  0.1948  1.4675 -0.9116
 6102TIP3   OH239796   5.179   0.421  11.208 -0.3358  0.7213  0.6494
 6102TIP3    H139797   5.120   0.480  11.161  0.2176  1.3090  0.6743
 6102TIP3    H239798   5.230   0.378  11.140 -1.0360 -0.0533  0.6105
 6103TIP3   OH239799   0.731   5.382   1.996  0.4462 -0.2810 -1.0734
 6103TIP3    H139800   0.783   5.301   2.000 -0.6677 -1.1552 -2.9257
 6103TIP3    H239801   0.768   5.437   2.065  0.9133 -2.5472  0.6148
 6104TIP3   OH239802   1.250   5.174  15.934  0.2137 -0.6706  0.4591
 6104TIP3    H139803   1.297   5.091  15.946  0.5098 -0.7239 -0.9352
 6104TIP3    H239804   1.159   5.147  15.919  0.2646 -0.7248  0.2503
 6105TIP3   OH239805   2.358   1.195  16.727 -0.4823  0.3292 -0.1306
 6105TIP3    H139806   2.350   1.107  16.690 -0.8415  0.0909  0.5083
 6105TIP3    H239807   2.280   1.241  16.694  0.6233  0.9839 -1.9731
 6106TIP3   OH239808   3.261   2.901  13.099 -0.2589 -0.1524  0.0226
 6106TIP3    H139809   3.177   2.899  13.053 -0.5040 -1.7947  0.4731
 6106TIP3    H239810   3.237   2.900  13.192  0.2334 -1.3245  0.1556
 6107TIP3   OH239811   2.115   1.114   0.834  0.4260 -0.3032 -0.1121
 6107TIP3    H139812   2.053   1.118   0.907 -0.3442  0.8270 -0.7853
 6107TIP3    H239813   2.186   1.058   0.865 -0.0454 -0.1172  1.3688
 6108TIP3   OH239814   0.286   1.499   0.480  0.3226 -0.2386 -0.2754
 6108TIP3    H139815   0.380   1.500   0.501  0.2577 -0.3361  0.0199
 6108TIP3    H239816   0.265   1.590   0.461  0.3734 -0.1442  0.1181
 6109TIP3   OH239817   4.803   3.455  17.345  0.2303  0.0037 -0.1747
 6109TIP3    H139818   4.831   3.468  17.255  0.5618  0.3045 -0.0298
 6109TIP3    H239819   4.735   3.387  17.340  1.6472 -1.4601 -0.4377
 6110TIP3   OH239820   2.238   0.386   3.951  0.2864 -0.1409 -0.6314
 6110TIP3    H139821   2.230   0.424   4.039  1.7139  0.6074 -0.7905
 6110TIP3    H239822   2.307   0.320   3.960  2.1698  1.5666 -1.6386
 6111TIP3   OH239823   2.891   6.481  16.981 -0.4760 -0.2889 -0.0071
 6111TIP3    H139824   2.839   6.519  16.910 -0.4136 -3.0299 -1.6764
 6111TIP3    H239825   2.937   6.555  17.020 -1.0294  1.4222 -2.3928
 6112TIP3   OH239826   5.952   5.020   0.850 -0.0506 -0.3373  0.2490
 6112TIP3    H139827   5.972   4.929   0.872  1.2136 -1.1357 -3.3811
 6112TIP3    H239828   5.869   5.016   0.802 -0.3834  0.5463  0.7300
 6113TIP3   OH239829   3.264   5.951   5.356 -0.3703 -0.0703  0.2624
 6113TIP3    H139830   3.275   5.917   5.445  0.6915  0.1656  0.2397
 6113TIP3    H239831   3.331   5.906   5.305 -0.2252  0.6233 -0.1740
 6114TIP3   OH239832   5.337   5.511  16.345 -0.5202 -0.4370  0.3088
 6114TIP3    H139833   5.301   5.422  16.352 -2.4467  0.1543 -1.0936
 6114TIP3    H239834   5.429   5.502  16.370 -1.2422 -2.3423  2.7068
 6115TIP3   OH239835   6.016   0.689   3.462 -0.0458  0.5532 -0.3064
 6115TIP3    H139836   6.012   0.609   3.514 -1.2384  0.1740 -0.9420
 6115TIP3    H239837   6.043   0.756   3.524 -0.4572 -0.0746  0.5797
 6116TIP3   OH239838   6.041   0.652   1.985 -0.4054  0.2704 -0.6274
 6116TIP3    H139839   6.032   0.584   2.051 -0.6368  0.3988 -0.5281
 6116TIP3    H239840   6.092   0.721   2.028 -0.0109  0.0852 -0.7864
 6117TIP3   OH239841   0.274   1.023  11.665  1.0764  0.6691  0.3539
 6117TIP3    H139842   0.318   1.091  11.715 -0.4204  0.4150  2.1261
 6117TIP3    H239843   0.194   1.065  11.633  0.1129 -0.2022  1.5010
 6118TIP3   OH239844   1.442   3.142   5.409  0.2858  0.2125  0.0319
 6118TIP3    H139845   1.433   3.143   5.314  0.5041 -1.3162 -0.0409
 6118TIP3    H239846   1.371   3.197   5.441 -0.7878 -0.5332 -0.9740
 6119TIP3   OH239847   3.355   3.295   2.622 -0.4193  0.2712  0.1794
 6119TIP3    H139848   3.308   3.264   2.545  1.2875 -0.6181 -0.5496
 6119TIP3    H239849   3.398   3.217   2.657 -0.7795  0.7550  1.7801
 6120TIP3   OH239850   3.696   1.208   3.475  0.1439  0.1519  0.2640
 6120TIP3    H139851   3.634   1.160   3.419 -0.7800  1.9406 -0.3384
 6120TIP3    H239852   3.717   1.147   3.546 -1.2721 -0.9928 -0.2516
 6121TIP3   OH239853   1.377   6.670  14.490 -0.0844  0.3167 -0.1244
 6121TIP3    H139854   1.380   6.712  14.576  1.2206  0.0911 -0.0402
 6121TIP3    H239855   1.429   6.727  14.433 -2.1394  1.2684 -1.1748
 6122TIP3   OH239856   3.076   3.787   6.791 -0.3014  0.0736  0.2807
 6122TIP3    H139857   3.033   3.781   6.877  1.6394  1.2675  1.4269
 6122TIP3    H239858   3.073   3.880   6.770  0.3060 -0.0517 -0.3664
 6123TIP3   OH239859   1.961   3.072   4.721 -0.5057 -0.3516  0.1797
 6123TIP3    H139860   1.902   2.997   4.718 -0.3366 -0.4643 -0.4149
 6123TIP3    H239861   1.909   3.145   4.687  0.1398 -0.7676 -1.8471
 6124TIP3   OH239862   1.234   1.348   5.678 -0.7201  0.0706  0.1660
 6124TIP3    H139863   1.287   1.408   5.625 -1.5368 -0.6134 -1.4917
 6124TIP3    H239864   1.284   1.266   5.679  0.1878  0.5891  2.0745
 6125TIP3   OH239865   0.083   3.403   4.367  0.3619 -0.4822 -0.1793
 6125TIP3    H139866   0.033   3.458   4.308  0.4696 -0.1017  0.0797
 6125TIP3    H239867   0.172   3.405   4.332  0.2804 -0.8288 -0.4071
 6126TIP3   OH239868   6.393   5.977   0.145  0.2537  0.3371  0.8299
 6126TIP3    H139869   6.342   5.949   0.221  0.3188 -0.3736  0.6150
 6126TIP3    H239870   6.345   6.052   0.111 -0.5216 -0.1771  0.7749
 6127TIP3   OH239871   5.273   5.918  16.162 -0.1662  0.5165 -0.1542
 6127TIP3    H139872   5.339   5.860  16.124 -2.5040 -3.8197  1.7387
 6127TIP3    H239873   5.195   5.905  16.108 -0.9812  1.3608  0.7688
 6128TIP3   OH239874   2.297   3.342   2.971 -1.1479  0.6872  0.4029
 6128TIP3    H139875   2.386   3.320   2.998 -0.3334  0.5441 -2.1324
 6128TIP3    H239876   2.241   3.291   3.030  0.3885  0.8098  2.0742
 6129TIP3   OH239877   0.141   3.226  11.556 -0.2196  0.0317 -0.4163
 6129TIP3    H139878   0.110   3.308  11.595  0.0994 -0.5723  1.2019
 6129TIP3    H239879   0.069   3.164  11.568  0.2834 -0.4509  0.2443
 6130TIP3   OH239880   4.557   3.719   0.258 -0.2809 -0.1856 -0.3022
 6130TIP3    H139881   4.545   3.810   0.284  1.0227  0.0336 -0.3952
 6130TIP3    H239882   4.517   3.668   0.328  0.0162  0.4540  0.3424
 6131TIP3   OH239883   0.155   0.302   4.252 -0.2381  0.5540 -0.2300
 6131TIP3    H139884   0.169   0.393   4.227 -0.4392  1.6166  3.0631
 6131TIP3    H239885   0.067   0.301   4.290  1.1457  0.0121  3.3401
 6132TIP3   OH239886   5.655   2.611  14.383 -0.2817 -0.5718  0.3281
 6132TIP3    H139887   5.706   2.538  14.419  2.0639  1.5075  1.4681
 6132TIP3    H239888   5.712   2.687  14.390 -1.3378  0.8904 -3.8394
 6133TIP3   OH239889   6.352   0.337   0.327  0.0918 -0.0567  0.1150
 6133TIP3    H139890   6.285   0.345   0.260 -0.4821 -2.1091  0.3923
 6133TIP3    H239891   6.316   0.383   0.403 -0.9474 -0.9910  0.2066
 6134TIP3   OH239892   5.945   4.211  12.890 -0.2326 -0.1793 -0.3367
 6134TIP3    H139893   5.883   4.265  12.841  0.8557 -0.1697 -1.7885
 6134TIP3    H239894   5.918   4.121  12.872 -0.3710 -0.1609 -0.2212
 6135TIP3   OH239895   5.181   5.446   1.020  0.2247  0.2745  0.1426
 6135TIP3    H139896   5.136   5.496   1.088  0.6035 -0.8955  1.2966
 6135TIP3    H239897   5.126   5.456   0.943 -0.2426  1.6061  0.6197
 6136TIP3   OH239898   5.280   2.001  16.339  0.4609 -0.0022 -1.0169
 6136TIP3    H139899   5.342   2.069  16.310 -0.4239  0.9138 -0.8108
 6136TIP3    H239900   5.221   1.989  16.265 -1.4273  1.9003  0.0790
 6137TIP3   OH239901   3.549   2.496   5.083  0.3267 -0.1209 -0.5779
 6137TIP3    H139902   3.471   2.550   5.067 -0.0572 -0.5171 -0.0737
 6137TIP3    H239903   3.514   2.410   5.106  0.9148 -0.2876 -0.2992
 6138TIP3   OH239904   6.684   2.972   3.844  0.0273 -0.0480 -0.0634
 6138TIP3    H139905   6.751   3.014   3.899 -0.5756  0.8633 -0.0121
 6138TIP3    H239906   6.601   3.001   3.881 -0.4030 -0.9417 -0.3116
 6139TIP3   OH239907   4.104   1.974  14.999  0.1301 -0.4443  0.0522
 6139TIP3    H139908   4.186   1.927  14.987 -0.2467 -0.9409 -0.6079
 6139TIP3    H239909   4.126   2.044  15.061  1.0298 -0.6125 -0.0616
 6140TIP3   OH239910   4.269   4.164  14.568  0.3769 -0.1895 -0.2952
 6140TIP3    H139911   4.337   4.186  14.632 -1.0300  0.6851  0.9458
 6140TIP3    H239912   4.287   4.222  14.494  0.2226  0.9792  0.5556
 6141TIP3   OH239913   3.791   5.165  14.136 -0.1848  0.6552  0.0202
 6141TIP3    H139914   3.716   5.224  14.147 -0.1043  1.0837 -1.4377
 6141TIP3    H239915   3.779   5.128  14.048  1.1322  0.4725 -0.1077
 6142TIP3   OH239916   0.644   0.668  17.034  0.2141  0.5746 -0.5104
 6142TIP3    H139917   0.682   0.755  17.042 -0.2566  0.7802 -0.4532
 6142TIP3    H239918   0.713   0.608  17.064  0.7031  0.8880 -0.9976
 6143TIP3   OH239919   0.561   2.225   3.430  0.1817 -0.1157  0.4087
 6143TIP3    H139920   0.497   2.155   3.418  1.8437 -1.9696  1.7902
 6143TIP3    H239921   0.624   2.213   3.360  1.8783 -1.7182  2.1099
 6144TIP3   OH239922   5.243   3.003  14.517 -0.4680  0.8909 -0.1448
 6144TIP3    H139923   5.330   3.033  14.491  0.1952  0.0297  0.9835
 6144TIP3    H239924   5.201   2.977  14.435  0.4217  1.1095 -0.6830
 6145TIP3   OH239925   6.671   5.002  12.830  0.3864 -0.6280  0.0168
 6145TIP3    H139926   6.661   4.910  12.856  2.1156 -1.0301 -0.6164
 6145TIP3    H239927   6.655   5.052  12.910 -1.8242 -1.3552  0.1128
 6146TIP3   OH239928   4.265   4.445  14.483 -0.2948 -0.4284 -0.0296
 6146TIP3    H139929   4.194   4.394  14.444 -0.8435  0.3847 -0.1058
 6146TIP3    H239930   4.226   4.487  14.559  0.5979 -1.4592  1.0546
 6147TIP3   OH239931   4.430   4.281   3.188  0.0854 -0.4479 -0.2373
 6147TIP3    H139932   4.418   4.232   3.269 -2.5809  0.0164 -0.2458
 6147TIP3    H239933   4.396   4.368   3.208 -0.6586 -0.3402 -1.8255
 6148TIP3   OH239934   6.649   3.123  11.623 -0.7433  0.4740  0.2973
 6148TIP3    H139935   6.627   3.045  11.675  0.7316  0.1672  0.5135
 6148TIP3    H239936   6.570   3.142  11.572 -0.9389 -1.5360 -0.2207
 6149TIP3   OH239937   2.197   6.619  14.531 -0.1693  0.0267  0.0765
 6149TIP3    H139938   2.226   6.625  14.622  2.1202  0.1805 -0.6056
 6149TIP3    H239939   2.257   6.557  14.491 -2.2708 -1.4556 -0.9598
 6150TIP3   OH239940   0.185   3.642  13.285  0.2826  0.0485 -0.0431
 6150TIP3    H139941   0.234   3.670  13.362 -1.7213  1.2747  0.8915
 6150TIP3    H239942   0.165   3.723  13.238 -0.5863 -0.4191 -0.5230
 6151TIP3   OH239943   5.802   5.809   1.153 -0.0368 -0.5050 -0.0299
 6151TIP3    H139944   5.750   5.765   1.086  0.0422 -1.5102  0.5504
 6151TIP3    H239945   5.892   5.780   1.136  0.0399 -0.4377  0.2625
 6152TIP3   OH239946   2.636   6.308   2.584  0.3997 -0.0885  0.5890
 6152TIP3    H139947   2.726   6.295   2.615 -0.3703  0.3636  3.2753
 6152TIP3    H239948   2.644   6.372   2.513  2.2939 -1.0974 -0.1864
 6153TIP3   OH239949   0.591   3.608  14.516 -0.0604 -0.3418 -0.0792
 6153TIP3    H139950   0.553   3.542  14.574 -1.1400  1.4731  1.3775
 6153TIP3    H239951   0.522   3.673  14.505  1.7969  1.9092  0.7429
 6154TIP3   OH239952   5.968   0.082  13.968 -0.4822 -0.1610 -0.0317
 6154TIP3    H139953   6.037   0.020  13.989  0.6423  1.0398 -0.0381
 6154TIP3    H239954   5.917   0.089  14.049  2.8617  3.2360  2.1507
 6155TIP3   OH239955   0.227   2.643  12.220  0.1179  0.0667 -0.3252
 6155TIP3    H139956   0.282   2.721  12.212 -1.1577  0.9004 -1.3793
 6155TIP3    H239957   0.138   2.677  12.224 -0.3904 -1.2994  0.3910
 6156TIP3   OH239958   4.073   3.047  16.027 -0.3450 -0.5735  0.2006
 6156TIP3    H139959   4.099   3.056  16.118  1.8233  0.8928 -0.4789
 6156TIP3    H239960   3.992   3.097  16.020  0.2618  0.5706  1.0350
 6157TIP3   OH239961   2.970   1.915   5.596  0.0011  0.1948  0.1708
 6157TIP3    H139962   2.914   1.985   5.562 -0.3643 -1.0527 -2.0060
 6157TIP3    H239963   3.057   1.936   5.563  0.5975  1.3502  2.3288
 6158TIP3   OH239964   5.497   4.869  15.213 -0.0241 -0.1127 -0.6937
 6158TIP3    H139965   5.490   4.784  15.171  0.6827 -0.3733 -0.3022
 6158TIP3    H239966   5.407   4.896  15.229 -0.2742 -0.4375 -1.5036
 6159TIP3   OH239967   1.660   6.719  12.699 -0.1391 -0.1662  0.5724
 6159TIP3    H139968   1.747   6.733  12.735  0.0771 -3.3459  1.5220
 6159TIP3    H239969   1.675   6.702  12.606 -0.0632  1.6418  0.2099
 6160TIP3   OH239970   3.003   3.245   5.476  0.4633  0.2223 -0.0770
 6160TIP3    H139971   3.071   3.249   5.408  0.0904  0.1120 -0.4572
 6160TIP3    H239972   3.019   3.323   5.530  2.1989 -0.8722  1.0928
 6161TIP3   OH239973   1.078   2.471  15.798  0.0307  0.2092 -0.3025
 6161TIP3    H139974   1.059   2.534  15.868  2.0071  0.6664 -0.1250
 6161TIP3    H239975   1.168   2.445  15.814 -0.3983 -1.8668 -1.0324
 6162TIP3   OH239976   6.328   3.854   5.467 -0.4002  0.0440  0.0592
 6162TIP3    H139977   6.375   3.822   5.390  0.9372  1.1505  0.3753
 6162TIP3    H239978   6.235   3.838   5.447  0.0647 -2.1417 -0.5979
 6163TIP3   OH239979   3.946   5.605  14.854 -0.5233  0.2153 -0.1079
 6163TIP3    H139980   3.861   5.564  14.838  0.5342 -0.7857 -4.1707
 6163TIP3    H239981   3.978   5.564  14.934 -2.3419 -2.0116 -0.4350
 6164TIP3   OH239982   2.192   5.574  14.242 -0.1612  0.0282  0.3176
 6164TIP3    H139983   2.103   5.598  14.215 -0.3046 -1.3995 -0.6215
 6164TIP3    H239984   2.215   5.500  14.185  1.3186 -0.1597  1.1029
 6165TIP3   OH239985   2.817   3.000  13.236  0.5610 -0.3960  0.3849
 6165TIP3    H139986   2.740   3.015  13.291  0.5395  1.3371 -0.0648
 6165TIP3    H239987   2.791   2.929  13.178 -0.3202 -0.5254  0.9182
 6166TIP3   OH239988   3.418   1.689   2.565 -0.4524  0.4349 -0.5326
 6166TIP3    H139989   3.331   1.695   2.525 -0.4143 -0.8640 -0.8351
 6166TIP3    H239990   3.454   1.607   2.532  1.5209  1.6653 -1.6470
 6167TIP3   OH239991   1.961   6.498  14.430 -1.0024 -0.5293  0.6698
 6167TIP3    H139992   1.981   6.433  14.362 -1.2551 -0.4383  0.5065
 6167TIP3    H239993   2.039   6.500  14.485 -0.0394  0.7064 -0.6572
 6168TIP3   OH239994   1.028   1.104   5.518  0.1123  0.2392 -0.4481
 6168TIP3    H139995   0.983   1.152   5.448 -1.0251  1.3253  0.9783
 6168TIP3    H239996   0.976   1.120   5.596  1.7846 -0.2728  0.8350
 6169TIP3   OH239997   3.137   1.411  16.333 -0.1616 -0.0488  0.6444
 6169TIP3    H139998   3.222   1.380  16.302 -0.0948  0.4232  0.3524
 6169TIP3    H239999   3.105   1.468  16.264 -1.2182 -1.0625  0.2670
 6170TIP3   OH240000   2.246   4.218  14.125 -0.2788  0.4975  0.3343
 6170TIP3    H140001   2.257   4.152  14.194  0.9756  0.8194  0.4537
 6170TIP3    H240002   2.238   4.301  14.172 -0.1756  0.6295  0.1192
 6171TIP3   OH240003   0.132   5.468   6.507  0.4277  0.2207  0.3242
 6171TIP3    H140004   0.152   5.555   6.542 -2.3409  1.0580  0.0325
 6171TIP3    H240005   0.174   5.469   6.420 -1.8078  2.4283 -0.8649
 6172TIP3   OH240006   5.687   3.435  14.966 -0.6176  0.3073  0.0509
 6172TIP3    H140007   5.629   3.361  14.946  0.1196  0.1451 -1.6794
 6172TIP3    H240008   5.773   3.407  14.935 -0.0469  1.3784  0.6096
 6173TIP3   OH240009   5.889   6.222   0.335  0.2662  0.3154  0.1241
 6173TIP3    H140010   5.916   6.241   0.425 -0.5180  0.1110  0.4094
 6173TIP3    H240011   5.804   6.265   0.326  0.3039  0.2700 -0.4973
 6174TIP3   OH240012   0.513   1.973  12.150 -0.5777  0.3505  0.2587
 6174TIP3    H140013   0.435   1.945  12.197  0.4023 -0.3255  1.5510
 6174TIP3    H240014   0.568   1.894  12.146 -0.3671  0.5489 -1.5041
 6175TIP3   OH240015   3.942   6.574   6.249  0.1895  0.0887  0.1032
 6175TIP3    H140016   4.000   6.516   6.299  1.9437  0.6537 -1.1650
 6175TIP3    H240017   3.916   6.642   6.311  0.2721 -0.5828  0.8934
 6176TIP3   OH240018   1.381   0.258   2.686 -1.0882 -0.0882 -0.2955
 6176TIP3    H140019   1.320   0.321   2.649 -1.0233  0.0529 -0.1643
 6176TIP3    H240020   1.453   0.311   2.720 -1.4285 -0.1622  0.5713
 6177TIP3   OH240021   0.836   0.773  15.579 -0.1142 -0.1064 -0.3086
 6177TIP3    H140022   0.742   0.792  15.574  0.0559  1.5862  1.5073
 6177TIP3    H240023   0.841   0.678  15.589 -1.5922 -0.2795 -0.9402
 6178TIP3   OH240024   3.977   2.444  12.009  0.3196 -0.3866  0.3357
 6178TIP3    H140025   3.997   2.538  12.008  1.5452 -0.6158  0.8594
 6178TIP3    H240026   3.907   2.433  11.946  0.1443  0.8946  0.2895
 6179TIP3   OH240027   0.635   4.515   1.049 -0.1516  0.4074  0.3618
 6179TIP3    H140028   0.604   4.595   1.007  0.5325  0.2867 -0.4162
 6179TIP3    H240029   0.653   4.456   0.976  0.9326  0.1338  0.8280
 6180TIP3   OH240030   2.891   2.419  16.330  0.1732  0.0593  0.4424
 6180TIP3    H140031   2.809   2.459  16.357 -0.3222 -0.2355 -0.5567
 6180TIP3    H240032   2.867   2.331  16.300  0.2821  0.9939 -2.8123
 6181TIP3   OH240033   1.402   3.694  17.444  0.2951  0.5585 -0.4164
 6181TIP3    H140034   1.351   3.613  17.438  0.6444  0.3285 -0.3052
 6181TIP3    H240035   1.489   3.666  17.472 -0.1068  1.1393  1.6316
 6182TIP3   OH240036   0.748   1.636   4.893  0.3915  0.0976 -0.4139
 6182TIP3    H140037   0.681   1.571   4.874 -0.8426  1.8605 -2.5766
 6182TIP3    H240038   0.793   1.649   4.809  2.4227  0.1210  0.6095
 6183TIP3   OH240039   0.898   0.020  11.727  0.3995  0.4803  0.3107
 6183TIP3    H140040   0.984  -0.013  11.751  0.5440  0.7296  0.1315
 6183TIP3    H240041   0.915   0.101  11.679  0.1274 -0.0844 -0.7757
 6184TIP3   OH240042   4.338   1.466  16.448  0.2305  0.5944 -0.1670
 6184TIP3    H140043   4.407   1.515  16.404  0.4200 -0.1044 -0.6553
 6184TIP3    H240044   4.376   1.380  16.464 -0.0280  0.6597  0.8682
 6185TIP3   OH240045   5.482   4.176   5.186 -0.7666  0.4725  0.5412
 6185TIP3    H140046   5.566   4.207   5.219 -0.3698  0.9564 -0.8627
 6185TIP3    H240047   5.427   4.254   5.184 -0.6263  0.5516 -0.4008
 6186TIP3   OH240048   3.709   1.129  12.997  0.4391 -0.1925 -0.0468
 6186TIP3    H140049   3.663   1.198  12.949  0.3141  0.5481  1.0959
 6186TIP3    H240050   3.731   1.169  13.082  0.2339 -1.6002  0.7066
 6187TIP3   OH240051   6.174   2.957   4.755 -0.2866  0.4679 -0.0239
 6187TIP3    H140052   6.140   2.974   4.667 -0.3981 -1.7430 -0.4522
 6187TIP3    H240053   6.177   3.043   4.796 -1.2634  1.4125 -1.8154
 6188TIP3   OH240054   5.287   6.017   5.470  0.5169  0.2346 -0.6052
 6188TIP3    H140055   5.243   6.004   5.553  2.0752  0.0087  0.2126
 6188TIP3    H240056   5.229   5.977   5.405  0.0295 -0.9765  0.5493
 6189TIP3   OH240057   3.603   3.792   2.916  0.0173  0.4879  0.3254
 6189TIP3    H140058   3.606   3.885   2.936  0.0411  0.5488  0.0410
 6189TIP3    H240059   3.512   3.775   2.890 -0.0607  0.3697  0.6710
 6190TIP3   OH240060   2.637   0.326  10.868  0.0319 -0.4503  0.0659
 6190TIP3    H140061   2.703   0.294  10.928  0.1299 -0.6431 -0.1447
 6190TIP3    H240062   2.682   0.394  10.817 -0.0132 -0.3806  0.1188
 6191TIP3   OH240063   5.272   2.549   2.310  0.0561  0.8740  0.2878
 6191TIP3    H140064   5.347   2.495   2.283  0.0641  0.1130  1.6786
 6191TIP3    H240065   5.232   2.498   2.381 -1.7864  1.2787 -0.4210
 6192TIP3   OH240066   3.966   0.485   1.155 -0.2681  0.1671  0.0877
 6192TIP3    H140067   3.919   0.531   1.086 -2.0492 -1.9514 -0.2296
 6192TIP3    H240068   3.953   0.392   1.135 -1.3794 -0.5700  3.5250
 6193TIP3   OH240069   4.093   2.983   3.899 -0.2903  0.0341  0.0442
 6193TIP3    H140070   4.050   2.979   3.813 -0.2496  0.1573  0.0179
 6193TIP3    H240071   4.100   3.077   3.918 -0.0689  0.0132  0.0655
 6194TIP3   OH240072   0.853   5.144   0.707  0.1329  0.5778 -0.8222
 6194TIP3    H140073   0.769   5.100   0.697 -0.3345  0.6181  2.1347
 6194TIP3    H240074   0.836   5.217   0.766  2.3015  0.2191  0.3905
 6195TIP3   OH240075   1.938   4.784  15.587  0.3628 -0.3076  0.7390
 6195TIP3    H140076   1.872   4.840  15.547  1.1408  0.5618  0.6544
 6195TIP3    H240077   1.976   4.837  15.656 -0.4683 -1.5468  2.2046
 6196TIP3   OH240078   4.155   0.336   2.858 -0.1628  0.5970  0.1951
 6196TIP3    H140079   4.210   0.381   2.922  0.7439  0.9612 -0.8106
 6196TIP3    H240080   4.068   0.336   2.898 -0.0183  2.4861  0.6386
 6197TIP3   OH240081   0.542   3.988  15.171  0.2552 -0.9916  0.0516
 6197TIP3    H140082   0.613   4.050  15.187 -2.3798  1.7714  2.2268
 6197TIP3    H240083   0.484   4.034  15.111 -1.9116 -1.1387  1.9086
 6198TIP3   OH240084   0.307   6.201  12.007 -0.1262  0.1498  0.1085
 6198TIP3    H140085   0.362   6.234  12.078  0.3582 -2.2955  0.9670
 6198TIP3    H240086   0.219   6.198  12.044 -0.2106  0.6821 -0.0482
 6199TIP3   OH240087   5.898   5.536   4.188  0.4149  0.3175 -0.3966
 6199TIP3    H140088   5.882   5.466   4.251  1.5153 -0.0107 -0.4709
 6199TIP3    H240089   5.834   5.603   4.210 -0.4566 -0.5744 -0.1264
 6200TIP3   OH240090   6.117   4.014   4.634  0.1739 -0.5939 -0.2563
 6200TIP3    H140091   6.074   3.928   4.643  1.9153 -1.3668  1.1006
 6200TIP3    H240092   6.117   4.050   4.722  0.7027  0.1985 -0.5792
 6201TIP3   OH240093   2.718   1.797  14.170 -0.1881  0.4008 -0.0706
 6201TIP3    H140094   2.796   1.852  14.181  0.0797 -0.0053  0.0695
 6201TIP3    H240095   2.721   1.770  14.078 -0.6398  1.0925 -0.3012
 6202TIP3   OH240096   5.558   0.046   2.019 -0.2400 -0.0975  0.6858
 6202TIP3    H140097   5.548   0.101   2.097  0.9875 -1.0845  1.5893
 6202TIP3    H240098   5.503   0.088   1.953  0.1272  1.8425  1.5145
 6203TIP3   OH240099   0.405   5.351  14.332 -0.3284  0.6295 -0.6046
 6203TIP3    H140100   0.394   5.270  14.382 -1.6680  1.7807  1.1168
 6203TIP3    H240101   0.479   5.395  14.374 -2.0982  2.0760  1.1740
 6204TIP3   OH240102   4.801   2.429   3.387  0.0382 -0.4276  0.4651
 6204TIP3    H140103   4.868   2.361   3.391  0.8552  0.4121  1.9587
 6204TIP3    H240104   4.814   2.471   3.302  0.7034 -0.9639  0.2959
 6205TIP3   OH240105   4.337   6.005  14.051 -0.2824  0.0531  0.0676
 6205TIP3    H140106   4.413   6.004  14.110 -0.0615  0.9242 -0.1816
 6205TIP3    H240107   4.375   6.017  13.964 -0.6559 -0.4493 -0.1692
 6206TIP3   OH240108   0.012   4.769  15.316 -0.9903  0.1332 -0.1023
 6206TIP3    H140109   0.027   4.745  15.225 -0.6144 -2.9996  0.6742
 6206TIP3    H240110  -0.081   4.789  15.322 -1.8166 -3.0754 -0.5986
 6207TIP3   OH240111   4.672   0.786  14.859  0.1682 -0.9285 -0.0190
 6207TIP3    H140112   4.689   0.750  14.946  1.0893  0.9856  0.6299
 6207TIP3    H240113   4.578   0.775  14.847  0.0596 -1.3815  1.1343
 6208TIP3   OH240114   4.420   0.632   6.251 -0.1540 -0.1780  0.2389
 6208TIP3    H140115   4.330   0.609   6.226  0.6279 -2.2851 -0.8746
 6208TIP3    H240116   4.416   0.642   6.347 -1.4867 -0.6771  0.2648
 6209TIP3   OH240117   1.647   3.877   4.856 -0.0983 -0.7036 -0.3311
 6209TIP3    H140118   1.657   3.972   4.856 -2.8067 -0.3425 -1.0872
 6209TIP3    H240119   1.697   3.848   4.933 -1.1232  1.5852  1.3196
 6210TIP3   OH240120   4.806   3.294   2.629  0.0615 -0.3739 -0.1287
 6210TIP3    H140121   4.843   3.369   2.581 -1.4820  0.9725  0.6745
 6210TIP3    H240122   4.726   3.272   2.580 -0.5963 -0.1212  0.8048
 6211TIP3   OH240123   0.140   6.711  16.100 -0.1202  0.1422  0.1658
 6211TIP3    H140124   0.234   6.712  16.116 -0.1550 -1.8112  0.6841
 6211TIP3    H240125   0.112   6.622  16.120 -1.9724  0.4697 -0.6818
 6212TIP3   OH240126   4.901   3.517  14.233 -0.1197 -0.0061 -0.0236
 6212TIP3    H140127   4.810   3.532  14.210  0.3135  1.3851 -0.9077
 6212TIP3    H240128   4.945   3.502  14.150  0.6560  0.4586  0.2897
 6213TIP3   OH240129   2.481   5.704  12.107  0.2803 -0.0854  0.5308
 6213TIP3    H140130   2.412   5.746  12.159 -0.6027  1.4861 -1.7169
 6213TIP3    H240131   2.434   5.655  12.040  1.3697 -1.8143  0.9856
 6214TIP3   OH240132   0.612   4.179  13.106 -0.5368  0.2935  0.2759
 6214TIP3    H140133   0.554   4.244  13.145 -1.1466 -0.1210  0.0704
 6214TIP3    H240134   0.620   4.110  13.172 -0.7224  0.0908  0.0903
 6215TIP3   OH240135   6.404   3.373   1.797  0.6590 -0.1668 -0.4387
 6215TIP3    H140136   6.349   3.382   1.719  0.3497 -0.6521 -0.2850
 6215TIP3    H240137   6.456   3.453   1.799  0.1903  0.1553 -0.7723
 6216TIP3   OH240138   3.595   0.990   3.049 -0.4963  0.4288 -0.1893
 6216TIP3    H140139   3.670   1.027   3.001 -0.1946 -1.2269 -1.0490
 6216TIP3    H240140   3.531   0.969   2.982 -0.4467 -1.0506  0.1836
 6217TIP3   OH240141   0.434   5.894   2.427  0.1695 -0.0061  0.0218
 6217TIP3    H140142   0.407   5.935   2.344 -0.4564  3.0351  1.5888
 6217TIP3    H240143   0.530   5.899   2.425  0.1318  2.3358  0.4005
 6218TIP3   OH240144   2.204   3.566   5.552  0.2721 -0.3138  0.2460
 6218TIP3    H140145   2.276   3.629   5.544 -0.3259  0.1896 -1.8231
 6218TIP3    H240146   2.205   3.518   5.469 -1.3815 -0.7357  0.4375
 6219TIP3   OH240147   2.796   3.243  12.637  0.1688 -0.0947  0.2289
 6219TIP3    H140148   2.710   3.226  12.675  0.2288  0.4255  0.6175
 6219TIP3    H240149   2.809   3.337  12.650  0.9420 -0.2305  0.5030
 6220TIP3   OH240150   4.127   1.975  17.437  0.7681  0.3086  0.3643
 6220TIP3    H140151   4.220   1.964  17.416  0.4824  1.0096 -1.3721
 6220TIP3    H240152   4.125   2.045  17.502  1.4440  0.2294  0.4776
 6221TIP3   OH240153   1.106   3.222   2.701  0.1964 -0.4780  0.0433
 6221TIP3    H140154   1.055   3.205   2.622 -0.2331 -1.8239  0.5940
 6221TIP3    H240155   1.187   3.262   2.668 -0.7080  0.6377 -0.9165
 6222TIP3   OH240156   1.451   5.377   4.433 -0.2657  0.4835 -0.1424
 6222TIP3    H140157   1.531   5.331   4.457  0.4706 -0.1322 -3.3416
 6222TIP3    H240158   1.479   5.466   4.414 -0.4775  0.4702 -0.5221
 6223TIP3   OH240159   6.027   2.654  14.246  0.0761 -0.4457 -0.1186
 6223TIP3    H140160   6.026   2.686  14.336  0.6707  0.2396 -0.3536
 6223TIP3    H240161   6.043   2.560  14.254  0.2945 -0.3603  0.4826
 6224TIP3   OH240162   3.464   4.296  13.792 -0.4823  0.1146  0.4753
 6224TIP3    H140163   3.456   4.202  13.773 -1.0893  0.3202 -0.3199
 6224TIP3    H240164   3.375   4.322  13.816 -0.6825  0.8541 -1.0094
 6225TIP3   OH240165   5.675   2.804   4.779 -0.1079 -0.0496 -0.0699
 6225TIP3    H140166   5.584   2.822   4.757 -0.5648 -0.9586  0.9614
 6225TIP3    H240167   5.671   2.763   4.866  1.3175  0.3029  0.1967
 6226TIP3   OH240168   2.998   0.507   0.404  0.1118 -0.1201 -0.4371
 6226TIP3    H140169   3.085   0.511   0.363  0.6727  1.4747  0.7904
 6226TIP3    H240170   2.938   0.534   0.336  0.3618 -2.4820 -1.7053
 6227TIP3   OH240171   6.525   2.723   3.688 -0.2640 -0.0430 -0.4049
 6227TIP3    H140172   6.578   2.658   3.734 -1.6926 -1.1919 -0.3052
 6227TIP3    H240173   6.495   2.782   3.757  0.0021 -0.0149 -0.3090
 6228TIP3   OH240174   5.836   6.240   1.148  0.4182 -0.1570 -0.5159
 6228TIP3    H140175   5.918   6.190   1.147  0.8607  0.2620  2.5556
 6228TIP3    H240176   5.853   6.318   1.096  2.7979  0.9573  1.7271
 6229TIP3   OH240177   5.739   2.302  17.375 -0.3699  0.3659  0.3074
 6229TIP3    H140178   5.670   2.272  17.315  1.0445 -2.3133 -0.1393
 6229TIP3    H240179   5.692   2.336  17.451 -2.1940  1.9677 -1.4091
 6230TIP3   OH240180   4.609   4.914  13.426  0.1787 -0.0877  0.1568
 6230TIP3    H140181   4.604   4.862  13.506  3.8190  0.5339  0.9468
 6230TIP3    H240182   4.615   4.849  13.356  0.1254 -0.6714  0.6846
 6231TIP3   OH240183   0.130   5.307   0.967 -0.9353  0.8015 -0.0934
 6231TIP3    H140184   0.176   5.224   0.969  0.6964  1.6515 -0.7528
 6231TIP3    H240185   0.148   5.348   1.051 -0.7867  0.9842 -0.2136
 6232TIP3   OH240186   1.542   0.428   0.204 -0.2308 -0.0230 -0.3867
 6232TIP3    H140187   1.556   0.341   0.240  0.0031  0.2882  0.2980
 6232TIP3    H240188   1.460   0.458   0.243 -0.6347 -0.1679 -1.0971
 6233TIP3   OH240189   3.252   1.103   2.984 -0.5861  0.3197 -0.3108
 6233TIP3    H140190   3.327   1.104   3.044 -0.6356 -1.0866 -0.1918
 6233TIP3    H240191   3.221   1.013   2.986 -0.2043  0.0543 -2.9134
 6234TIP3   OH240192   1.042   3.775   6.925  0.2992 -0.3820 -0.1034
 6234TIP3    H140193   0.960   3.751   6.881  0.0534 -2.0146  1.1473
 6234TIP3    H240194   1.022   3.859   6.967  0.2690  0.7733 -2.2656
 6235TIP3   OH240195   5.449   5.649   1.346 -0.3664 -0.5075 -0.0261
 6235TIP3    H140196   5.418   5.711   1.280  0.2685 -0.2135 -0.0557
 6235TIP3    H240197   5.434   5.563   1.308  0.0122 -0.3401 -0.5612
 6236TIP3   OH240198   5.880   6.166   0.085 -0.0334  0.2747  0.0626
 6236TIP3    H140199   5.814   6.101   0.061 -0.4375  1.3080 -1.8469
 6236TIP3    H240200   5.879   6.167   0.181 -2.0975 -0.4531  0.1011
 6237TIP3   OH240201   2.599   3.664   5.933  0.2591 -0.1897  0.8252
 6237TIP3    H140202   2.510   3.630   5.940  0.3174 -0.3997  0.5506
 6237TIP3    H240203   2.617   3.701   6.020 -0.0417 -0.2750  0.9260
 6238TIP3   OH240204   1.173   2.962  12.211 -0.1131  0.5562  0.2312
 6238TIP3    H140205   1.141   2.871  12.211  0.0803  0.4866  0.4237
 6238TIP3    H240206   1.256   2.958  12.259  0.1072  0.7626 -0.1289
 6239TIP3   OH240207   4.064   5.416   2.642  0.0084  0.0344  0.5336
 6239TIP3    H140208   4.104   5.478   2.580 -0.7103 -0.2410 -0.2133
 6239TIP3    H240209   4.139   5.380   2.691  0.4672  1.2190  0.7413
 6240TIP3   OH240210   3.446   0.948  16.826  0.0287  0.6616 -0.4548
 6240TIP3    H140211   3.464   1.021  16.766 -1.5083  1.0033 -0.5403
 6240TIP3    H240212   3.380   0.982  16.886  0.0505 -0.3372  0.1544
 6241TIP3   OH240213   4.863   6.693   5.177  0.8241 -0.2320  0.3569
 6241TIP3    H140214   4.837   6.663   5.264 -0.0493  1.7290  0.8230
 6241TIP3    H240215   4.917   6.771   5.193 -0.5833  1.0643 -0.8444
 6242TIP3   OH240216   4.821   3.919   5.041  0.1483 -0.4059  0.1829
 6242TIP3    H140217   4.877   3.911   5.118 -0.4740  0.1592  0.7127
 6242TIP3    H240218   4.877   3.894   4.967  0.8273 -0.7018  0.7872
 6243TIP3   OH240219   2.111   5.715   5.997 -0.2745  0.0560  0.0723
 6243TIP3    H140220   2.103   5.696   6.090 -1.9207 -0.2588 -0.1130
 6243TIP3    H240221   2.195   5.761   5.990  0.6544 -1.3351  1.4570
 6244TIP3   OH240222   4.228   2.197  12.593  0.1312 -0.4263 -0.2033
 6244TIP3    H140223   4.215   2.187  12.499  1.8557  0.2998 -0.5557
 6244TIP3    H240224   4.310   2.247  12.601 -0.6435  0.6467  1.6572
 6245TIP3   OH240225   2.148   4.416  14.504 -0.0172 -0.4367 -0.0520
 6245TIP3    H140226   2.140   4.508  14.528  1.7263 -0.3105  0.1794
 6245TIP3    H240227   2.064   4.377  14.529 -0.0626  0.6837  1.7227
 6246TIP3   OH240228   1.985   2.529   0.706  0.5633 -0.3820  0.7922
 6246TIP3    H140229   2.070   2.485   0.711  0.7702  0.0782  1.3984
 6246TIP3    H240230   1.932   2.471   0.651  0.6844 -1.6548  1.9412
 6247TIP3   OH240231   5.392   4.156   1.300 -0.2061 -0.4040 -0.2495
 6247TIP3    H140232   5.349   4.082   1.345  0.7392 -0.6847  0.2139
 6247TIP3    H240233   5.440   4.201   1.369 -1.1646  0.9538 -0.4408
 6248TIP3   OH240234   5.908   0.026  13.277 -0.3218 -0.0527 -0.1775
 6248TIP3    H140235   5.958   0.070  13.208  0.3846 -1.6443 -0.7220
 6248TIP3    H240236   5.852  -0.035  13.230 -1.1156  0.0741  0.5777
 6249TIP3   OH240237   2.788   3.127  17.148  0.1223 -0.0523  0.0101
 6249TIP3    H140238   2.831   3.189  17.207 -0.6123  0.6331 -0.1523
 6249TIP3    H240239   2.813   3.156  17.060  0.2932 -0.3728 -0.0459
 6250TIP3   OH240240   2.439   0.265  16.681  0.3184  0.5088  0.4904
 6250TIP3    H140241   2.368   0.299  16.736  0.5144 -0.0198  1.0799
 6250TIP3    H240242   2.400   0.258  16.594 -0.1911  0.7509  0.6953
 6251TIP3   OH240243   2.841   4.576   2.743 -0.4000 -0.3512 -0.2947
 6251TIP3    H140244   2.828   4.653   2.800  0.7614  0.2802 -0.8330
 6251TIP3    H240245   2.925   4.540   2.772 -0.6584 -1.0812 -0.4423
 6252TIP3   OH240246   5.921   3.598   4.255  0.3581 -0.0323  1.3395
 6252TIP3    H140247   5.991   3.632   4.199 -0.3861 -0.1785  0.2773
 6252TIP3    H240248   5.861   3.672   4.267 -1.2192 -0.8195 -0.9000
 6253TIP3   OH240249   2.981   3.353  14.008  0.2365 -0.5851  0.5819
 6253TIP3    H140250   2.916   3.315  14.067 -0.1783  0.3220  0.7313
 6253TIP3    H240251   3.059   3.365  14.063 -0.2614  0.5929  1.0808
 6254TIP3   OH240252   6.149   6.668  11.135 -0.1779 -0.4102 -0.6841
 6254TIP3    H140253   6.204   6.592  11.152 -1.3937 -1.4273 -1.1619
 6254TIP3    H240254   6.113   6.691  11.221 -0.8396 -1.2046 -0.7421
 6255TIP3   OH240255   4.730   0.375   4.339 -0.1409 -0.3909 -0.1569
 6255TIP3    H140256   4.768   0.463   4.339 -1.4485  0.2263  1.6743
 6255TIP3    H240257   4.642   0.387   4.301 -1.2299 -0.3969  2.1845
 6256TIP3   OH240258   2.584   4.784   6.129 -0.3143 -1.0806 -0.5745
 6256TIP3    H140259   2.551   4.717   6.070 -0.4014 -1.6533  0.0994
 6256TIP3    H240260   2.522   4.785   6.202  0.7800 -1.7485  0.4177
 6257TIP3   OH240261   2.568   4.825  17.012  0.5279 -0.3261 -0.2345
 6257TIP3    H140262   2.552   4.740  17.053  0.8494 -0.0949  0.3750
 6257TIP3    H240263   2.631   4.869  17.069 -1.3060  1.2405  0.7499
 6258TIP3   OH240264   1.466   0.518  14.808  0.0586 -0.3614 -0.2390
 6258TIP3    H140265   1.421   0.450  14.859 -1.0946 -0.3344 -1.1648
 6258TIP3    H240266   1.433   0.600  14.845  2.1552 -0.2334  1.5022
 6259TIP3   OH240267   6.159   0.618   2.617 -0.0847 -0.4184 -0.0135
 6259TIP3    H140268   6.065   0.637   2.627 -0.2365 -0.9755 -0.3266
 6259TIP3    H240269   6.196   0.699   2.584 -0.3243  0.0509  0.8396
 6260TIP3   OH240270   5.622   4.554  12.107  0.0489 -0.1961 -0.3674
 6260TIP3    H140271   5.584   4.641  12.122 -1.3125 -0.8320 -0.0022
 6260TIP3    H240272   5.623   4.513  12.194  0.9647 -0.4436 -0.4877
 6261TIP3   OH240273   5.660   5.748   1.837 -0.3922 -0.1678 -0.0660
 6261TIP3    H140274   5.726   5.816   1.853 -1.4129  0.8746 -0.1722
 6261TIP3    H240275   5.626   5.769   1.750 -2.2436  0.5052  0.7820
 6262TIP3   OH240276   1.715   3.761   5.105 -0.2532  0.3309 -0.4692
 6262TIP3    H140277   1.786   3.750   5.169  0.9386 -1.3022 -1.9729
 6262TIP3    H240278   1.672   3.676   5.101 -2.5870  1.3533  0.6127
 6263TIP3   OH240279   3.815   1.299   1.239 -0.4074  0.5938  0.2038
 6263TIP3    H140280   3.865   1.331   1.164  1.1609 -0.2314  0.8385
 6263TIP3    H240281   3.831   1.365   1.308 -1.4862  1.1260 -0.0401
 6264TIP3   OH240282   6.595   0.976  15.517 -0.0853 -0.4274 -0.1202
 6264TIP3    H140283   6.552   0.910  15.572  0.5365  1.1450  2.4086
 6264TIP3    H240284   6.563   1.060  15.551 -0.5640  0.6542 -2.9873
 6265TIP3   OH240285   5.254   5.530   3.394  0.1341  0.8768  0.1338
 6265TIP3    H140286   5.202   5.466   3.343  2.6165 -1.2609  0.0781
 6265TIP3    H240287   5.278   5.597   3.330 -0.6510  0.6968 -0.3674
 6266TIP3   OH240288   3.599   6.497   3.371  0.2879  0.4963 -0.4621
 6266TIP3    H140289   3.607   6.479   3.465  0.3041  1.6962 -0.2273
 6266TIP3    H240290   3.677   6.456   3.332  0.3015  0.0253  0.0401
 6267TIP3   OH240291   0.286   4.479   3.430 -0.0328  0.0017  0.3410
 6267TIP3    H140292   0.197   4.508   3.448  0.3915 -0.1327  3.2760
 6267TIP3    H240293   0.337   4.515   3.503  1.5886 -3.1139  0.8877
 6268TIP3   OH240294   6.002   2.753  12.968 -0.2623 -0.5814 -0.4759
 6268TIP3    H140295   6.069   2.814  12.936  0.1951 -1.2805 -0.8741
 6268TIP3    H240296   5.920   2.799  12.953  0.1080  0.2000 -0.1862
 6269TIP3   OH240297   3.021   3.931  15.590 -0.1230 -0.6027 -0.3164
 6269TIP3    H140298   3.085   3.871  15.552 -0.2412  0.7269 -2.8627
 6269TIP3    H240299   3.031   3.921  15.685  0.8987 -3.4597 -0.6360
 6270TIP3   OH240300   5.567   1.409  13.165  0.0659 -0.1800 -0.0361
 6270TIP3    H140301   5.662   1.401  13.167 -0.0021 -0.8664  1.3804
 6270TIP3    H240302   5.552   1.501  13.142  1.0447 -0.2203 -0.9214
 6271TIP3   OH240303   5.261   3.598   6.305 -0.3784  0.4268  0.2950
 6271TIP3    H140304   5.234   3.517   6.350 -3.1085  1.2036  0.2302
 6271TIP3    H240305   5.319   3.641   6.367  1.9386 -1.9396 -0.0349
 6272TIP3   OH240306   6.463   0.318   1.207  0.0709  0.9636 -0.1354
 6272TIP3    H140307   6.391   0.276   1.160  0.2912  0.3081  0.1047
 6272TIP3    H240308   6.533   0.252   1.208  0.5051  1.4221  0.0383
 6273TIP3   OH240309   3.275   1.814  15.894 -0.1946 -0.0605 -0.2087
 6273TIP3    H140310   3.292   1.898  15.851 -0.5135 -1.0534 -2.4250
 6273TIP3    H240311   3.233   1.837  15.976  0.4327  1.9712 -0.4104
 6274TIP3   OH240312   4.689   2.044   3.598 -0.0385  0.5453  0.4692
 6274TIP3    H140313   4.615   2.097   3.625 -1.7508 -1.9721  1.0157
 6274TIP3    H240314   4.704   1.983   3.670  2.0063  0.3763 -0.0137
 6275TIP3   OH240315   5.502   5.044  17.199 -0.6693 -0.1729  0.5379
 6275TIP3    H140316   5.408   5.034  17.212 -0.4907 -0.3047  1.8506
 6275TIP3    H240317   5.540   5.025  17.284  0.3371  3.0124  0.8933
 6276TIP3   OH240318   1.424   4.146  15.916  0.0168  0.6285 -0.0289
 6276TIP3    H140319   1.414   4.232  15.957  3.4112 -0.5516  3.9147
 6276TIP3    H240320   1.366   4.089  15.966 -0.8800  0.1833 -1.4837
 6277TIP3   OH240321   2.867   4.883   3.888 -0.0924 -0.2202 -0.2904
 6277TIP3    H140322   2.776   4.871   3.862  0.2035 -1.9201 -0.6607
 6277TIP3    H240323   2.918   4.841   3.819  0.9288 -0.2975  0.4801
 6278TIP3   OH240324   0.901   6.013   4.292  0.9345  0.2007 -0.0830
 6278TIP3    H140325   0.994   5.989   4.291  1.2386  1.2193  1.0785
 6278TIP3    H240326   0.869   5.987   4.206  1.8641 -1.7902  0.0946
 6279TIP3   OH240327   6.713   3.886  15.966  0.3997  0.5190  0.5631
 6279TIP3    H140328   6.744   3.874  16.056  1.3120  1.2892  0.3550
 6279TIP3    H240329   6.617   3.890  15.975  0.4926  0.8562  1.5279
 6280TIP3   OH240330   0.959   1.721  17.053  0.5742  0.0240 -0.2707
 6280TIP3    H140331   0.929   1.755  17.137  1.2814 -0.1025  0.0331
 6280TIP3    H240332   0.892   1.750  16.990 -0.1678 -0.2247  0.3893
 6281TIP3   OH240333   4.096   5.531   6.320  0.4061  0.4297  0.8587
 6281TIP3    H140334   4.186   5.545   6.350  0.6334 -0.8248  0.8181
 6281TIP3    H240335   4.104   5.469   6.247 -0.5416 -0.2748  1.3299
 6282TIP3   OH240336   4.155   5.624  13.103  0.3787 -0.0333 -0.3933
 6282TIP3    H140337   4.094   5.636  13.175  1.4544 -1.5289  0.8442
 6282TIP3    H240338   4.143   5.701  13.048 -1.7023  0.3132  0.4596
 6283TIP3   OH240339   6.033   1.241   4.743 -0.2795 -0.4692  0.2233
 6283TIP3    H140340   6.031   1.283   4.658 -1.5670 -0.6958  0.1281
 6283TIP3    H240341   6.108   1.280   4.787  0.4539 -0.4071 -1.0316
 6284TIP3   OH240342   3.335   1.665  14.392 -0.7315 -0.1063 -0.3204
 6284TIP3    H140343   3.263   1.670  14.330  0.7988 -0.1558 -2.1847
 6284TIP3    H240344   3.372   1.578  14.380  1.0444  0.7067 -1.0933
 6285TIP3   OH240345   5.051   4.517  13.384 -0.2644 -0.1670  0.8892
 6285TIP3    H140346   4.963   4.482  13.370 -0.4459  0.2399  1.0003
 6285TIP3    H240347   5.040   4.585  13.451  0.1508 -0.1898  0.9852
 6286TIP3   OH240348   5.227   2.091  13.883 -0.4042 -0.2925  0.0252
 6286TIP3    H140349   5.208   2.006  13.844 -0.2964 -2.4649  4.1222
 6286TIP3    H240350   5.141   2.128  13.902 -0.5526 -1.1280  1.1560
 6287TIP3   OH240351   0.077   2.748  13.727 -0.4919  0.2033  0.3517
 6287TIP3    H140352   0.015   2.814  13.757  2.1872  2.8637  0.3915
 6287TIP3    H240353   0.159   2.769  13.771  0.6433 -2.9150  0.0020
 6288TIP3   OH240354   1.535   2.578  11.472 -0.1800 -0.3977  0.0295
 6288TIP3    H140355   1.613   2.532  11.439 -0.4829 -0.6395 -0.3554
 6288TIP3    H240356   1.533   2.559  11.565 -0.6490 -1.6937 -0.2294
 6289TIP3   OH240357   6.131   4.120  16.827  0.3139 -0.0567  0.3437
 6289TIP3    H140358   6.141   4.215  16.819 -1.9412  0.1006 -2.6656
 6289TIP3    H240359   6.171   4.085  16.747  0.2370 -1.5620  0.9290
 6290TIP3   OH240360   5.832   0.663  13.007 -0.3540 -0.2215  0.3872
 6290TIP3    H140361   5.832   0.721  12.931 -1.7228 -0.5449  0.1209
 6290TIP3    H240362   5.897   0.596  12.986 -0.4882 -0.1253 -0.3568
 6291TIP3   OH240363   4.518   1.296   6.050  0.5625 -0.4629  0.7829
 6291TIP3    H140364   4.573   1.374   6.036  0.0463 -0.1924  0.2022
 6291TIP3    H240365   4.429   1.328   6.036  0.4290 -1.4408 -0.7364
 6292TIP3   OH240366   3.458   3.114  12.242 -0.2465  0.7960 -0.4178
 6292TIP3    H140367   3.408   3.162  12.307 -0.7316 -0.0188 -0.1700
 6292TIP3    H240368   3.410   3.127  12.160 -0.0993  1.1372 -0.4504
 6293TIP3   OH240369   6.215   4.178   4.842  0.4864 -0.6712  0.0275
 6293TIP3    H140370   6.146   4.233   4.805 -0.3536 -2.1919 -0.8040
 6293TIP3    H240371   6.280   4.239   4.875 -1.3382  0.8293  1.0301
 6294TIP3   OH240372   6.483   6.102  13.361  0.2864 -0.2211  0.6868
 6294TIP3    H140373   6.426   6.122  13.287  1.1833  0.6297  0.2077
 6294TIP3    H240374   6.495   6.007  13.357 -0.4770 -0.3123  0.3464
 6295TIP3   OH240375   1.758   1.793  16.517 -0.7168  0.6463 -0.3493
 6295TIP3    H140376   1.768   1.830  16.429 -0.4288 -0.0410 -0.6131
 6295TIP3    H240377   1.664   1.772  16.523 -0.4886 -0.7260 -1.0938
 6296TIP3   OH240378   0.066   2.282   0.944 -0.3070  0.2799 -0.1391
 6296TIP3    H140379   0.029   2.295   0.857  0.3949 -0.0541 -0.4956
 6296TIP3    H240380   0.116   2.200   0.937 -0.2097  0.2713  0.5633
 6297TIP3   OH240381   4.646   2.574  15.523  0.1430  0.1964 -0.1259
 6297TIP3    H140382   4.608   2.528  15.448 -1.6351 -0.2394  0.9730
 6297TIP3    H240383   4.633   2.667  15.502 -1.1832  0.0618  0.0247
 6298TIP3   OH240384   6.690   1.214  14.065 -0.3619  0.1315 -0.1674
 6298TIP3    H140385   6.762   1.176  14.115  0.9434  0.8208 -1.4532
 6298TIP3    H240386   6.679   1.154  13.991 -0.3876  0.5965 -0.5415
 6299TIP3   OH240387   5.305   3.356   1.161 -0.3264 -0.0124 -0.2137
 6299TIP3    H140388   5.362   3.432   1.169 -1.9202  1.1065  1.4340
 6299TIP3    H240389   5.340   3.307   1.087  5.0801 -1.4616  2.7531
 6300TIP3   OH240390   3.137   2.447   4.645 -0.4916  0.0267  0.1122
 6300TIP3    H140391   3.230   2.432   4.632 -0.5647 -1.4687  1.0255
 6300TIP3    H240392   3.130   2.539   4.670  0.6533  0.3266 -0.6401
 6301TIP3   OH240393   6.398   6.316  11.881  0.7068 -0.1459 -0.0792
 6301TIP3    H140394   6.468   6.341  11.822  0.9844  0.2572  0.4124
 6301TIP3    H240395   6.442   6.276  11.956  0.3679 -0.5303 -0.0787
 6302TIP3   OH240396   6.182   0.535   1.763 -0.8245  0.2424 -0.1232
 6302TIP3    H140397   6.126   0.553   1.839 -0.2070 -1.5019  0.8101
 6302TIP3    H240398   6.124   0.542   1.688 -1.4291  2.1425  0.4631
 6303TIP3   OH240399   3.505   2.015   0.951 -0.5297 -0.3654  0.3812
 6303TIP3    H140400   3.470   1.988   0.866 -2.5238  1.5553  0.5048
 6303TIP3    H240401   3.595   2.040   0.932 -0.5676 -1.1096 -0.9265
 6304TIP3   OH240402   3.783   0.897   5.878  0.3039  0.3793  0.3633
 6304TIP3    H140403   3.751   0.987   5.887  0.7918  0.6943 -0.8651
 6304TIP3    H240404   3.870   0.906   5.839 -0.0167 -0.6633 -0.6407
 6305TIP3   OH240405   6.571   1.952   6.898 -0.3709  0.7537  0.0526
 6305TIP3    H140406   6.594   1.938   6.806 -0.6015 -0.0712  0.1199
 6305TIP3    H240407   6.484   1.993   6.895 -0.5036  0.4612 -0.0879
 6306TIP3   OH240408   5.917   2.063   2.436 -0.0476  0.4638  0.5225
 6306TIP3    H140409   5.997   2.017   2.462  0.9990  2.5168  1.1817
 6306TIP3    H240410   5.949   2.138   2.386 -1.6897  0.4507 -0.6312
 6307TIP3   OH240411   4.746   3.906  16.156 -0.6179  0.2122 -0.6256
 6307TIP3    H140412   4.784   3.841  16.097 -0.1379  1.1528 -1.4060
 6307TIP3    H240413   4.669   3.864  16.194 -0.6624 -0.5872 -1.5716
 6308TIP3   OH240414   4.447   3.545  14.416  0.5096 -0.3543 -0.4993
 6308TIP3    H140415   4.455   3.640  14.424  0.8829 -0.5099  1.9565
 6308TIP3    H240416   4.514   3.511  14.475 -0.8674 -2.1124  0.1465
 6309TIP3   OH240417   3.367   2.489  17.331 -0.4503 -0.0479  0.1851
 6309TIP3    H140418   3.322   2.480  17.415 -0.5522  0.0054  0.1375
 6309TIP3    H240419   3.430   2.417  17.330 -0.5350 -0.1236  0.2534
 6310TIP3   OH240420   1.761   5.388   1.416  0.0258  0.5157 -0.2746
 6310TIP3    H140421   1.684   5.442   1.438  0.5949  1.1400  0.2336
 6310TIP3    H240422   1.726   5.317   1.362 -1.2056 -0.2060  1.3749
 6311TIP3   OH240423   3.666   2.480   5.362 -0.5060 -0.3920  0.5409
 6311TIP3    H140424   3.576   2.499   5.336 -1.0164 -0.2156  2.2961
 6311TIP3    H240425   3.659   2.403   5.418  0.4008 -0.2723  0.8349
 6312TIP3   OH240426   0.103   3.569   4.012  0.3234 -0.3503 -0.0541
 6312TIP3    H140427   0.197   3.574   4.028  0.5310 -0.7028 -1.0973
 6312TIP3    H240428   0.082   3.650   3.966  0.2984 -0.6863 -0.6479
 6313TIP3   OH240429   4.271   2.350   4.288  0.6696  0.0185 -0.2670
 6313TIP3    H140430   4.270   2.298   4.208  1.0942  0.0046 -0.2628
 6313TIP3    H240431   4.255   2.440   4.258 -0.4977 -0.1609 -0.2330
 6314TIP3   OH240432   2.125   1.312  16.688  0.3912  0.2543 -0.2002
 6314TIP3    H140433   2.043   1.358  16.673  0.1897  0.3427  1.0625
 6314TIP3    H240434   2.105   1.248  16.756  0.9815 -0.8601 -1.0243
 6315TIP3   OH240435   4.087   1.606   4.669  0.4582  0.6405 -0.3364
 6315TIP3    H140436   4.031   1.584   4.594 -0.2200 -0.6904  0.5286
 6315TIP3    H240437   4.175   1.584   4.640  0.1821 -0.0163 -0.7054
 6316TIP3   OH240438   2.658   2.021   1.940 -0.2176  0.5013  0.2655
 6316TIP3    H140439   2.662   2.082   1.866  2.3036  1.5133  1.1334
 6316TIP3    H240440   2.614   2.071   2.009  1.3280  1.1977  0.7893
 6317TIP3   OH240441   1.108   5.906  17.682 -0.4491  0.2429 -0.1254
 6317TIP3    H140442   1.033   5.962  17.662 -0.6831  1.1068  2.6648
 6317TIP3    H240443   1.177   5.934  17.622 -1.6709  1.0045 -1.2016
 6318TIP3   OH240444   6.437   4.073   5.626  0.3323 -0.6886 -0.2082
 6318TIP3    H140445   6.515   4.112   5.586  0.1363  0.3338  0.3817
 6318TIP3    H240446   6.422   3.993   5.576  0.8334 -0.0887 -1.3534
 6319TIP3   OH240447   0.914   2.483  13.132  0.7480  0.0968  0.3856
 6319TIP3    H140448   1.000   2.445  13.144  0.7509 -0.9990 -2.4322
 6319TIP3    H240449   0.853   2.418  13.168  0.9534 -0.6564 -0.6224
 6320TIP3   OH240450   0.399   0.222  12.606  0.1827  0.2603  0.4982
 6320TIP3    H140451   0.446   0.257  12.530  2.4894  0.3665  1.8917
 6320TIP3    H240452   0.344   0.152  12.570  2.1107 -0.5079 -1.1425
 6321TIP3   OH240453   2.710   4.474   5.444  0.4469  0.2501  0.3052
 6321TIP3    H140454   2.719   4.386   5.479  0.2957 -0.4730 -1.3690
 6321TIP3    H240455   2.661   4.462   5.362 -1.2951  2.1101  0.9837
 6322TIP3   OH240456   4.837   3.338  17.607 -0.1325 -0.0093  0.2359
 6322TIP3    H140457   4.749   3.312  17.580  0.4642 -2.3178  0.3184
 6322TIP3    H240458   4.870   3.391  17.535 -1.1280 -0.2042 -0.3784
 6323TIP3   OH240459   3.192   2.277  16.630  0.4857  0.1054  0.3235
 6323TIP3    H140460   3.112   2.245  16.587  0.1239  0.2809  0.8494
 6323TIP3    H240461   3.260   2.270  16.563  0.3280 -1.3099  0.2644
 6324TIP3   OH240462   3.456   6.694  12.424 -0.5657 -0.4263  0.1133
 6324TIP3    H140463   3.401   6.768  12.450 -0.5255 -0.6102  0.7446
 6324TIP3    H240464   3.394   6.624  12.404 -0.5839 -0.4282  0.1758
 6325TIP3   OH240465   4.128   0.336  17.678 -0.4797  0.2484 -0.9758
 6325TIP3    H140466   4.170   0.408  17.725  0.9831 -0.7880 -0.6224
 6325TIP3    H240467   4.162   0.343  17.589 -0.1531 -0.1400 -0.8818
 6326TIP3   OH240468   0.674   2.609   4.120  0.2677  0.6454 -0.3238
 6326TIP3    H140469   0.617   2.636   4.192  2.9997  1.6753  1.5942
 6326TIP3    H240470   0.641   2.657   4.044 -2.1172  0.2503  0.3773
 6327TIP3   OH240471   1.916   0.333   2.552 -0.3185 -0.0584 -0.6436
 6327TIP3    H140472   1.941   0.330   2.460  3.2088  0.5065  0.1495
 6327TIP3    H240473   1.921   0.425   2.576  0.6022 -0.3682  0.4726
 6328TIP3   OH240474   2.080   0.056   2.515  0.7013 -0.7163  0.4956
 6328TIP3    H140475   2.022   0.131   2.525 -1.2562 -2.0742 -0.0720
 6328TIP3    H240476   2.129   0.075   2.435 -0.5899 -0.5298 -0.2777
 6329TIP3   OH240477   0.999   3.291   0.996 -0.4159 -0.0885 -0.4181
 6329TIP3    H140478   0.955   3.294   0.910 -0.3149 -1.7757 -0.5606
 6329TIP3    H240479   1.028   3.381   1.010 -2.7765  0.8495 -0.9081
 6330TIP3   OH240480   2.984   3.814  14.418 -0.2828  0.7055  0.2754
 6330TIP3    H140481   3.041   3.772  14.483 -0.5128  1.0022  0.6803
 6330TIP3    H240482   2.900   3.768  14.426  0.0524 -0.0922 -0.7033
 6331TIP3   OH240483   3.950   0.841  14.551  0.3681  0.7757 -0.3794
 6331TIP3    H140484   3.955   0.772  14.485  1.0249  1.2444 -0.8376
 6331TIP3    H240485   4.024   0.824  14.609  2.2749  2.6440 -2.0809
 6332TIP3   OH240486   5.172   2.175  13.363 -0.4086 -0.1222 -0.1740
 6332TIP3    H140487   5.216   2.121  13.298  0.7606 -0.6446  1.0035
 6332TIP3    H240488   5.209   2.263  13.350 -0.2000 -0.2187 -0.2390
 6333TIP3   OH240489   4.509   5.251   4.435 -0.5247 -0.2869 -0.1300
 6333TIP3    H140490   4.467   5.167   4.455 -0.3661 -0.9459 -2.2445
 6333TIP3    H240491   4.448   5.294   4.374 -0.3685  0.9290  0.5466
 6334TIP3   OH240492   1.366   3.385   5.294  0.3097 -0.0465 -0.4000
 6334TIP3    H140493   1.279   3.425   5.292  0.0101 -0.5857  1.0081
 6334TIP3    H240494   1.401   3.408   5.380  0.9117 -1.1645 -0.3303
 6335TIP3   OH240495   4.154   5.169   1.540 -0.0159  0.0146  0.3515
 6335TIP3    H140496   4.071   5.125   1.521 -0.9530  2.1940 -1.0584
 6335TIP3    H240497   4.199   5.111   1.601 -2.1866 -1.6626  0.4780
 6336TIP3   OH240498   5.429   2.301  15.190  0.6087  0.3961  0.0571
 6336TIP3    H140499   5.408   2.392  15.212 -1.6343  0.0350 -0.3080
 6336TIP3    H240500   5.350   2.269  15.146  0.7672 -2.1425  1.4549
 6337TIP3   OH240501   3.112   5.932  13.245 -0.5737 -0.1895 -0.0519
 6337TIP3    H140502   3.191   5.879  13.243 -1.4926 -1.6311 -2.3724
 6337TIP3    H240503   3.138   6.014  13.287  1.3661 -1.7189  1.9328
 6338TIP3   OH240504   4.386   0.321   0.535 -0.2860  0.3766 -0.3068
 6338TIP3    H140505   4.301   0.292   0.571 -1.1208  1.6695 -1.1475
 6338TIP3    H240506   4.371   0.325   0.440  0.2962  1.8764 -0.3562
 6339TIP3   OH240507   5.696   0.742  14.031 -0.1681  0.4275  0.2312
 6339TIP3    H140508   5.660   0.758  14.118 -0.2108  1.4818  0.0391
 6339TIP3    H240509   5.787   0.771  14.037  0.1984 -0.6934  0.2652
 6340TIP3   OH240510   1.584   2.438  13.582  0.2279  0.1555 -0.2407
 6340TIP3    H140511   1.675   2.411  13.600  0.0313 -1.2672 -1.1925
 6340TIP3    H240512   1.593   2.524  13.542  0.9360  1.3807  2.3333
 6341TIP3   OH240513   6.583   3.409  17.395 -0.3951  0.0564 -0.0847
 6341TIP3    H140514   6.636   3.348  17.344 -0.9321  0.2774 -0.9175
 6341TIP3    H240515   6.641   3.437  17.466  1.2843  1.6937 -1.9817
 6342TIP3   OH240516   0.928   5.632   5.209  0.3082  0.4507  0.0545
 6342TIP3    H140517   0.945   5.538   5.196 -0.0295  0.2522  1.0154
 6342TIP3    H240518   0.997   5.675   5.158 -0.4320 -0.2864 -1.6710
 6343TIP3   OH240519   0.404   5.071   1.732  0.0597  0.0948 -0.0276
 6343TIP3    H140520   0.449   5.103   1.810  1.7140 -1.6190 -0.2017
 6343TIP3    H240521   0.313   5.062   1.759 -0.0512  2.6376  0.6664
 6344TIP3   OH240522   2.806   6.523  12.367  0.4174 -0.0571  0.0336
 6344TIP3    H140523   2.830   6.612  12.391  3.4338 -0.9668  0.7373
 6344TIP3    H240524   2.713   6.517  12.391 -0.2744  3.2059 -1.1923
 6345TIP3   OH240525   3.944   0.925  12.586 -0.2025  0.1615 -0.4760
 6345TIP3    H140526   3.980   0.997  12.637 -0.1341 -0.3550  0.2252
 6345TIP3    H240527   4.005   0.853  12.600 -0.6578 -0.2507 -0.5683
 6346TIP3   OH240528   5.345   4.025  12.811 -0.1906  0.1655 -0.5268
 6346TIP3    H140529   5.346   4.111  12.853 -0.4903  2.3413 -4.4846
 6346TIP3    H240530   5.434   3.993  12.819  0.3137  1.5713 -0.2532
 6347TIP3   OH240531   1.759   5.009  12.942 -0.4875  0.2987  0.0775
 6347TIP3    H140532   1.772   4.917  12.922  0.1276  1.0513 -3.8237
 6347TIP3    H240533   1.664   5.019  12.953 -0.3812 -1.0908  3.1075
 6348TIP3   OH240534   5.965   3.603   6.524 -0.5912  0.8620  0.0959
 6348TIP3    H140535   6.018   3.639   6.595  1.9589  0.2936 -1.4008
 6348TIP3    H240536   5.970   3.508   6.536  3.0177  0.4655 -2.7053
 6349TIP3   OH240537   4.175   1.725   0.470  0.1072  0.2905 -0.0385
 6349TIP3    H140538   4.112   1.743   0.400 -0.1867 -0.3302  0.0640
 6349TIP3    H240539   4.197   1.633   0.459  1.6265  0.6827 -0.5739
 6350TIP3   OH240540   0.387   0.036  16.241 -0.2308 -0.3321  0.2737
 6350TIP3    H140541   0.371   0.118  16.287  3.6948 -0.0696  1.5589
 6350TIP3    H240542   0.415  -0.025  16.309  2.0770 -1.0776 -1.2211
 6351TIP3   OH240543   5.072   1.764  11.152 -0.4582  0.5401  0.0902
 6351TIP3    H140544   5.080   1.735  11.243 -0.2481  1.3864  0.3481
 6351TIP3    H240545   4.977   1.765  11.136 -0.4697 -0.5287 -0.0209
 6352TIP3   OH240546   5.430   6.584   1.202 -0.0451 -0.0254 -0.2961
 6352TIP3    H140547   5.367   6.520   1.236  1.2160 -0.5277  1.2105
 6352TIP3    H240548   5.376   6.657   1.171 -1.3801 -0.3397  1.1521
 6353TIP3   OH240549   4.913   0.796   2.314  0.4666  0.0216 -0.2010
 6353TIP3    H140550   4.997   0.783   2.270 -0.6143  1.5601 -2.9381
 6353TIP3    H240551   4.861   0.720   2.289  0.1511  0.4513 -0.8838
 6354TIP3   OH240552   1.236   4.708  12.380  0.0027  0.1983 -0.3985
 6354TIP3    H140553   1.232   4.750  12.294 -0.3808  0.1037 -0.4281
 6354TIP3    H240554   1.145   4.687  12.400  0.1114  0.0713 -0.0422
 6355TIP3   OH240555   6.575   5.998   5.740  0.2705  0.3093 -0.0245
 6355TIP3    H140556   6.537   6.084   5.755  2.2605  1.3768 -0.6511
 6355TIP3    H240557   6.663   6.004   5.778  0.7055 -1.2082 -0.7024
 6356TIP3   OH240558   1.874   0.788  16.527  0.3140 -0.5269  0.0101
 6356TIP3    H140559   1.899   0.696  16.520 -0.7937 -0.9217  0.9606
 6356TIP3    H240560   1.779   0.787  16.535  0.2686  0.7171 -0.0647
 6357TIP3   OH240561   1.406   5.223   1.209 -0.5075  0.3472 -0.1004
 6357TIP3    H140562   1.501   5.233   1.218 -0.4244 -1.7273  2.4887
 6357TIP3    H240563   1.395   5.158   1.139  0.1130 -0.7271  0.7705
 6358TIP3   OH240564   1.255   2.190   5.291 -0.4057  0.0256  0.5570
 6358TIP3    H140565   1.269   2.095   5.295 -2.3083 -0.3915 -0.8209
 6358TIP3    H240566   1.279   2.213   5.201  1.2972  1.1329  1.2554
 6359TIP3   OH240567   3.271   1.993   2.702 -0.4310 -0.1215 -0.3108
 6359TIP3    H140568   3.284   1.919   2.643 -0.4021 -0.2532 -0.1425
 6359TIP3    H240569   3.191   1.972   2.750  1.2029 -1.6236  2.0027
 6360TIP3   OH240570   1.144   1.624  13.399 -0.0812  0.1389 -0.4567
 6360TIP3    H140571   1.198   1.588  13.469  0.5429  0.7887 -0.6034
 6360TIP3    H240572   1.075   1.672  13.444  1.2487  1.9490 -0.2705
 6361TIP3   OH240573   0.742   5.737  14.205  0.0855  0.0547  0.3722
 6361TIP3    H140574   0.812   5.743  14.269 -0.0730 -1.0279  0.6504
 6361TIP3    H240575   0.666   5.776  14.249  0.3292  0.6218  0.3076
 6362TIP3   OH240576   0.236   2.571  11.680 -0.1552 -0.0416 -0.5694
 6362TIP3    H140577   0.180   2.524  11.618 -0.1990  0.3012 -0.7927
 6362TIP3    H240578   0.229   2.521  11.762  0.4746 -0.9238 -1.0315
 6363TIP3   OH240579   6.692   1.112  10.676  0.5290  0.0489 -0.2409
 6363TIP3    H140580   6.652   1.049  10.616 -0.0774 -0.7909  1.0127
 6363TIP3    H240581   6.754   1.060  10.728  0.3289  0.5589  0.5238
 6364TIP3   OH240582   1.165   2.233   4.522  0.2821  0.1033 -0.0481
 6364TIP3    H140583   1.103   2.266   4.457 -0.9793 -0.3538  0.8732
 6364TIP3    H240584   1.236   2.195   4.471 -0.8550 -0.5785 -1.1708
 6365TIP3   OH240585   4.067   2.531  14.107  0.7233 -0.6317 -0.0405
 6365TIP3    H140586   3.987   2.487  14.078  0.5706 -0.0353 -0.5497
 6365TIP3    H240587   4.138   2.479  14.071  0.5368  0.1474 -1.6177
 6366TIP3   OH240588   1.190   6.179  12.622 -0.1394  0.4274 -0.2137
 6366TIP3    H140589   1.259   6.217  12.676  0.2484  1.5192 -1.4152
 6366TIP3    H240590   1.237   6.140  12.548 -0.7876  1.2032 -1.0517
 6367TIP3   OH240591   0.438   1.960  16.655  0.3598 -0.0937  0.1020
 6367TIP3    H140592   0.384   1.906  16.598 -0.0525  0.3540  0.0569
 6367TIP3    H240593   0.386   1.968  16.736 -1.4466  3.3733 -1.1993
 6368TIP3   OH240594   3.020   6.089  17.101  0.1384  0.1855 -0.0641
 6368TIP3    H140595   2.932   6.053  17.110 -0.7258  2.1766 -0.1323
 6368TIP3    H240596   3.010   6.162  17.040  1.6303  1.1270  0.7641
 6369TIP3   OH240597   5.031   4.997   0.227 -0.1104  0.2351 -0.0049
 6369TIP3    H140598   5.112   4.978   0.276 -0.1257  0.2583  0.0300
 6369TIP3    H240599   4.993   5.071   0.273 -1.6584 -1.5431  1.8008
 6370TIP3   OH240600   0.501   6.664  16.700  1.4047 -0.5283 -0.7622
 6370TIP3    H140601   0.503   6.572  16.674  3.0470 -0.5830 -0.5483
 6370TIP3    H240602   0.434   6.703  16.644  0.0635 -2.0066 -0.2550
 6371TIP3   OH240603   4.042   5.121   4.627  0.5504 -0.4996 -0.1347
 6371TIP3    H140604   3.960   5.170   4.629  1.3955  0.9671 -0.0968
 6371TIP3    H240605   4.018   5.035   4.591 -1.1565 -0.4639  0.8125
 6372TIP3   OH240606   3.329   0.139  14.185 -0.7599 -0.0502  0.7628
 6372TIP3    H140607   3.390   0.074  14.152 -2.0884 -0.9544  0.0221
 6372TIP3    H240608   3.353   0.150  14.277  1.4875  0.7783  0.1617
 6373TIP3   OH240609   2.570   3.688  15.766  0.1089 -0.6975  0.0603
 6373TIP3    H140610   2.630   3.735  15.823 -1.8014  0.3315  1.3348
 6373TIP3    H240611   2.528   3.624  15.824 -1.6278  0.1365 -0.2200
 6374TIP3   OH240612   2.173   3.087   1.481 -0.7297 -0.0172 -0.2370
 6374TIP3    H140613   2.216   3.161   1.438  1.2066 -1.4324 -0.8875
 6374TIP3    H240614   2.157   3.117   1.570 -1.3355  1.6667 -0.8753
 6375TIP3   OH240615   1.935   2.031  11.381 -0.2635  0.1322  0.6084
 6375TIP3    H140616   1.857   2.057  11.331 -1.3859  0.0817  2.2481
 6375TIP3    H240617   1.910   1.949  11.423  0.3346  0.5935  1.9052
 6376TIP3   OH240618   4.526   1.240  17.501  0.3846 -0.8263  0.5175
 6376TIP3    H140619   4.542   1.178  17.429  0.6561  0.2407 -0.3785
 6376TIP3    H240620   4.478   1.312  17.460 -1.8274 -1.3683  1.9828
 6377TIP3   OH240621   4.269   2.437   5.968  0.1244  0.4131 -0.4309
 6377TIP3    H140622   4.262   2.468   6.058  1.3555 -1.2905  0.3070
 6377TIP3    H240623   4.360   2.454   5.944  1.1018 -2.9850  0.2621
 6378TIP3   OH240624   4.217   4.797   0.497 -0.0607 -0.0057 -0.1240
 6378TIP3    H140625   4.192   4.754   0.415 -0.4218 -1.7476  0.8697
 6378TIP3    H240626   4.312   4.793   0.498 -0.1109 -1.9264  0.5044
 6379TIP3   OH240627   3.167   1.668  13.515  0.6001 -0.7052  0.6632
 6379TIP3    H140628   3.259   1.670  13.489  0.4559 -0.6491  0.1429
 6379TIP3    H240629   3.124   1.729  13.454  0.2381 -0.6568  0.9673
 6380TIP3   OH240630   2.581   2.463   3.714  0.1751  0.5892 -0.1898
 6380TIP3    H140631   2.591   2.448   3.620  1.2007 -2.4338  0.2879
 6380TIP3    H240632   2.649   2.410   3.754 -0.6755  1.2445  2.3001
 6381TIP3   OH240633   2.455   6.441  13.728  0.1007  0.0478  0.1612
 6381TIP3    H140634   2.494   6.436  13.640  1.9482 -1.5317  1.0090
 6381TIP3    H240635   2.528   6.462  13.786 -0.6277 -1.1263  1.5840
 6382TIP3   OH240636   3.785   1.563   3.706 -0.0076 -0.2345  0.5330
 6382TIP3    H140637   3.730   1.530   3.635 -1.9365 -0.6682  2.1081
 6382TIP3    H240638   3.853   1.614   3.663 -2.2851  1.2742 -1.5388
 6383TIP3   OH240639   5.236   1.810  14.920 -0.1787  0.3505  0.0371
 6383TIP3    H140640   5.237   1.905  14.917 -2.7839  0.4598 -1.4013
 6383TIP3    H240641   5.248   1.783  14.829 -0.0303 -0.6750  0.3410
 6384TIP3   OH240642   5.693   2.000  10.824  0.6728 -0.0335  0.0152
 6384TIP3    H140643   5.671   1.913  10.790 -1.0584  1.8284 -4.3722
 6384TIP3    H240644   5.609   2.042  10.838  1.4923  1.2988  1.1738
 6385TIP3   OH240645   6.364   2.425   4.228  0.2645  0.1447  0.2652
 6385TIP3    H140646   6.319   2.347   4.260  0.2121  0.3390  0.6761
 6385TIP3    H240647   6.297   2.493   4.231  0.4829  0.3518  0.5298
 6386TIP3   OH240648   1.343   0.996   1.557  0.2480  0.5633 -0.0118
 6386TIP3    H140649   1.289   1.062   1.514 -0.0660  0.4107  0.1446
 6386TIP3    H240650   1.321   0.914   1.513  1.5730  0.7556 -1.0629
 6387TIP3   OH240651   0.967   0.288  15.194 -0.3067  0.3669 -0.1838
 6387TIP3    H140652   0.940   0.363  15.246  0.1437  1.1379 -1.0238
 6387TIP3    H240653   0.921   0.299  15.110 -0.2376 -0.2949 -0.3173
 6388TIP3   OH240654   3.604   3.176  16.152  0.7857  0.1390  0.2275
 6388TIP3    H140655   3.580   3.188  16.060  0.7873  1.7529  0.3956
 6388TIP3    H240656   3.653   3.094  16.154  1.3350  0.3833 -1.3298
 6389TIP3   OH240657   4.250   0.552   5.399 -1.0578  0.4119  0.3080
 6389TIP3    H140658   4.238   0.636   5.443 -1.7176 -0.0360  1.0243
 6389TIP3    H240659   4.276   0.492   5.469  1.2229  0.3903 -0.4929
 6390TIP3   OH240660   3.539   5.467  12.780 -0.4680  0.0826 -0.2470
 6390TIP3    H140661   3.557   5.552  12.822 -1.1777 -0.6443  1.6530
 6390TIP3    H240662   3.477   5.487  12.710  0.2455  1.2638 -0.5708
 6391TIP3   OH240663   4.163   1.719  12.616 -0.3936  0.5490 -0.0906
 6391TIP3    H140664   4.157   1.765  12.533  0.7353  1.9266  0.5472
 6391TIP3    H240665   4.123   1.779  12.679  0.5257  0.3894  0.6636
 6392TIP3   OH240666   0.401   2.537   0.778  0.8113  0.7659  0.4057
 6392TIP3    H140667   0.449   2.469   0.730  0.8462  0.3698  1.0016
 6392TIP3    H240668   0.429   2.527   0.869 -0.3192  0.5856  0.7481
 6393TIP3   OH240669   3.335   2.696   2.032 -0.8181 -0.3660 -0.3517
 6393TIP3    H140670   3.240   2.690   2.017 -0.9580  0.7232  0.0241
 6393TIP3    H240671   3.366   2.754   1.963 -0.1902 -1.8332 -1.3315
 6394TIP3   OH240672   5.776   0.337   1.877  0.2681  0.4016  0.8455
 6394TIP3    H140673   5.776   0.338   1.972  0.7757  3.0762  0.8930
 6394TIP3    H240674   5.868   0.347   1.852 -0.1000  3.3490  0.2323
 6395TIP3   OH240675   5.790   1.376   2.397 -0.4712  0.6164  0.1327
 6395TIP3    H140676   5.844   1.335   2.329  0.1696 -1.7263  1.8861
 6395TIP3    H240677   5.702   1.377   2.361 -0.6915 -3.1753  0.1406
 6396TIP3   OH240678   5.192   1.430  16.568  0.2477  0.4658 -0.3236
 6396TIP3    H140679   5.264   1.491  16.582  0.7737 -0.3407  0.5534
 6396TIP3    H240680   5.166   1.403  16.656 -1.0114  0.6072 -0.6325
 6397TIP3   OH240681   3.656   0.974   0.935  0.2128 -0.3912 -0.2018
 6397TIP3    H140682   3.689   1.064   0.940  2.2991 -1.1296  0.7498
 6397TIP3    H240683   3.706   0.927   1.002 -1.0575 -2.2048 -0.4549
 6398TIP3   OH240684   1.848   4.533   1.131  0.2043 -0.6416  0.4948
 6398TIP3    H140685   1.844   4.565   1.041  1.4484 -0.5091  0.4694
 6398TIP3    H240686   1.942   4.526   1.150 -0.0236 -2.5371  1.1152
 6399TIP3   OH240687   6.626   4.420  15.811 -0.1516 -0.2352 -0.5590
 6399TIP3    H140688   6.537   4.416  15.774 -0.6876 -0.4015  0.7160
 6399TIP3    H240689   6.674   4.352  15.762 -2.1145 -4.0095  2.2033
 6400TIP3   OH240690   0.471   0.673   3.220 -0.2754  0.5965 -0.6473
 6400TIP3    H140691   0.469   0.580   3.244  1.8448  0.5860 -0.3157
 6400TIP3    H240692   0.538   0.678   3.151 -1.4288  1.6699 -1.7369
 6401TIP3   OH240693   4.527   3.865   5.638  0.4277 -0.2056  0.2814
 6401TIP3    H140694   4.574   3.812   5.573 -1.7749  1.0194 -2.5037
 6401TIP3    H240695   4.554   3.955   5.619 -1.4918  0.3300 -0.1120
 6402TIP3   OH240696   1.789   2.057   3.640  0.5752 -0.3719  0.2515
 6402TIP3    H140697   1.855   2.109   3.685  0.1999  0.8545 -0.5693
 6402TIP3    H240698   1.739   2.120   3.590  0.4201 -1.5854 -1.1908
 6403TIP3   OH240699   3.072   5.074  14.557  0.5556  0.0188 -0.2873
 6403TIP3    H140700   3.036   5.144  14.502 -0.7052 -0.7730 -0.5107
 6403TIP3    H240701   3.033   4.994  14.522  0.3958 -0.5952  1.2169
 6404TIP3   OH240702   2.059   2.931  11.792  0.5890  0.0794  0.1517
 6404TIP3    H140703   2.041   2.889  11.708 -1.7946  0.3827  0.4610
 6404TIP3    H240704   2.020   3.018  11.784  0.2511  0.0832  1.5905
 6405TIP3   OH240705   2.626   3.345   6.724 -0.5026 -0.1821 -0.2097
 6405TIP3    H140706   2.603   3.437   6.709 -2.1302 -0.9297 -3.3534
 6405TIP3    H240707   2.547   3.297   6.700 -0.5761 -2.4204  3.7081
 6406TIP3   OH240708   2.035   0.897   5.953  0.8513  0.6185  0.4278
 6406TIP3    H140709   2.108   0.883   5.893  0.5009  1.2259 -0.1465
 6406TIP3    H240710   2.029   0.992   5.963 -0.3060  0.6193 -0.0926
 6407TIP3   OH240711   5.165   5.014   6.936  0.4142  0.3297 -0.6078
 6407TIP3    H140712   5.131   5.079   6.875 -2.0845 -1.0371 -0.8015
 6407TIP3    H240713   5.144   5.048   7.023  1.9479  1.2015 -0.5386
 6408TIP3   OH240714   3.797   2.148  13.468 -0.1316 -0.5506 -0.2838
 6408TIP3    H140715   3.731   2.160  13.401 -1.6481  2.4909  1.5315
 6408TIP3    H240716   3.749   2.151  13.551  2.0277 -0.3360  1.0604
 6409TIP3   OH240717   3.267   0.602  13.992 -0.0824 -0.4283 -0.2577
 6409TIP3    H140718   3.340   0.631  14.046 -0.5202 -0.3041  0.2769
 6409TIP3    H240719   3.308   0.571  13.911  0.7009 -1.7690  0.6050
 6410TIP3   OH240720   4.017   5.504   2.985 -0.1655 -0.4769 -0.0800
 6410TIP3    H140721   3.969   5.511   3.067  0.0728  0.6397 -0.0215
 6410TIP3    H240722   4.068   5.585   2.980 -0.4765 -0.3443 -1.5114
 6411TIP3   OH240723   1.978   2.574  17.019  0.1539  0.2151 -0.2803
 6411TIP3    H140724   1.967   2.481  17.042  1.2181 -0.1347 -1.0900
 6411TIP3    H240725   2.007   2.572  16.928  1.5292  1.2690  0.1019
 6412TIP3   OH240726   1.071   4.121   6.315  0.1853 -0.9696  0.0483
 6412TIP3    H140727   1.131   4.112   6.241 -0.0268 -1.2780 -0.0899
 6412TIP3    H240728   1.092   4.047   6.372 -0.0957 -1.1137 -0.0285
 6413TIP3   OH240729   1.976   2.829  13.526  0.0069 -0.1423  0.9830
 6413TIP3    H140730   2.048   2.842  13.464  0.8831 -0.3131  1.9463
 6413TIP3    H240731   1.980   2.904  13.585 -0.7552 -0.0386  0.9153
 6414TIP3   OH240732   3.000   5.911   5.371  0.2466  0.1546  0.0562
 6414TIP3    H140733   3.002   5.874   5.459  1.7836  0.0105  0.0006
 6414TIP3    H240734   3.091   5.938   5.354 -0.4508  2.3434 -0.5948
 6415TIP3   OH240735   5.462   3.049   5.713  0.4446  0.6504 -0.0636
 6415TIP3    H140736   5.524   3.094   5.770 -0.7280  0.9064  1.0406
 6415TIP3    H240737   5.378   3.059   5.756 -0.4747  0.7890 -1.8010
 6416TIP3   OH240738   5.777   4.959   4.679 -0.1990 -0.1086 -0.1086
 6416TIP3    H140739   5.718   4.887   4.699 -0.4207  0.1298  0.1036
 6416TIP3    H240740   5.727   5.016   4.620 -1.5088  1.8473  2.6254
 6417TIP3   OH240741   3.308   4.692  11.829 -0.1391 -0.1888 -0.1317
 6417TIP3    H140742   3.270   4.605  11.822 -1.4123  0.4080 -1.0530
 6417TIP3    H240743   3.260   4.734  11.900 -0.1201  0.0385 -0.2521
 6418TIP3   OH240744   2.881   5.527  12.359  0.6965  0.3571 -0.0468
 6418TIP3    H140745   2.950   5.461  12.358  0.8618  0.4098  2.2789
 6418TIP3    H240746   2.853   5.531  12.450 -1.8131  0.9640 -0.7686
 6419TIP3   OH240747   2.005   0.386  17.559 -0.5262 -0.0103 -0.6341
 6419TIP3    H140748   2.066   0.314  17.543 -1.3268 -0.8266 -0.1293
 6419TIP3    H240749   2.028   0.417  17.647 -1.0317 -0.5339 -0.3089
 6420TIP3   OH240750   2.423   2.881   1.748 -0.1296 -0.0423 -0.4585
 6420TIP3    H140751   2.486   2.879   1.820 -0.3822  0.8794 -0.1993
 6420TIP3    H240752   2.370   2.802   1.761 -0.7836  0.5783  0.9367
 6421TIP3   OH240753   1.938   4.493   5.364 -0.6593  0.4146 -0.0587
 6421TIP3    H140754   1.999   4.470   5.294  1.1552  1.2972  1.1621
 6421TIP3    H240755   1.952   4.426   5.431  0.5976  1.8101  1.1436
 6422TIP3   OH240756   2.185   2.797  15.528 -0.0252  0.4132 -0.3019
 6422TIP3    H140757   2.096   2.763  15.536 -0.3171  1.5363  1.7217
 6422TIP3    H240758   2.240   2.734  15.574  0.4356 -0.7610 -2.3113
 6423TIP3   OH240759   1.472   5.359   3.981 -0.0225  0.8162 -0.5591
 6423TIP3    H140760   1.410   5.400   4.040 -1.4256 -1.3243 -0.4185
 6423TIP3    H240761   1.418   5.327   3.908  1.1432  0.3125 -1.2329
 6424TIP3   OH240762   3.777   0.783  14.890  0.2261  0.3067  0.1794
 6424TIP3    H140763   3.752   0.771  14.799 -2.3596 -2.3501  1.0784
 6424TIP3    H240764   3.858   0.833  14.886 -1.0120  2.4388 -3.4339
 6425TIP3   OH240765   2.455   5.494   5.630  0.2026  0.1712 -0.0476
 6425TIP3    H140766   2.510   5.491   5.708  1.3214 -0.4383 -0.8289
 6425TIP3    H240767   2.470   5.410   5.586 -1.7355 -0.2248 -0.0537
 6426TIP3   OH240768   5.037   4.196   2.912  0.4963 -0.5373  0.0519
 6426TIP3    H140769   5.130   4.203   2.891  0.3060 -1.9556 -1.4793
 6426TIP3    H240770   5.033   4.130   2.981  0.6199 -0.6845 -0.0793
 6427TIP3   OH240771   1.240   4.253   0.939 -0.3169  0.7582 -0.3607
 6427TIP3    H140772   1.252   4.166   0.902 -0.2163 -0.2454  1.8605
 6427TIP3    H240773   1.164   4.288   0.893 -1.1206 -0.9968 -0.4484
 6428TIP3   OH240774   4.515   0.123   4.632  0.1517 -0.9477  0.1037
 6428TIP3    H140775   4.599   0.110   4.588 -0.0026  0.2457 -0.6218
 6428TIP3    H240776   4.459   0.052   4.599  0.5472 -1.0694 -0.3123
 6429TIP3   OH240777   0.680   0.458  12.040  0.1291  0.4559  0.2168
 6429TIP3    H140778   0.680   0.371  11.999  0.6762  0.7565 -0.4144
 6429TIP3    H240779   0.588   0.486  12.035  0.0753  0.2129 -0.1964
 6430TIP3   OH240780   3.708   0.412   3.231 -0.1277 -0.0613  0.0810
 6430TIP3    H140781   3.780   0.441   3.287 -1.1600  1.6944  0.6012
 6430TIP3    H240782   3.662   0.346   3.283 -0.9730  1.4223  1.3328
 6431TIP3   OH240783   3.794   0.575  12.819  0.1916  0.0963  0.0727
 6431TIP3    H140784   3.873   0.628  12.813  0.2472  0.0660  0.4875
 6431TIP3    H240785   3.805   0.525  12.900  0.3266 -0.8563 -0.5288
 6432TIP3   OH240786   1.880   4.092  15.280 -0.3124 -0.4489  0.3640
 6432TIP3    H140787   1.911   4.055  15.363 -0.0280  0.5748  0.7270
 6432TIP3    H240788   1.804   4.145  15.304  1.1227  1.7398  0.3558
 6433TIP3   OH240789   5.145   4.412   0.487 -0.0599 -0.1433 -0.1961
 6433TIP3    H140790   5.222   4.418   0.543  0.3000 -1.2225 -0.5485
 6433TIP3    H240791   5.121   4.503   0.470  1.4820  0.2406 -0.5267
 6434TIP3   OH240792   5.338   4.186  16.351 -0.1515 -0.0827 -0.0373
 6434TIP3    H140793   5.299   4.101  16.370 -0.2973 -0.3559 -1.4641
 6434TIP3    H240794   5.331   4.235  16.433  0.1722 -1.5291  0.8848
 6435TIP3   OH240795   3.281   6.010  14.512 -0.1758 -0.3829  0.0571
 6435TIP3    H140796   3.221   6.064  14.461 -0.4216 -0.6574  0.0557
 6435TIP3    H240797   3.367   6.026  14.473  0.1236  1.7139  1.4257
 6436TIP3   OH240798   6.189   3.008  16.010 -0.3434 -0.3708 -0.0476
 6436TIP3    H140799   6.281   3.029  15.991  0.0106 -2.9575 -1.6832
 6436TIP3    H240800   6.184   3.007  16.105  1.3013 -0.0994  0.0764
 6437TIP3   OH240801   6.060   0.415  17.320  0.1669  0.4931 -0.1040
 6437TIP3    H140802   5.996   0.344  17.313  0.8888 -0.4151  1.7511
 6437TIP3    H240803   6.029   0.468  17.394  1.4557  0.0945  0.7547
 6438TIP3   OH240804   0.196   5.789   4.152 -0.2990  0.3902  0.3401
 6438TIP3    H140805   0.257   5.788   4.225 -1.3352  0.7754  1.2370
 6438TIP3    H240806   0.240   5.840   4.084  0.7140 -0.0594  0.6402
 6439TIP3   OH240807   3.973   5.634  15.704  0.4083  0.4101 -0.4283
 6439TIP3    H140808   3.947   5.696  15.772  2.1373 -0.2526  0.9303
 6439TIP3    H240809   3.891   5.602  15.667 -0.7642 -0.9542  2.9703
 6440TIP3   OH240810   4.214   3.478   4.067  0.1681 -0.4713 -0.0328
 6440TIP3    H140811   4.271   3.503   4.140  0.8070 -0.1061 -0.6370
 6440TIP3    H240812   4.191   3.561   4.026  0.5799 -0.7246 -0.7967
 6441TIP3   OH240813   3.936   4.691  15.848  0.0574 -0.1116 -0.1196
 6441TIP3    H140814   3.909   4.683  15.756  1.7875  0.9954 -0.7788
 6441TIP3    H240815   3.988   4.771  15.850  1.4032 -0.9775  1.4834
 6442TIP3   OH240816   1.481   5.477   6.023  0.1555 -0.4114 -0.1501
 6442TIP3    H140817   1.490   5.523   5.940  2.8183  1.9646  1.2784
 6442TIP3    H240818   1.399   5.508   6.060 -0.3596 -0.4207 -1.2466
 6443TIP3   OH240819   3.621   4.020   2.601  0.0844 -0.0065  0.0595
 6443TIP3    H140820   3.582   4.107   2.604 -2.6664 -1.1552  2.2923
 6443TIP3    H240821   3.713   4.034   2.620 -0.3418  2.3859  0.6298
 6444TIP3   OH240822   4.485   0.181  11.602 -0.3876  0.1985 -0.1821
 6444TIP3    H140823   4.508   0.274  11.604  0.2053  0.0985 -1.3353
 6444TIP3    H240824   4.552   0.139  11.656 -0.2291  0.3598 -0.2523
 6445TIP3   OH240825   0.791   3.829  14.203 -0.2336 -0.1377 -0.1998
 6445TIP3    H140826   0.852   3.860  14.270 -0.3495 -0.8400  0.2520
 6445TIP3    H240827   0.739   3.905  14.180  1.2690  0.6751 -1.1304
 6446TIP3   OH240828   5.704   5.324  16.961  0.3829  0.3585  0.6035
 6446TIP3    H140829   5.684   5.414  16.986 -2.4507 -0.4283  1.4924
 6446TIP3    H240830   5.733   5.283  17.042  2.3398  0.5574  0.0634
 6447TIP3   OH240831   5.203   3.984   5.851  0.3046  0.1885 -0.4987
 6447TIP3    H140832   5.185   4.071   5.814 -0.5251  0.2705  0.0732
 6447TIP3    H240833   5.143   3.977   5.925  0.9253 -0.5617 -0.0591
 6448TIP3   OH240834   5.428   2.920  17.371 -0.1790  0.1160  0.7612
 6448TIP3    H140835   5.359   2.893  17.433  0.3555  0.3754  1.4900
 6448TIP3    H240836   5.395   2.893  17.285 -0.6000 -0.9675  1.2330
 6449TIP3   OH240837   0.135   5.320  12.399  0.3396 -0.0130 -0.1275
 6449TIP3    H140838   0.182   5.362  12.471 -0.2399  1.4131 -0.5514
 6449TIP3    H240839   0.044   5.343  12.413  0.2701  0.6789 -1.5582
 6450TIP3   OH240840   5.367   3.106   1.569 -0.4923 -0.0000  0.5235
 6450TIP3    H140841   5.316   3.142   1.641 -1.3024 -0.2531  0.0954
 6450TIP3    H240842   5.310   3.039   1.531  0.0864 -0.1516 -0.0985
 6451TIP3   OH240843   2.709   1.854  17.434  0.3319 -0.9354 -0.4441
 6451TIP3    H140844   2.645   1.922  17.417  1.2896 -0.0679 -0.7212
 6451TIP3    H240845   2.708   1.843  17.529  1.2069  0.5519 -0.2287
 6452TIP3   OH240846   3.523   6.575  14.846  0.3526  0.0524  0.1627
 6452TIP3    H140847   3.427   6.582  14.846  0.2501 -1.1983  0.0602
 6452TIP3    H240848   3.553   6.666  14.845 -0.8387  0.4709 -1.2504
 6453TIP3   OH240849   4.912   3.692   4.106 -0.5978 -0.4317 -0.0752
 6453TIP3    H140850   4.863   3.756   4.055  1.9452  1.5363 -0.2758
 6453TIP3    H240851   4.914   3.728   4.194  0.2523 -0.5854 -0.0241
 6454TIP3   OH240852   1.417   5.789   5.426  0.2784 -0.1138  0.5845
 6454TIP3    H140853   1.431   5.754   5.338 -0.6763 -0.2791  0.4837
 6454TIP3    H240854   1.410   5.884   5.413  2.0334  0.0705  0.7497
 6455TIP3   OH240855   5.450   5.482  15.415 -0.0044  0.6057 -0.3378
 6455TIP3    H140856   5.396   5.553  15.380  0.4315  1.3294  0.4219
 6455TIP3    H240857   5.494   5.520  15.490  3.0455  0.6511 -1.9894
 6456TIP3   OH240858   3.256   3.994   3.133 -0.7053 -0.3340  0.5558
 6456TIP3    H140859   3.291   3.985   3.045  1.5694  0.0122  1.3582
 6456TIP3    H240860   3.176   4.044   3.122 -1.8661 -2.4526 -1.5551
 6457TIP3   OH240861   0.635   5.414  16.490  0.0780 -0.0833 -0.6816
 6457TIP3    H140862   0.558   5.361  16.468  0.1744 -0.4064 -0.2410
 6457TIP3    H240863   0.699   5.351  16.522 -1.0121  0.5892  3.3400
 6458TIP3   OH240864   0.845   4.120  15.602  0.5759  0.3240 -0.2061
 6458TIP3    H140865   0.753   4.101  15.586  0.1539  0.9532  1.2324
 6458TIP3    H240866   0.844   4.209  15.638  1.6798  0.1257  0.3480
 6459TIP3   OH240867   5.234   2.802   0.665  0.5549  0.8485 -0.1921
 6459TIP3    H140868   5.285   2.776   0.587  0.2414  2.0600 -0.8322
 6459TIP3    H240869   5.185   2.724   0.688 -0.6346  0.8956 -2.2582
 6460TIP3   OH240870   0.173   0.413   6.057  0.3343  0.1546  0.4616
 6460TIP3    H140871   0.146   0.493   6.102 -0.3427 -0.3762  1.0261
 6460TIP3    H240872   0.190   0.350   6.127  1.6542  0.0321  0.0586
 6461TIP3   OH240873   2.111   4.986  14.071 -0.7505  0.5092  0.3031
 6461TIP3    H140874   2.105   5.079  14.048 -0.4368  0.6229  0.6660
 6461TIP3    H240875   2.024   4.952  14.054 -0.7321  0.7552 -0.3169
 6462TIP3   OH240876   3.701   3.404   0.345  0.3141 -0.1235 -0.3208
 6462TIP3    H140877   3.660   3.385   0.261 -0.4177 -1.8796  0.3654
 6462TIP3    H240878   3.789   3.368   0.338  0.4236  0.1859 -0.5119
 6463TIP3   OH240879   5.316   4.780   5.754  0.1645  0.2170 -0.3342
 6463TIP3    H140880   5.338   4.756   5.664 -0.7121  0.0308 -0.5131
 6463TIP3    H240881   5.288   4.698   5.794  2.6186 -0.1489  0.7933
 6464TIP3   OH240882   1.097   2.908   0.303 -0.4202 -0.1490  0.4589
 6464TIP3    H140883   1.137   2.833   0.258  0.1431  0.9142 -0.8627
 6464TIP3    H240884   1.067   2.965   0.232 -0.6873  0.9710  1.4512
 6465TIP3   OH240885   5.208   2.884  12.670 -0.4078  0.1470 -0.6234
 6465TIP3    H140886   5.221   2.903  12.577 -0.5169  3.0815 -0.1554
 6465TIP3    H240887   5.134   2.824  12.672  0.4368 -1.0727 -2.4408
 6466TIP3   OH240888   1.237   3.477   3.686 -0.5908  0.3857  0.4386
 6466TIP3    H140889   1.190   3.484   3.770 -0.5411  2.3275  0.3530
 6466TIP3    H240890   1.186   3.413   3.636 -1.8698  0.7774  1.1739
 6467TIP3   OH240891   2.468   1.697  15.294  0.0125 -0.1713 -0.6479
 6467TIP3    H140892   2.556   1.714  15.259  0.4312 -0.0762  0.4227
 6467TIP3    H240893   2.455   1.765  15.359 -0.0829 -1.2803  0.5397
 6468TIP3   OH240894   0.190   3.343  15.412 -0.3241 -0.5020 -0.0726
 6468TIP3    H140895   0.142   3.279  15.465 -1.2819 -0.9222 -1.4043
 6468TIP3    H240896   0.154   3.427  15.439  0.0974 -0.5994  0.8383
 6469TIP3   OH240897   1.370   3.573   1.571  0.4238  0.2708 -0.3993
 6469TIP3    H140898   1.370   3.477   1.579 -1.2474  0.0811 -2.0122
 6469TIP3    H240899   1.463   3.596   1.568  0.8619 -1.3556 -0.5772
 6470TIP3   OH240900   2.193   3.247  14.979  0.5409 -0.1010 -0.1403
 6470TIP3    H140901   2.264   3.185  14.995  0.3482 -0.3874 -0.3970
 6470TIP3    H240902   2.216   3.324  15.032  1.3894  0.0775 -0.7661
 6471TIP3   OH240903   4.694   3.611   0.037  0.3005  0.4962  0.0957
 6471TIP3    H140904   4.667   3.520   0.027 -1.4156  1.1951 -2.9194
 6471TIP3    H240905   4.626   3.650   0.093  1.6704 -0.2277  2.3815
 6472TIP3   OH240906   0.098   5.939   5.996 -0.3568 -0.2572 -0.0029
 6472TIP3    H140907   0.045   5.977   6.066  0.7039 -1.0992  1.3037
 6472TIP3    H240908   0.187   5.967   6.016 -0.1235  0.0691 -1.4326
 6473TIP3   OH240909   1.573   5.565   0.668 -0.0951 -0.6554  0.0391
 6473TIP3    H140910   1.479   5.585   0.667  0.0880  0.3331  0.8370
 6473TIP3    H240911   1.577   5.470   0.658 -1.1422 -0.6377 -0.8225
 6474TIP3   OH240912   0.934   4.530  14.842  0.1611 -0.9129  0.0179
 6474TIP3    H140913   1.003   4.536  14.775  0.1282 -0.3728  0.0288
 6474TIP3    H240914   0.916   4.621  14.866  0.2488 -1.1114  0.8466
 6475TIP3   OH240915   5.995   3.061  16.429  0.5022 -0.1686 -0.3633
 6475TIP3    H140916   6.029   3.150  16.416  0.9216 -0.2192  0.3759
 6475TIP3    H240917   5.928   3.071  16.497  1.1205 -0.5463  0.3055
 6476TIP3   OH240918   4.233   6.317   0.794 -0.2743  0.0275 -0.0601
 6476TIP3    H140919   4.170   6.288   0.860  1.4390  0.0075  1.6732
 6476TIP3    H240920   4.276   6.237   0.764 -1.3733 -0.0195 -1.6330
 6477TIP3   OH240921   4.591   2.366   1.193  0.2948  0.1067  0.0328
 6477TIP3    H140922   4.676   2.360   1.237 -0.5003 -0.5592  1.5702
 6477TIP3    H240923   4.598   2.305   1.119  1.7548  1.4515 -1.0050
 6478TIP3   OH240924   0.705   0.202   4.582  0.1224  0.1119 -0.9914
 6478TIP3    H140925   0.686   0.187   4.674 -0.7568  1.6249 -0.8961
 6478TIP3    H240926   0.689   0.295   4.568  1.8860  0.2806 -2.3040
 6479TIP3   OH240927   3.721   5.774  17.413 -0.3754  0.3383  0.3971
 6479TIP3    H140928   3.660   5.838  17.450 -0.2340  0.3125  0.6718
 6479TIP3    H240929   3.769   5.739  17.488  1.0280  1.4280  0.0507
 6480TIP3   OH240930   1.480   4.906   5.479 -0.1628  0.1951  0.3374
 6480TIP3    H140931   1.547   4.865   5.534  1.5203  1.2643 -0.7908
 6480TIP3    H240932   1.463   4.990   5.521  0.0403  0.3917  0.0343
 6481TIP3   OH240933   5.332   6.311  14.662 -0.1373 -0.3000 -0.0139
 6481TIP3    H140934   5.296   6.258  14.591  1.6500  0.2129 -1.4126
 6481TIP3    H240935   5.258   6.364  14.693 -1.4782 -2.1513  0.0801
 6482TIP3   OH240936   1.783   4.113   4.421  0.1802 -0.2654  0.2613
 6482TIP3    H140937   1.818   4.026   4.441  2.5217  0.1607 -1.5164
 6482TIP3    H240938   1.857   4.172   4.437 -0.8583  1.1922 -0.1881
 6483TIP3   OH240939   1.233   0.450  16.727 -0.0250 -0.0135  0.3635
 6483TIP3    H140940   1.249   0.357  16.708  0.3616  0.2573 -0.6731
 6483TIP3    H240941   1.150   0.450  16.776 -0.1136 -0.8946  0.2291
 6484TIP3   OH240942   5.668   6.366   3.701 -0.2512 -0.2911  0.2039
 6484TIP3    H140943   5.576   6.361   3.726 -0.4288  1.3723 -0.0320
 6484TIP3    H240944   5.669   6.358   3.606  0.0449 -2.2281  0.3350
 6485TIP3   OH240945   3.972   6.482   5.278  0.3026 -0.4481 -0.5118
 6485TIP3    H140946   3.946   6.540   5.206  0.9463  0.2275 -0.2196
 6485TIP3    H240947   3.894   6.477   5.334  0.4726  0.8133 -0.1203
 6486TIP3   OH240948   6.376   1.182  15.015  0.0762 -0.7005 -0.1748
 6486TIP3    H140949   6.382   1.155  15.106 -1.2811 -0.1933  0.0995
 6486TIP3    H240950   6.302   1.132  14.980  0.4315 -0.7114 -0.9370
 6487TIP3   OH240951   2.990   3.387  11.667  0.0983  0.0825  0.0147
 6487TIP3    H140952   3.008   3.348  11.582 -1.2311  0.0915 -0.2848
 6487TIP3    H240953   2.997   3.481  11.652 -0.1652  0.0851 -0.0906
 6488TIP3   OH240954   4.713   3.606   3.749  0.0706 -1.0122  0.1479
 6488TIP3    H140955   4.721   3.688   3.699  2.9650  1.0843  3.5506
 6488TIP3    H240956   4.628   3.612   3.792 -0.7247 -0.9631 -1.3614
 6489TIP3   OH240957   6.389   5.095   5.394  0.4401  0.3750 -0.5148
 6489TIP3    H140958   6.427   5.017   5.354 -1.0464  0.2243 -1.7141
 6489TIP3    H240959   6.388   5.076   5.488  3.2834  0.4066 -0.3769
 6490TIP3   OH240960   1.800   5.873   1.040 -0.5285  0.0158  0.2329
 6490TIP3    H140961   1.835   5.799   0.990 -1.1824 -0.8853  1.0589
 6490TIP3    H240962   1.854   5.877   1.119  0.4903  1.4215 -0.5104
 6491TIP3   OH240963   0.501   0.742  14.989 -0.1610 -0.4355 -0.1684
 6491TIP3    H140964   0.429   0.679  14.999 -1.0101  0.4929 -0.3271
 6491TIP3    H240965   0.472   0.820  15.036  1.1510 -0.3609  0.5445
 6492TIP3   OH240966   4.918   0.561   5.071  0.8094  0.4731  0.1422
 6492TIP3    H140967   4.990   0.499   5.083 -1.4430 -2.2123  0.9421
 6492TIP3    H240968   4.847   0.509   5.034 -1.3097  2.5210  1.0201
 6493TIP3   OH240969   2.660   4.697  14.362  0.2866 -0.3500  0.0760
 6493TIP3    H140970   2.733   4.644  14.394 -0.6048 -0.0920  2.8149
 6493TIP3    H240971   2.597   4.633  14.329  1.3673 -0.6191 -1.5713
 6494TIP3   OH240972   6.285   1.588   0.615 -0.1971 -0.3838  0.1755
 6494TIP3    H140973   6.215   1.559   0.674 -0.8550  0.8599  0.0590
 6494TIP3    H240974   6.251   1.569   0.528 -0.0021 -0.5875  0.1445
 6495TIP3   OH240975   4.962   4.126  11.054  0.1676  0.1699 -0.4091
 6495TIP3    H140976   4.986   4.056  11.114 -0.6654 -0.8862 -1.2678
 6495TIP3    H240977   4.886   4.168  11.095 -0.8799 -1.0340 -1.0275
 6496TIP3   OH240978   5.988   3.023  12.681 -0.4404  0.0745 -0.1285
 6496TIP3    H140979   6.016   3.062  12.598 -1.1900  1.4768  0.2328
 6496TIP3    H240980   5.940   3.094  12.725  0.9023 -0.2748  2.0081
 6497TIP3   OH240981   1.815   5.928  15.280  0.2193  0.1736  0.1039
 6497TIP3    H140982   1.820   5.872  15.357  2.2136  0.7761  0.4457
 6497TIP3    H240983   1.806   6.016  15.314  2.0811  0.5461 -0.2942
 6498TIP3   OH240984   5.916   5.834  13.762 -0.2364 -0.7745 -0.4047
 6498TIP3    H140985   5.879   5.909  13.809 -1.4885 -0.5577 -1.6549
 6498TIP3    H240986   6.002   5.820  13.802  0.2220  1.6150 -0.4338
 6499TIP3   OH240987   3.898   5.024  15.521  0.5699  0.2216 -0.5583
 6499TIP3    H140988   3.847   5.096  15.484  1.1566  1.0534  0.1952
 6499TIP3    H240989   3.960   5.067  15.580  0.7975 -0.9249  0.0641
 6500TIP3   OH240990   4.553   5.364   1.725 -0.1162 -0.8352 -0.1011
 6500TIP3    H140991   4.548   5.312   1.645 -0.7143  0.1858 -0.7472
 6500TIP3    H240992   4.475   5.339   1.775 -1.1398  0.3852 -1.0252
 6501TIP3   OH240993   4.024   2.306  13.359 -0.3721 -0.2430  0.1536
 6501TIP3    H140994   3.957   2.316  13.292 -1.5198 -2.2055  0.9103
 6501TIP3    H240995   3.976   2.278  13.437  1.1873 -0.3890  1.1113
 6502TIP3   OH240996   1.041   4.314   5.470  0.1914 -0.2711 -0.4962
 6502TIP3    H140997   1.083   4.290   5.387 -0.1708 -1.2482 -0.4173
 6502TIP3    H240998   1.040   4.232   5.521  0.5562  0.3493  0.5391
 6503TIP3   OH240999   2.158   5.480   5.822  0.5193 -0.2547  0.1580
 6503TIP3    H141000   2.148   5.569   5.856  1.4762  0.8023 -2.0804
 6503TIP3    H241001   2.245   5.453   5.853  0.8737  0.2115 -0.4137
 6504TIP3   OH241002   3.257   1.464   4.517  0.4608  0.0615  0.0660
 6504TIP3    H141003   3.302   1.382   4.500 -1.6324 -1.2921  0.7046
 6504TIP3    H241004   3.191   1.443   4.583 -2.3887  1.3739 -2.0860
 6505TIP3   OH241005   1.225   2.755  13.094  0.4072 -0.2379  0.3072
 6505TIP3    H141006   1.168   2.788  13.024 -1.0617 -0.1595  1.4988
 6505TIP3    H241007   1.166   2.734  13.166  1.8069 -1.0374  1.2729
 6506TIP3   OH241008   0.014   4.392  17.236 -0.4404 -0.4218  0.0857
 6506TIP3    H141009  -0.043   4.349  17.300 -0.6714 -0.2544 -0.0060
 6506TIP3    H241010   0.101   4.387  17.275 -0.9723  2.5651  2.0121
 6507TIP3   OH241011   4.632   4.312  14.592  0.0106 -0.0517 -0.2794
 6507TIP3    H141012   4.687   4.361  14.654  1.4266 -0.5697 -1.0746
 6507TIP3    H241013   4.585   4.379  14.544  2.2580  0.6379 -1.6678
 6508TIP3   OH241014   3.356   4.483   3.181 -0.0295 -0.0237  0.2337
 6508TIP3    H141015   3.288   4.528   3.131  0.1278  0.7992  0.7259
 6508TIP3    H241016   3.310   4.450   3.259 -0.3267 -1.5234 -0.5484
 6509TIP3   OH241017   0.384   6.266   2.203  0.1192 -0.6909 -0.0923
 6509TIP3    H141018   0.417   6.294   2.288 -0.1975 -1.8147  0.4182
 6509TIP3    H241019   0.454   6.290   2.141 -0.8018  2.6981 -0.0068
 6510TIP3   OH241020   2.736   5.825   4.844  0.3446  0.2310 -0.0997
 6510TIP3    H141021   2.680   5.895   4.877 -0.3373 -0.2183 -0.2703
 6510TIP3    H241022   2.783   5.864   4.771 -0.0065  0.5245 -0.1719
 6511TIP3   OH241023   4.018   5.777   7.074  0.9822  0.4058  0.5454
 6511TIP3    H141024   4.067   5.859   7.071  0.2663  1.0399  3.3074
 6511TIP3    H241025   4.064   5.719   7.013  3.7624  1.6919  1.2478
 6512TIP3   OH241026   5.954   2.136  15.534 -0.0275 -0.7770  0.4053
 6512TIP3    H141027   5.913   2.052  15.512  0.1930 -0.6551 -0.4938
 6512TIP3    H241028   5.885   2.185  15.579 -1.0861 -0.3887 -1.5079
 6513TIP3   OH241029   1.586   3.500  14.009 -0.3025  0.1634 -0.5592
 6513TIP3    H141030   1.516   3.443  14.042 -0.9371  1.7903  1.0335
 6513TIP3    H241031   1.571   3.503  13.914 -2.1346  0.1226 -0.3122
 6514TIP3   OH241032   3.699   0.945   5.222 -0.2359  0.3089 -0.4794
 6514TIP3    H141033   3.736   1.031   5.206  0.7630 -0.2455 -1.2145
 6514TIP3    H241034   3.605   0.961   5.229  0.0030  1.5708  0.2600
 6515TIP3   OH241035   0.591   1.101  15.434 -0.2496 -0.0319 -0.2425
 6515TIP3    H141036   0.619   1.022  15.389 -0.4497 -0.7040  0.7924
 6515TIP3    H241037   0.618   1.172  15.376 -0.6182 -0.8713 -1.4836
 6516TIP3   OH241038   0.593   6.424  12.352  0.2386 -0.1868 -0.5964
 6516TIP3    H141039   0.663   6.489  12.365 -1.1652  1.3583 -0.5229
 6516TIP3    H241040   0.635   6.354  12.301  2.2438 -0.0470  0.7148
 6517TIP3   OH241041   0.814   3.810  17.178  0.1975  0.5170  0.0605
 6517TIP3    H141042   0.839   3.719  17.162 -0.1338 -0.2119  3.0944
 6517TIP3    H241043   0.724   3.805  17.209 -0.0432  1.9773 -0.3399
 6518TIP3   OH241044   5.998   1.786  12.124  0.5581 -0.2230 -0.6574
 6518TIP3    H141045   5.903   1.773  12.130  0.5372  0.1166 -0.2413
 6518TIP3    H241046   6.032   1.700  12.098 -0.0580  0.2075 -3.1099
 6519TIP3   OH241047   5.560   5.036  17.483  0.1224  0.1662 -0.5016
 6519TIP3    H141048   5.509   4.978  17.539  2.4885  0.3137  2.0002
 6519TIP3    H241049   5.517   5.121  17.491  0.5077  0.2354  1.3717
 6520TIP3   OH241050   5.692   1.852  16.656 -0.0663  0.0124 -0.1618
 6520TIP3    H141051   5.738   1.792  16.596 -0.6915 -2.3965  1.6375
 6520TIP3    H241052   5.762   1.890  16.710  0.2056 -0.2725 -0.3108
 6521TIP3   OH241053   2.644   4.560  11.918 -0.3696 -0.0258 -0.3590
 6521TIP3    H141054   2.678   4.590  11.834  1.4384 -2.3913 -0.5812
 6521TIP3    H241055   2.558   4.600  11.925  0.9780  3.4212 -1.4509
 6522TIP3   OH241056   5.208   1.030  16.310 -0.2849  0.5007 -0.0469
 6522TIP3    H141057   5.256   1.106  16.278 -0.2863  0.3358 -0.4541
 6522TIP3    H241058   5.274   0.962  16.321 -0.1613  0.7783  1.0559
 6523TIP3   OH241059   1.872   0.129  12.325  0.4696  0.0296 -0.2234
 6523TIP3    H141060   1.929   0.061  12.359 -1.1115 -0.6804  1.1820
 6523TIP3    H241061   1.821   0.085  12.257  0.2745  0.1358 -0.1461
 6524TIP3   OH241062   3.916   0.620  16.411  0.4310  0.7571  0.5597
 6524TIP3    H141063   3.908   0.553  16.480  0.7967  0.5880  0.4381
 6524TIP3    H241064   3.969   0.689  16.450  0.6180  0.6722  0.4571
 6525TIP3   OH241065   2.991   6.716  17.014 -0.6427 -0.1675 -0.5591
 6525TIP3    H141066   2.936   6.794  17.003  0.9006  1.1211  0.3527
 6525TIP3    H241067   3.037   6.707  16.931  1.4047  1.7972  0.2341
 6526TIP3   OH241068   2.893   0.398  16.193 -0.4534 -0.0714 -0.3927
 6526TIP3    H141069   2.948   0.476  16.202  2.0623 -1.4548 -2.4919
 6526TIP3    H241070   2.842   0.414  16.114 -1.9041  0.4767  0.6112
 6527TIP3   OH241071   5.500   0.768   4.788 -0.5883  0.2619 -0.1328
 6527TIP3    H141072   5.428   0.708   4.773 -1.9201  1.8477 -0.3874
 6527TIP3    H241073   5.553   0.762   4.708 -1.7351  0.7624 -0.9674
 6528TIP3   OH241074   5.233   5.600   6.245 -0.1996  0.2761  0.3046
 6528TIP3    H141075   5.283   5.581   6.324  2.3493 -0.3607 -1.3679
 6528TIP3    H241076   5.195   5.687   6.261  2.3647  1.3082  1.2428
 6529TIP3   OH241077   6.519   6.403  10.668  0.1672  0.0987 -0.5089
 6529TIP3    H141078   6.449   6.468  10.671  0.8911  0.9048 -0.7990
 6529TIP3    H241079   6.599   6.454  10.658  0.7028 -0.8540 -1.2887
 6530TIP3   OH241080   4.924   4.630   1.012  0.7564  0.2096 -0.5235
 6530TIP3    H141081   4.884   4.686   1.078  0.5900  0.4073 -0.7882
 6530TIP3    H241082   4.949   4.691   0.941 -0.1538 -0.1508 -1.1661
 6531TIP3   OH241083   3.094   3.449   2.384  0.0685  0.6897  0.6024
 6531TIP3    H141084   3.043   3.530   2.389 -1.5916 -0.3699  3.2727
 6531TIP3    H241085   3.117   3.430   2.475  1.2884 -1.3294 -0.0607
 6532TIP3   OH241086   4.106   5.990   0.742  0.3545 -0.2889 -0.1591
 6532TIP3    H141087   4.107   5.897   0.766  1.9454 -0.7600 -1.8481
 6532TIP3    H241088   4.139   5.992   0.652  1.1046  1.9999  0.1063
 6533TIP3   OH241089   6.352   5.186  17.230  0.3490  0.0262  0.2622
 6533TIP3    H141090   6.354   5.172  17.325  1.4211  1.5323  0.4820
 6533TIP3    H241091   6.442   5.169  17.202  1.0230  3.2706  0.1224
 6534TIP3   OH241092   3.986   6.504   2.510  0.4002 -0.0905  0.0821
 6534TIP3    H141093   4.005   6.524   2.601  0.5338  1.5427 -0.2742
 6534TIP3    H241094   4.060   6.451   2.481  0.2097 -0.8807  0.9809
 6535TIP3   OH241095   1.204   6.365   4.421 -0.2611  0.4245  0.5448
 6535TIP3    H141096   1.210   6.418   4.342 -0.1590  1.1309  1.0232
 6535TIP3    H241097   1.161   6.421   4.485 -0.3225 -0.1319  0.9999
 6536TIP3   OH241098   4.233   4.185  12.891 -0.2436 -0.2655 -0.2335
 6536TIP3    H141099   4.228   4.197  12.986  0.9731 -0.7619 -0.0884
 6536TIP3    H241100   4.188   4.102  12.875 -0.6892 -0.0450 -0.1233
 6537TIP3   OH241101   6.447   1.350  16.724 -0.4243  0.2571 -0.0717
 6537TIP3    H141102   6.476   1.410  16.654 -0.8549  1.1057  0.4696
 6537TIP3    H241103   6.360   1.381  16.748 -0.1017  0.2373  1.1488
 6538TIP3   OH241104   2.156   5.520  11.732 -0.4694  0.0272 -0.0425
 6538TIP3    H141105   2.226   5.457  11.743 -1.7941 -1.4976  0.0437
 6538TIP3    H241106   2.113   5.494  11.650 -1.3665  0.4851  0.2661
 6539TIP3   OH241107   0.884   3.486  13.622  0.2194  0.7749 -0.3831
 6539TIP3    H141108   0.974   3.458  13.632 -0.2113 -1.2224 -1.6620
 6539TIP3    H241109   0.889   3.564  13.566  1.0721 -0.2728 -1.8289
 6540TIP3   OH241110   0.779   3.213   1.148  0.4923  0.1579 -0.4226
 6540TIP3    H141111   0.733   3.289   1.183  0.7074 -0.5639  1.6091
 6540TIP3    H241112   0.860   3.249   1.111  0.4149  0.9691  0.1657
 6541TIP3   OH241113   4.944   1.229   1.955 -0.1596 -0.3451 -0.1260
 6541TIP3    H141114   4.889   1.195   2.026 -1.2161  1.4579 -0.0171
 6541TIP3    H241115   4.998   1.296   1.997 -1.2803  1.2362 -1.0955
 6542TIP3   OH241116   0.727   3.490   4.439 -0.3780  0.0306 -0.1401
 6542TIP3    H141117   0.631   3.496   4.441 -0.3700  0.2437 -0.3805
 6542TIP3    H241118   0.751   3.464   4.528 -0.5683  1.3729  0.3366
 6543TIP3   OH241119   4.856   5.882  10.517 -0.2039  0.2895 -0.2817
 6543TIP3    H141120   4.798   5.874  10.593  1.1574 -0.7912  0.6888
 6543TIP3    H241121   4.904   5.963  10.533 -0.8873  0.7869 -0.7045
 6544TIP3   OH241122   0.257   5.646  11.504 -0.0405  0.1220 -0.3057
 6544TIP3    H141123   0.328   5.688  11.554 -0.4627 -0.7197  1.0640
 6544TIP3    H241124   0.181   5.651  11.563 -1.0850  0.8025 -1.6547
 6545TIP3   OH241125   6.130   4.610   1.451 -0.6182 -0.0780  0.2149
 6545TIP3    H141126   6.064   4.564   1.399 -1.8829 -0.3854  2.0076
 6545TIP3    H241127   6.181   4.659   1.386 -1.1899 -1.5500 -1.4379
 6546TIP3   OH241128   5.863   2.582  11.754  0.0165  0.4309 -0.1801
 6546TIP3    H141129   5.852   2.672  11.783 -0.3443  0.1813  0.4897
 6546TIP3    H241130   5.946   2.582  11.706 -0.1099  1.1679 -0.4090
 6547TIP3   OH241131   6.404   5.180   0.124  0.2071  0.1055  0.0118
 6547TIP3    H141132   6.385   5.093   0.160  3.1113 -1.0656 -0.9123
 6547TIP3    H241133   6.409   5.237   0.201  3.9620 -1.8516  1.5103
 6548TIP3   OH241134   1.335   4.881   6.757 -0.2094  0.0497  0.7598
 6548TIP3    H141135   1.251   4.874   6.713 -0.9903  2.4726  1.6948
 6548TIP3    H241136   1.385   4.944   6.704 -0.0225  0.6713  1.6556
 6549TIP3   OH241137   2.553   1.359   1.437 -0.6438  0.6855 -0.0693
 6549TIP3    H141138   2.473   1.371   1.386 -1.0653  0.2286  0.4680
 6549TIP3    H241139   2.579   1.268   1.419 -1.4713  0.1049  1.4325
 6550TIP3   OH241140   5.558   2.469  13.176  0.4331  0.5122  0.1729
 6550TIP3    H141141   5.644   2.496  13.208  0.2731  1.3802 -0.1287
 6550TIP3    H241142   5.557   2.493  13.084 -0.1687  0.5786  0.1933
 6551TIP3   OH241143   2.140   2.187  17.029  0.6073 -0.0166  0.4156
 6551TIP3    H141144   2.234   2.171  17.014  0.7733 -0.2289  1.6009
 6551TIP3    H241145   2.113   2.116  17.087 -0.7874 -1.1309 -1.4878
 6552TIP3   OH241146   1.973   2.099   2.773  0.4684  0.2276  0.2910
 6552TIP3    H141147   1.929   2.181   2.754  2.7643  1.5321  0.3065
 6552TIP3    H241148   2.065   2.115   2.753  1.1088 -2.1268  0.9699
 6553TIP3   OH241149   6.471   0.296   1.832  0.3477 -0.3211 -0.4418
 6553TIP3    H141150   6.476   0.389   1.810  0.4521 -0.2769 -0.2330
 6553TIP3    H241151   6.482   0.293   1.927  0.6200 -0.5702 -0.4806
 6554TIP3   OH241152   5.037   5.085  17.403  0.5681 -0.1602 -0.5631
 6554TIP3    H141153   4.965   5.022  17.398 -0.9222  1.5306 -1.8325
 6554TIP3    H241154   5.076   5.071  17.489  0.8004 -3.2728 -1.0591
 6555TIP3   OH241155   2.172   5.183   1.047  0.2844  0.1412 -0.4499
 6555TIP3    H141156   2.108   5.254   1.048  0.7963  0.6015  0.0584
 6555TIP3    H241157   2.179   5.158   0.955 -0.7944 -0.0675 -0.4846
 6556TIP3   OH241158   3.085   5.369   0.740 -0.6325  0.3566  0.0626
 6556TIP3    H141159   3.073   5.460   0.713  0.9769  0.7818  0.6604
 6556TIP3    H241160   3.104   5.373   0.833  0.1689 -0.5250 -0.0451
 6557TIP3   OH241161   0.554   1.715  14.272  0.4092  0.3406  0.0294
 6557TIP3    H141162   0.460   1.701  14.263  0.2582  0.5666  1.1635
 6557TIP3    H241163   0.585   1.724  14.181 -0.4418 -1.0242 -0.4247
 6558TIP3   OH241164   3.590   4.685  16.995 -0.0902 -0.3684  0.1029
 6558TIP3    H141165   3.532   4.722  16.929  0.2292  1.3667  0.7548
 6558TIP3    H241166   3.543   4.609  17.028 -0.2004 -1.3928 -2.1938
 6559TIP3   OH241167   1.383   5.525  13.992  0.0338 -0.3588  0.5430
 6559TIP3    H141168   1.350   5.537  13.903 -1.1361  1.4397  1.1651
 6559TIP3    H241169   1.353   5.438  14.018  2.3682 -1.9418 -1.5693
 6560TIP3   OH241170   4.243   5.416   1.499  0.0669  0.2078 -0.3497
 6560TIP3    H141171   4.233   5.466   1.580 -0.6651  1.9685 -1.4770
 6560TIP3    H241172   4.200   5.332   1.518  0.5460  0.2913  1.2974
 6561TIP3   OH241173   6.127   0.613   5.177  0.4512  0.3925 -1.1346
 6561TIP3    H141174   6.049   0.665   5.197  0.5196  1.0271 -2.4544
 6561TIP3    H241175   6.093   0.530   5.142  0.3584 -0.1733  0.2253
 6562TIP3   OH241176   3.962   4.984   6.303 -0.0877  0.0167  0.2429
 6562TIP3    H141177   4.003   5.000   6.388  0.9434  0.3976 -0.3091
 6562TIP3    H241178   3.930   5.070   6.276 -0.5664 -0.1367  0.3142
 6563TIP3   OH241179   3.820   0.449   0.766  0.1534  0.2266  0.3725
 6563TIP3    H141180   3.783   0.409   0.845  0.4446 -0.9291 -0.0588
 6563TIP3    H241181   3.884   0.512   0.799  1.3216 -1.2679  1.0624
 6564TIP3   OH241182   5.291   4.388   5.427  0.0512  0.1783 -0.0534
 6564TIP3    H141183   5.350   4.371   5.500 -1.1610  0.1217  0.9392
 6564TIP3    H241184   5.214   4.335   5.446 -0.4232  0.4214 -1.2177
 6565TIP3   OH241185   2.015   3.825  16.926  0.2895  0.3158  0.2564
 6565TIP3    H141186   2.027   3.731  16.912 -0.3320  0.3032 -0.2882
 6565TIP3    H241187   1.941   3.848  16.869  0.3424  1.1056  0.4913
 6566TIP3   OH241188   1.135   0.340  11.953  0.3621 -0.5889  0.0645
 6566TIP3    H141189   1.093   0.422  11.981  0.2841 -1.1694  1.7949
 6566TIP3    H241190   1.120   0.337  11.859 -0.7890  0.7401  0.1535
 6567TIP3   OH241191   3.308   4.618   1.214  0.5489 -0.1870  0.4369
 6567TIP3    H141192   3.389   4.632   1.165  0.5961  0.5344  0.6976
 6567TIP3    H241193   3.239   4.630   1.150  0.6229  0.3447  0.4484
 6568TIP3   OH241194   0.671   4.508  14.199  0.1595  0.0093 -0.3678
 6568TIP3    H141195   0.762   4.494  14.225  0.2177 -0.3574 -0.7586
 6568TIP3    H241196   0.662   4.459  14.118 -0.5490 -0.4484 -0.0186
 6569TIP3   OH241197   0.916   3.386   3.808  0.0483 -0.4560  0.0300
 6569TIP3    H141198   0.924   3.313   3.868  1.9660 -0.5870 -0.3139
 6569TIP3    H241199   0.900   3.346   3.722  1.8238 -0.5643 -0.2857
 6570TIP3   OH241200   5.885   2.923  15.480 -0.1322  0.7301 -0.0206
 6570TIP3    H141201   5.931   2.969  15.410  0.1753  1.2970  0.5469
 6570TIP3    H241202   5.944   2.851  15.503  1.1179  2.1455  1.5330
 6571TIP3   OH241203   2.497   2.943  13.020  0.2727 -0.4409 -0.0210
 6571TIP3    H141204   2.584   2.907  13.035  0.6723  0.0190 -1.1651
 6571TIP3    H241205   2.484   3.005  13.092  1.6701  0.8589 -0.8224
 6572TIP3   OH241206   0.578   5.376   2.260 -0.1232  0.1544 -0.2413
 6572TIP3    H141207   0.545   5.333   2.339 -0.8818 -1.1861 -1.2485
 6572TIP3    H241208   0.626   5.308   2.213 -1.7876  0.1844 -2.1223
 6573TIP3   OH241209   1.609   2.500  11.113  0.1940  0.5675 -0.2671
 6573TIP3    H141210   1.606   2.488  11.018  0.5547 -1.7724 -0.0472
 6573TIP3    H241211   1.689   2.455  11.140 -0.2093  0.6944  1.2048
 6574TIP3   OH241212   3.997   1.322   2.427  0.4568 -0.0924  0.0001
 6574TIP3    H141213   4.040   1.247   2.469  0.8649 -0.3509 -0.8578
 6574TIP3    H241214   3.907   1.320   2.459  0.7234 -0.3693  0.7463
 6575TIP3   OH241215   4.941   6.125   1.876 -0.3979 -0.1836  0.6020
 6575TIP3    H141216   5.000   6.143   1.803 -1.6633  1.2624 -0.1183
 6575TIP3    H241217   4.855   6.152   1.845 -0.8168  1.6217  3.0317
 6576TIP3   OH241218   4.788   0.263   2.042 -0.1293 -0.2871 -0.1485
 6576TIP3    H141219   4.725   0.200   2.007  0.2222 -0.7420  0.0322
 6576TIP3    H241220   4.778   0.340   1.986 -3.0143  0.8394  1.6966
 6577TIP3   OH241221   0.751   4.226  13.522  0.1297  0.7338 -0.1267
 6577TIP3    H141222   0.754   4.317  13.491 -0.7716  0.2429 -1.8141
 6577TIP3    H241223   0.833   4.213  13.568 -0.5186  2.9566  1.8429
 6578TIP3   OH241224   5.204   1.009  14.649  0.5301  0.1481  0.4476
 6578TIP3    H141225   5.210   0.980  14.740  2.0528 -0.2126  0.2722
 6578TIP3    H241226   5.169   0.933  14.602  1.9277 -0.5072  0.4089
 6579TIP3   OH241227   5.141   0.822   1.190  0.1300  0.0195 -0.4488
 6579TIP3    H141228   5.230   0.838   1.220 -0.1121  0.0368  0.2880
 6579TIP3    H241229   5.099   0.908   1.189  0.5496  0.2356 -2.2831
 6580TIP3   OH241230   2.497   0.066  12.554 -0.0730  0.1952  0.5233
 6580TIP3    H141231   2.546   0.148  12.543  0.2508 -0.0747 -0.1106
 6580TIP3    H241232   2.409   0.093  12.578  0.1125  0.7204  0.6151
 6581TIP3   OH241233   6.086   6.590   4.349  0.3383 -0.3917  0.1216
 6581TIP3    H141234   6.047   6.553   4.428  1.7428 -1.8275  0.1899
 6581TIP3    H241235   6.179   6.597   4.370  0.5819  0.1033 -1.0746
 6582TIP3   OH241236   5.355   2.399  17.591 -0.2569  0.7249  0.2624
 6582TIP3    H141237   5.268   2.384  17.552  0.1572  0.3902 -0.5688
 6582TIP3    H241238   5.398   2.460  17.531  0.0519  0.9589  0.7175
 6583TIP3   OH241239   1.437   4.621   6.776  0.0561  0.2342  0.0944
 6583TIP3    H141240   1.407   4.712   6.784  0.3750  0.3007  0.6467
 6583TIP3    H241241   1.531   4.626   6.794  0.0404 -0.2304  0.3108
 6584TIP3   OH241242   1.854   2.860   2.665  0.2235 -0.4891 -0.4011
 6584TIP3    H141243   1.845   2.954   2.647  0.2454 -0.5427 -0.6881
 6584TIP3    H241244   1.948   2.845   2.669  0.2191 -0.4321  0.0023
 6585TIP3   OH241245   4.667   4.070   6.001 -0.3655  0.3521  0.3403
 6585TIP3    H141246   4.722   3.992   6.012 -1.2164 -0.2535  0.3554
 6585TIP3    H241247   4.613   4.072   6.080 -2.1573 -0.5208 -0.7951
 6586TIP3   OH241248   4.647   5.940   0.144  0.4392  0.0139  0.4748
 6586TIP3    H141249   4.698   6.009   0.101 -0.1576 -0.3098 -0.7789
 6586TIP3    H241250   4.630   5.876   0.075  0.6242 -1.1961  1.5234
 6587TIP3   OH241251   2.108   6.058   6.117 -0.7167 -0.5014 -0.1984
 6587TIP3    H141252   2.189   6.012   6.094 -0.8700 -0.8383 -0.0687
 6587TIP3    H241253   2.113   6.070   6.212  0.6508  2.2798 -0.5113
 6588TIP3   OH241254   4.328   2.176   3.284 -0.2479  0.0324  0.6369
 6588TIP3    H141255   4.405   2.222   3.319  0.8131  0.8165 -2.3688
 6588TIP3    H241256   4.363   2.095   3.247 -1.0411 -0.1384  0.2337
 6589TIP3   OH241257   6.205   4.672   5.127  0.2807  0.0335  0.6447
 6589TIP3    H141258   6.227   4.679   5.034 -2.1760 -1.8422 -0.1909
 6589TIP3    H241259   6.241   4.588   5.154  1.1361  0.6520  1.4646
 6590TIP3   OH241260   0.713   3.128   4.056  0.0682 -0.3262 -0.5669
 6590TIP3    H141261   0.757   3.118   3.971  2.9457 -0.4262  0.8336
 6590TIP3    H241262   0.771   3.185   4.106 -2.3984  1.0969  0.8335
 6591TIP3   OH241263   6.424   1.987  14.650  0.3837 -0.2352  0.3875
 6591TIP3    H141264   6.335   2.022  14.646  0.7347  0.5602 -1.1443
 6591TIP3    H241265   6.469   2.026  14.575  1.6835 -1.5901  0.4130
 6592TIP3   OH241266   2.266   3.115  16.712 -0.2803 -0.4585 -0.1062
 6592TIP3    H141267   2.244   3.026  16.740  1.2647 -0.5113  1.1004
 6592TIP3    H241268   2.355   3.108  16.677 -0.0225  0.6410  0.2769
 6593TIP3   OH241269   2.544   5.848   3.224  1.2098  0.3242  0.5285
 6593TIP3    H141270   2.586   5.841   3.139  0.7299  0.3111  0.2914
 6593TIP3    H241271   2.587   5.782   3.278 -0.4956 -1.7822 -0.5370
 6594TIP3   OH241272   2.973   1.181  17.182  0.6531 -0.6724 -0.0383
 6594TIP3    H141273   2.999   1.160  17.272 -2.9879 -0.0312  1.3335
 6594TIP3    H241274   3.020   1.262  17.162 -0.5450  0.7640  2.4619
 6595TIP3   OH241275   5.829   1.014   1.248  0.0974  0.2215 -0.2106
 6595TIP3    H141276   5.914   0.986   1.283 -0.2638 -0.0055  0.5054
 6595TIP3    H241277   5.814   1.099   1.290 -0.5878 -0.2960  0.6303
 6596TIP3   OH241278   2.801   3.824  13.229 -0.4409 -0.0069 -0.6288
 6596TIP3    H141279   2.823   3.884  13.158  0.4622  2.4917  1.6107
 6596TIP3    H241280   2.706   3.814  13.222 -0.2969 -0.4915 -2.6070
 6597TIP3   OH241281   4.899   4.850   3.616  0.2817  0.0367  0.2412
 6597TIP3    H141282   4.820   4.799   3.630  0.3624 -0.6501 -1.6215
 6597TIP3    H241283   4.912   4.896   3.699 -1.6735 -0.3478  0.8153
 6598TIP3   OH241284   2.124   6.332   1.156  0.1323  0.4783  0.2277
 6598TIP3    H141285   2.035   6.312   1.124 -0.0059  1.6852 -0.2092
 6598TIP3    H241286   2.112   6.407   1.214  0.6015 -0.7109  1.9265
 6599TIP3   OH241287   5.563   0.695   2.169 -0.1657 -0.2965 -0.1158
 6599TIP3    H141288   5.522   0.775   2.134  1.3979  0.3338 -0.5933
 6599TIP3    H241289   5.569   0.710   2.263 -2.6739 -1.1975  0.2574
 6600TIP3   OH241290   1.006   0.533  10.815  0.4551 -0.1165 -0.3066
 6600TIP3    H141291   0.931   0.577  10.856  0.5271 -0.7636  0.5606
 6600TIP3    H241292   1.046   0.483  10.886  0.5471 -1.3415 -1.1821
 6601TIP3   OH241293   5.821   2.406  13.101 -0.3628  0.3260  0.2414
 6601TIP3    H141294   5.846   2.414  13.009 -1.2949 -1.0164 -0.1668
 6601TIP3    H241295   5.844   2.491  13.139  3.1689 -0.1741 -0.4101
 6602TIP3   OH241296   4.190   0.032  17.685 -0.2160  0.2163  0.1713
 6602TIP3    H141297   4.114  -0.026  17.688 -0.5710  0.6325 -0.5276
 6602TIP3    H241298   4.155   0.119  17.701  0.2837  0.2857  0.9834
 6603TIP3   OH241299   0.675   0.080   2.244 -0.4352  0.2842  0.0333
 6603TIP3    H141300   0.658   0.085   2.150  0.4017 -0.5996 -0.1682
 6603TIP3    H241301   0.703   0.169   2.268 -0.4961  0.4695 -0.5777
 6604TIP3   OH241302   6.174   4.551   1.933 -0.1270 -0.0472  0.3631
 6604TIP3    H141303   6.151   4.635   1.892  2.2930 -0.5244 -2.3482
 6604TIP3    H241304   6.117   4.487   1.890 -1.0769 -0.0080  1.5058
 6605TIP3   OH241305   4.342   3.236  17.383 -0.1140  0.3687  0.3099
 6605TIP3    H141306   4.266   3.280  17.421  0.4686  1.8525 -0.1688
 6605TIP3    H241307   4.305   3.160  17.337 -1.3014  1.0404  0.1161
 6606TIP3   OH241308   5.913   2.858  16.816 -0.3647 -0.0847 -0.3154
 6606TIP3    H141309   5.906   2.867  16.911 -2.5517 -1.5648 -0.2505
 6606TIP3    H241310   5.898   2.946  16.782 -0.8423  0.2394  0.6943
 6607TIP3   OH241311   5.528   5.695  14.371  0.6092  0.7517  0.1012
 6607TIP3    H141312   5.598   5.675  14.309 -1.6376 -0.6213 -2.1714
 6607TIP3    H241313   5.544   5.637  14.445  1.5043 -0.0111 -0.6693
 6608TIP3   OH241314   3.429   0.433   5.603 -0.0957  0.3588 -0.4978
 6608TIP3    H141315   3.457   0.354   5.557  1.6668  0.5952  0.0897
 6608TIP3    H241316   3.334   0.435   5.593 -0.1996 -1.9303 -0.3679
 6609TIP3   OH241317   5.050   5.242  14.925 -0.7800 -0.1086  0.1632
 6609TIP3    H141318   5.002   5.194  14.857 -0.5442  0.4240 -0.3865
 6609TIP3    H241319   4.982   5.277  14.982 -1.0037 -0.1372 -0.0844
 6610TIP3   OH241320   2.662   4.038  16.274 -0.0908 -0.3814 -0.0890
 6610TIP3    H141321   2.620   3.990  16.345 -2.6850 -0.7860 -1.7575
 6610TIP3    H241322   2.710   3.972  16.225  1.9090 -0.0630  1.3248
 6611TIP3   OH241323   1.935   3.658  15.031  0.1696  0.6524 -0.0050
 6611TIP3    H141324   1.847   3.674  15.064 -1.2902 -2.0040 -2.2203
 6611TIP3    H241325   1.976   3.604  15.099 -1.3692 -1.3483 -0.5622
 6612TIP3   OH241326   3.248   0.344  11.481  0.0321  0.5409 -0.2692
 6612TIP3    H141327   3.231   0.266  11.429  0.2557  0.3397 -0.0430
 6612TIP3    H241328   3.189   0.336  11.556  0.8919 -0.0239  0.3788
 6613TIP3   OH241329   6.319   6.344  14.446 -0.1532  0.0684 -0.0533
 6613TIP3    H141330   6.253   6.282  14.476 -0.5479 -0.2194 -1.4541
 6613TIP3    H241331   6.402   6.309  14.480 -0.6354  0.2490  1.4200
 6614TIP3   OH241332   3.633   1.561  15.210 -1.2749 -0.3040  0.1849
 6614TIP3    H141333   3.661   1.619  15.139  0.8863 -2.5064 -0.9111
 6614TIP3    H241334   3.545   1.533  15.185 -1.7034  1.1414 -0.0715
 6615TIP3   OH241335   2.249   1.193  13.374  0.1236  0.4040  0.3448
 6615TIP3    H141336   2.250   1.222  13.465 -0.3107  0.3645  0.3639
 6615TIP3    H241337   2.233   1.273  13.324  1.8686  0.6911  0.1895
 6616TIP3   OH241338   4.124   3.437   4.568  0.1010  0.1994  0.1086
 6616TIP3    H141339   4.134   3.351   4.527  1.9598  0.3127  0.2356
 6616TIP3    H241340   4.186   3.493   4.521  0.0135  1.0980  1.0280
 6617TIP3   OH241341   2.969   2.728  12.860  0.1775 -0.4397 -0.5945
 6617TIP3    H141342   3.026   2.731  12.783 -0.6624 -1.1747 -1.2513
 6617TIP3    H241343   3.017   2.674  12.923  0.9423  0.2990 -0.5136
 6618TIP3   OH241344   2.400   1.379   5.215 -0.3217  0.3542  0.5666
 6618TIP3    H141345   2.452   1.309   5.254  0.5562  0.5046 -0.2736
 6618TIP3    H241346   2.355   1.337   5.141 -1.0801  0.3220  1.0370
 6619TIP3   OH241347   3.365   1.672   6.537  0.4271  0.3161  0.4920
 6619TIP3    H141348   3.367   1.744   6.474 -3.2728  0.4225  0.2593
 6619TIP3    H241349   3.272   1.661   6.558  1.2556 -1.3933  4.0641
 6620TIP3   OH241350   6.335   3.383  11.406 -0.1400 -0.0657  0.2882
 6620TIP3    H141351   6.312   3.387  11.313 -1.3570 -1.5435  0.4805
 6620TIP3    H241352   6.277   3.446  11.448 -0.8999 -0.7112  0.2416
 6621TIP3   OH241353   4.244   4.697   0.244 -0.1636  0.0495 -0.3680
 6621TIP3    H141354   4.246   4.644   0.164 -0.1493 -0.1182 -0.2577
 6621TIP3    H241355   4.265   4.635   0.314 -1.2203 -0.0302 -0.1097
 6622TIP3   OH241356   0.707   4.356   4.258 -0.0799  0.1393  0.2786
 6622TIP3    H141357   0.699   4.264   4.281 -0.2167  0.2655  0.7383
 6622TIP3    H241358   0.759   4.394   4.329  2.1395 -0.0785 -1.1300
 6623TIP3   OH241359   1.737   6.131   3.060 -0.1747 -0.1129  0.1109
 6623TIP3    H141360   1.666   6.135   3.124  0.0187  1.2242  0.2699
 6623TIP3    H241361   1.708   6.188   2.988 -0.5624 -1.8782 -1.2275
 6624TIP3   OH241362   5.990   2.637  14.510 -0.0534 -0.5326 -0.1020
 6624TIP3    H141363   5.944   2.640  14.594 -0.1981 -0.3670 -0.1843
 6624TIP3    H241364   6.082   2.631  14.533 -0.2068 -3.3988  0.0829
 6625TIP3   OH241365   4.132   4.542   4.685  0.4502  0.4444 -0.2854
 6625TIP3    H141366   4.071   4.479   4.647 -0.8069  0.7700  1.0902
 6625TIP3    H241367   4.109   4.625   4.644  0.7650  0.3713 -0.6184
 6626TIP3   OH241368   2.810   2.070  15.225  0.1011  0.0208 -0.9399
 6626TIP3    H141369   2.740   2.132  15.242  0.8797  0.8877 -0.8472
 6626TIP3    H241370   2.818   2.020  15.306  0.2617  0.5896 -0.6045
 6627TIP3   OH241371   6.121   0.361  12.715 -0.1262  0.0510  0.5776
 6627TIP3    H141372   6.199   0.319  12.678  0.3947 -1.0285  2.7417
 6627TIP3    H241373   6.093   0.423  12.648  0.3586 -2.1985 -1.8614
 6628TIP3   OH241374   1.475   4.986  12.943  0.7703  0.1166 -0.1359
 6628TIP3    H141375   1.393   4.956  12.903  0.4114 -0.5115  1.0037
 6628TIP3    H241376   1.448   5.049  13.010  1.1530 -0.4923  0.6139
 6629TIP3   OH241377   4.727   4.895   7.113 -0.2101 -0.3246  0.0019
 6629TIP3    H141378   4.713   4.935   7.028  0.2685 -0.4271 -0.1266
 6629TIP3    H241379   4.770   4.962   7.165  1.1073 -0.8353 -0.3868
 6630TIP3   OH241380   2.726   4.429  13.369  0.6535  0.1130 -0.1503
 6630TIP3    H141381   2.645   4.384  13.397  0.5532  1.9945  2.9854
 6630TIP3    H241382   2.796   4.376  13.407  0.7239  0.4493  0.1850
 6631TIP3   OH241383   3.127   3.633  13.426  0.2920 -0.0474  0.5251
 6631TIP3    H141384   3.211   3.669  13.398 -0.0880  0.8342  0.5046
 6631TIP3    H241385   3.086   3.602  13.345  0.3336  0.0831  0.4534
 6632TIP3   OH241386   0.972   0.782  17.633 -0.0751  0.6120 -0.2499
 6632TIP3    H141387   0.969   0.871  17.598 -0.0869  1.4377  1.7449
 6632TIP3    H241388   1.021   0.732  17.567 -1.6956  1.6171 -2.3458
 6633TIP3   OH241389   6.118   6.516  16.915  0.6915  0.1292 -0.4195
 6633TIP3    H141390   6.127   6.421  16.910 -1.5786 -0.2212  0.9503
 6633TIP3    H241391   6.037   6.535  16.867  0.5314  1.2242  0.2428
 6634TIP3   OH241392   0.761   6.509  10.720 -0.0394  0.7701  0.2724
 6634TIP3    H141393   0.721   6.514  10.807  1.0111  1.3493  0.7414
 6634TIP3    H241394   0.776   6.600  10.695 -0.5950  0.6195 -0.6526
 6635TIP3   OH241395   4.567   2.614   6.345 -0.6174  0.2849  0.0977
 6635TIP3    H141396   4.562   2.544   6.410 -2.6005  1.8210  1.7525
 6635TIP3    H241397   4.600   2.689   6.394 -2.0229  1.4494 -0.6683
 6636TIP3   OH241398   5.066   3.681   1.145 -0.2297 -0.1738  0.1832
 6636TIP3    H141399   5.052   3.638   1.061 -0.1346 -0.4645  0.3155
 6636TIP3    H241400   5.069   3.610   1.208  0.0764  0.0191  0.3845
 6637TIP3   OH241401   4.830   4.007  15.764  0.1256  0.4343  0.2974
 6637TIP3    H141402   4.884   4.043  15.694  0.2404 -0.3310 -0.0204
 6637TIP3    H241403   4.746   4.051  15.755  0.1336  0.3312 -0.3388
 6638TIP3   OH241404   1.351   6.348   3.377 -0.5205  0.7190  0.2570
 6638TIP3    H141405   1.336   6.258   3.345  0.7516  0.5156  0.2119
 6638TIP3    H241406   1.297   6.402   3.319 -1.1124  0.0181  0.1237
 6639TIP3   OH241407   3.101   0.367  14.666  0.3732  0.4556 -0.1933
 6639TIP3    H141408   3.072   0.286  14.708  0.5102  0.2587 -0.4730
 6639TIP3    H241409   3.020   0.414  14.646  0.3345  0.9912  1.1321
 6640TIP3   OH241410   1.834   5.440  15.615 -0.5314 -0.1319 -0.3160
 6640TIP3    H141411   1.925   5.442  15.583 -1.0648 -1.6646 -2.1621
 6640TIP3    H241412   1.835   5.375  15.685  0.2228  1.6325  1.3865
 6641TIP3   OH241413   2.265   1.324   0.294 -0.8113 -0.3033  0.7378
 6641TIP3    H141414   2.311   1.395   0.250  0.6555 -1.0098  1.0700
 6641TIP3    H241415   2.325   1.297   0.364 -2.1680 -0.6119  1.8235
 6642TIP3   OH241416   2.192   2.297   3.899 -0.1291 -0.1975  0.5388
 6642TIP3    H141417   2.266   2.252   3.939 -0.5149 -0.7554  0.6275
 6642TIP3    H241418   2.221   2.314   3.809  0.0949 -0.4350  0.5634
 6643TIP3   OH241419   3.891   0.257  11.946 -0.8966 -0.6390 -0.1509
 6643TIP3    H141420   3.879   0.183  11.886 -1.8581 -0.6421  0.0156
 6643TIP3    H241421   3.899   0.333  11.888 -1.2972 -0.7082 -0.3011
 6644TIP3   OH241422   4.038   1.974   3.968 -0.1034  0.2248 -0.3219
 6644TIP3    H141423   4.009   1.971   3.876  0.2485  2.6750 -0.5964
 6644TIP3    H241424   4.130   1.949   3.965  0.0612  0.8376 -0.7657
 6645TIP3   OH241425   3.969   0.369   3.897 -0.1634 -0.1544 -0.0936
 6645TIP3    H141426   3.929   0.283   3.904  0.7258 -0.4789  1.4561
 6645TIP3    H241427   3.911   0.427   3.945 -0.5319  0.0355 -0.7601
 6646TIP3   OH241428   0.075   3.010  12.716 -1.0294 -0.1198 -0.0049
 6646TIP3    H141429   0.078   3.065  12.637  1.8871  1.0380  0.7933
 6646TIP3    H241430   0.062   3.072  12.788  0.6465 -0.6121  0.7664
 6647TIP3   OH241431   5.864   0.353  11.653  0.4729  0.8283  0.2803
 6647TIP3    H141432   5.954   0.371  11.626  0.4071 -0.1295 -0.6395
 6647TIP3    H241433   5.817   0.337  11.571 -0.3473  0.4970  0.8022
 6648TIP3   OH241434   6.079   3.567  16.227 -0.0091 -0.4553  0.1012
 6648TIP3    H141435   6.098   3.509  16.153  2.1257 -0.7322  0.8001
 6648TIP3    H241436   6.147   3.634  16.223  0.3404 -0.6392  1.9513
 6649TIP3   OH241437   1.880   1.545  12.966 -0.1021 -0.2685  0.1102
 6649TIP3    H141438   1.807   1.488  12.942  0.4004 -0.2444 -1.6502
 6649TIP3    H241439   1.958   1.490  12.951  0.3050  0.2923  0.1447
 6650TIP3   OH241440   5.445   0.808   3.247  0.2285  0.2396  0.0546
 6650TIP3    H141441   5.528   0.785   3.206  0.7112  0.9866  0.5775
 6650TIP3    H241442   5.383   0.742   3.217  1.2320 -0.8857  0.4229
 6651TIP3   OH241443   1.753   4.428   5.867  0.0154  0.5227 -0.3512
 6651TIP3    H141444   1.686   4.366   5.896 -0.0331  0.4394 -0.6405
 6651TIP3    H241445   1.753   4.496   5.934 -1.6380  1.4749 -1.2395
 6652TIP3   OH241446   2.938   0.744   1.440 -0.0385 -0.9013 -0.3950
 6652TIP3    H141447   2.977   0.675   1.493  0.3024 -0.2718  0.1943
 6652TIP3    H241448   2.900   0.699   1.365 -0.1046 -1.7586  0.1431
 6653TIP3   OH241449   2.596   5.451  11.522  0.5112 -0.0628  0.0982
 6653TIP3    H141450   2.571   5.370  11.566  0.9991 -0.2949 -0.0490
 6653TIP3    H241451   2.514   5.501  11.515  0.3968 -0.1069  1.0739
 6654TIP3   OH241452   6.245   5.813   0.761  0.2130  0.8273 -0.1426
 6654TIP3    H141453   6.257   5.889   0.820 -0.5516 -0.4820  1.8078
 6654TIP3    H241454   6.181   5.842   0.697  0.4796  2.0637  0.1185
 6655TIP3   OH241455   4.067   3.933   4.795  0.0790  0.3708  0.0789
 6655TIP3    H141456   4.139   3.995   4.782  0.2165  0.0996 -0.4705
 6655TIP3    H241457   4.101   3.849   4.764 -0.0452 -0.0235  0.9895
 6656TIP3   OH241458   2.969   3.845   0.425  0.3536  0.3390 -0.0801
 6656TIP3    H141459   2.883   3.837   0.384  0.2401  0.0439  0.2118
 6656TIP3    H241460   2.951   3.876   0.514  0.4949 -0.3455  0.1959
 6657TIP3   OH241461   2.919   1.869   2.383 -0.5250  0.2055 -0.4878
 6657TIP3    H141462   2.857   1.812   2.428  1.6567 -1.8715  0.0667
 6657TIP3    H241463   2.911   1.847   2.290  2.0235 -3.0837 -0.1117
 6658TIP3   OH241464   1.130   6.694   3.138  0.1879  0.1475 -0.2116
 6658TIP3    H141465   1.148   6.783   3.171  0.4262 -0.2877  0.8689
 6658TIP3    H241466   1.036   6.692   3.125  0.1054  0.3863  0.3097
 6659TIP3   OH241467   0.459   2.371  13.894  0.1053 -0.2263 -0.6093
 6659TIP3    H141468   0.466   2.393  13.987  0.4334  2.9043 -1.2674
 6659TIP3    H241469   0.370   2.400  13.870 -0.2110 -1.5980 -1.1688
 6660TIP3   OH241470   0.512   5.790   5.653 -0.4811 -0.2321  0.2890
 6660TIP3    H141471   0.435   5.829   5.611 -0.6998 -1.5948 -0.6395
 6660TIP3    H241472   0.476   5.733   5.721 -0.3048 -0.8434 -0.1210
 6661TIP3   OH241473   0.031   1.430  11.742  0.0994  0.1031  0.3942
 6661TIP3    H141474   0.115   1.477  11.746  1.1511 -1.7828  2.5354
 6661TIP3    H241475   0.011   1.410  11.833 -3.0652  1.0183  0.0018
 6662TIP3   OH241476   3.672   1.906  14.444 -0.5519  0.1332  0.5852
 6662TIP3    H141477   3.602   1.958  14.407 -0.1440  0.3095  0.0495
 6662TIP3    H241478   3.644   1.887  14.533  0.2841  3.2358  1.6337
 6663TIP3   OH241479   3.806   4.588   1.872  0.6838  0.4027  0.0277
 6663TIP3    H141480   3.755   4.602   1.952  0.4387  2.1213 -0.4094
 6663TIP3    H241481   3.855   4.507   1.889 -0.2938  0.0762  1.4241
 6664TIP3   OH241482   1.204   0.642  12.548 -0.9624 -0.6995  0.3878
 6664TIP3    H141483   1.155   0.719  12.519  0.3585  0.1751  0.3407
 6664TIP3    H241484   1.284   0.643  12.494  0.8405  0.0890  2.8854
 6665TIP3   OH241485   2.343   5.515   4.030  0.3749 -0.0541 -0.0597
 6665TIP3    H141486   2.331   5.560   3.947 -0.9962  0.3347  0.3311
 6665TIP3    H241487   2.258   5.474   4.048  0.3015  0.7599  1.6629
 6666TIP3   OH241488   2.350   4.828   5.315  0.0918  0.2374  0.1581
 6666TIP3    H141489   2.425   4.804   5.260  0.3708  0.0597  0.6168
 6666TIP3    H241490   2.338   4.921   5.299 -0.4386  0.0057 -0.9459
 6667TIP3   OH241491   1.298   2.878  16.467  0.4837  0.0718  0.7057
 6667TIP3    H141492   1.296   2.799  16.520 -0.6580 -0.4822 -0.1250
 6667TIP3    H241493   1.207   2.908  16.465  1.0168  1.9528  1.7640
 6668TIP3   OH241494   3.835   3.033  13.562  0.1895 -0.2932 -0.5806
 6668TIP3    H141495   3.837   3.127  13.584  0.6689 -0.3356 -0.4315
 6668TIP3    H241496   3.910   2.996  13.608  0.6267 -0.5695 -1.4980
 6669TIP3   OH241497   5.432   5.094   5.331 -0.1966  0.6610 -0.2935
 6669TIP3    H141498   5.356   5.097   5.390 -0.3921  1.0497 -0.5646
 6669TIP3    H241499   5.437   5.002   5.304 -1.8931  1.0165 -1.9854
 6670TIP3   OH241500   3.635   5.494  15.960  0.7413  0.3551  0.8470
 6670TIP3    H141501   3.685   5.444  16.024 -0.6944 -1.8150  0.3933
 6670TIP3    H241502   3.544   5.485  15.988  0.0450 -0.8560 -1.5216
 6671TIP3   OH241503   5.146   5.048   2.204  0.0595 -0.4572 -0.6475
 6671TIP3    H141504   5.091   5.125   2.220 -0.7607 -1.0027 -0.7965
 6671TIP3    H241505   5.104   4.978   2.253  0.1065 -1.0968 -1.5013
 6672TIP3   OH241506   5.976   1.953  11.784  0.3839 -0.4043  0.0505
 6672TIP3    H141507   5.923   2.032  11.798  0.0106 -0.3740 -1.3112
 6672TIP3    H241508   6.038   1.979  11.716 -0.1194 -1.4370 -0.8282
 6673TIP3   OH241509   2.518   2.660  13.799  0.8076 -0.1756  0.1785
 6673TIP3    H141510   2.495   2.732  13.857  1.5861  0.5581 -0.4111
 6673TIP3    H241511   2.581   2.697  13.738 -0.7190 -0.6471 -1.7763
 6674TIP3   OH241512   4.435   2.739  13.637 -0.6459  0.0837  0.3017
 6674TIP3    H141513   4.409   2.810  13.577 -1.9824 -0.6547 -0.0407
 6674TIP3    H241514   4.459   2.667  13.579  0.0489  0.0240  0.6572
 6675TIP3   OH241515   5.556   4.497  11.063 -0.3426  0.5802 -0.1283
 6675TIP3    H141516   5.543   4.558  10.990  1.3754  1.0025 -0.1351
 6675TIP3    H241517   5.478   4.441  11.063 -1.4006  1.9817 -0.8927
 6676TIP3   OH241518   0.965   2.395  12.830  0.0117  0.1890  0.2661
 6676TIP3    H141519   0.994   2.433  12.913 -2.0144  2.5809  0.0062
 6676TIP3    H241520   0.999   2.454  12.763 -2.4518  1.1814 -0.2274
 6677TIP3   OH241521   1.609   0.847  14.006 -0.2614  0.1744 -0.3227
 6677TIP3    H141522   1.574   0.814  14.088 -0.1809  0.2791 -0.2457
 6677TIP3    H241523   1.599   0.942  14.012  1.1691  0.3222  0.2288
 6678TIP3   OH241524   0.949   5.469   4.852  0.5980 -0.1095 -0.2217
 6678TIP3    H141525   0.989   5.553   4.873  3.5803 -0.7127 -2.7084
 6678TIP3    H241526   0.897   5.486   4.773  1.1951 -0.5640 -0.7229
 6679TIP3   OH241527   5.465   6.372   2.617  0.2395  0.4162 -0.4221
 6679TIP3    H141528   5.545   6.331   2.585  1.0638  0.1976  1.7607
 6679TIP3    H241529   5.429   6.310   2.680 -1.5216  0.6578 -1.0995
 6680TIP3   OH241530   4.915   6.690  16.155 -0.7756 -0.1160 -0.1580
 6680TIP3    H141531   4.831   6.733  16.140 -1.0044 -0.2823  0.6142
 6680TIP3    H241532   4.964   6.750  16.211 -0.5835 -0.2599 -0.1687
 6681TIP3   OH241533   0.936   1.329   2.261 -0.6127  0.1545  0.1590
 6681TIP3    H141534   0.866   1.268   2.281  0.6606 -1.4142  0.0124
 6681TIP3    H241535   0.960   1.310   2.170  0.3275  0.3143  0.3559
 6682TIP3   OH241536   2.077   1.171   6.013  0.4129 -0.7341  0.4883
 6682TIP3    H141537   2.164   1.202   5.991  0.1443 -1.1459 -1.3342
 6682TIP3    H241538   2.083   1.143   6.104  1.8792  0.2380  0.7153
 6683TIP3   OH241539   5.530   4.046  15.956 -0.7714 -0.1138  0.3244
 6683TIP3    H141540   5.565   4.046  16.045 -0.6750 -2.2202  0.3236
 6683TIP3    H241541   5.578   4.117  15.912 -0.0700  0.2744  1.6549
 6684TIP3   OH241542   4.102   6.510   2.765  0.3603  0.5676 -0.5118
 6684TIP3    H141543   4.099   6.415   2.776 -0.1594  0.6853  0.5095
 6684TIP3    H241544   4.183   6.537   2.807 -0.8524  0.8437  1.8540
 6685TIP3   OH241545   4.928   2.789   0.051  0.1913 -0.3788  0.4068
 6685TIP3    H141546   4.921   2.791   0.147 -2.0511  0.9042  0.2874
 6685TIP3    H241547   4.874   2.715   0.025 -0.4987  0.2166  0.0985
 6686TIP3   OH241548   5.704   4.286  12.085  0.2127 -0.4870 -0.8467
 6686TIP3    H141549   5.749   4.305  12.003  0.2055  0.5992 -0.6149
 6686TIP3    H241550   5.675   4.372  12.117  0.5810 -0.8377  0.4966
 6687TIP3   OH241551   3.931   0.464   3.400 -0.0107  0.5486  0.2480
 6687TIP3    H141552   3.954   0.427   3.485 -0.4501  1.2640  0.6985
 6687TIP3    H241553   4.011   0.459   3.348 -0.0317 -0.9073  0.3226
 6688TIP3   OH241554   6.660   2.437  13.088 -0.2949  0.2232  0.4363
 6688TIP3    H141555   6.685   2.387  13.010 -0.3401 -0.5669  0.9258
 6688TIP3    H241556   6.724   2.508  13.092  0.7939 -0.7530  0.6776
 6689TIP3   OH241557   1.951   4.455   2.635 -1.2992 -0.2048  0.2209
 6689TIP3    H141558   2.006   4.483   2.708 -0.8613  1.4344 -0.6887
 6689TIP3    H241559   1.981   4.366   2.616  0.7449  0.4552  0.0884
 6690TIP3   OH241560   5.572   4.017   4.032 -0.6146  0.2346  0.0620
 6690TIP3    H141561   5.529   3.935   4.057 -2.0535  1.2781  1.1415
 6690TIP3    H241562   5.505   4.066   3.985  0.0484  1.0514 -0.0637
 6691TIP3   OH241563   1.340   4.371   5.113  0.2365  0.2233 -0.5291
 6691TIP3    H141564   1.355   4.449   5.059  0.4644 -0.0554 -0.8771
 6691TIP3    H241565   1.426   4.330   5.121  0.2791  0.4855  0.4118
 6692TIP3   OH241566   4.547   1.898  13.184 -0.0476 -0.2143 -0.6959
 6692TIP3    H141567   4.596   1.837  13.239 -0.2136  0.2462 -0.0243
 6692TIP3    H241568   4.464   1.911  13.230 -0.9222 -1.1651 -1.9359
 6693TIP3   OH241569   6.329   4.828   2.716 -0.1801  0.2661  0.6661
 6693TIP3    H141570   6.310   4.747   2.763  0.7584  0.6611  1.7779
 6693TIP3    H241571   6.424   4.827   2.703 -0.2108  0.9801  0.2887
 6694TIP3   OH241572   3.615   2.204   2.329 -0.2220  0.7210 -0.7079
 6694TIP3    H141573   3.624   2.181   2.236 -1.2791 -0.1839 -0.6080
 6694TIP3    H241574   3.524   2.184   2.350  0.1713  0.3037  0.6934
 6695TIP3   OH241575   2.629   3.555   3.407 -0.0375  0.3269 -0.0303
 6695TIP3    H141576   2.636   3.463   3.432 -1.6139  0.2476  0.2301
 6695TIP3    H241577   2.706   3.596   3.446  0.2867 -0.7427  0.4967
 6696TIP3   OH241578   5.670   5.755  11.356 -0.2512 -0.1844 -0.0326
 6696TIP3    H141579   5.744   5.696  11.349 -0.2525 -0.0456 -1.6344
 6696TIP3    H241580   5.611   5.727  11.286 -1.8803 -0.4825  1.3676
 6697TIP3   OH241581   4.755   1.322  17.623 -0.1509 -0.1407 -0.0632
 6697TIP3    H141582   4.828   1.305  17.565  0.1449  2.7426 -0.6796
 6697TIP3    H241583   4.678   1.320  17.566  0.1726  3.0305 -0.7749
 6698TIP3   OH241584   0.673   0.904  13.507 -0.4718 -0.1360 -0.4648
 6698TIP3    H141585   0.759   0.943  13.524  0.4340 -2.1816 -0.0209
 6698TIP3    H241586   0.643   0.945  13.426  1.3493 -0.0012 -1.1131
 6699TIP3   OH241587   2.699   6.099  15.079 -0.3332 -0.5144  0.0159
 6699TIP3    H141588   2.769   6.153  15.114 -0.4930  0.1563 -0.6787
 6699TIP3    H241589   2.742   6.039  15.018 -0.1916 -1.0175  0.5974
 6700TIP3   OH241590   6.148   0.763  16.275  0.5309 -0.0406  0.8902
 6700TIP3    H141591   6.130   0.754  16.369  3.1896  1.2179  1.6078
 6700TIP3    H241592   6.069   0.803  16.239 -0.8748 -1.3101  2.3943
 6701TIP3   OH241593   3.998   5.266   6.529  0.2176 -0.2585  0.1119
 6701TIP3    H141594   3.984   5.357   6.556  3.1617  0.8208 -1.5924
 6701TIP3    H241595   3.947   5.257   6.449 -0.5402 -0.3584  0.5853
 6702TIP3   OH241596   2.211   2.356  16.708  0.4372 -0.1443  0.1766
 6702TIP3    H141597   2.179   2.311  16.787  0.5475  1.0410  0.9220
 6702TIP3    H241598   2.194   2.295  16.637  0.3378 -1.2531  1.1196
 6703TIP3   OH241599   3.614   3.190   0.605 -0.3126  0.2131  0.5994
 6703TIP3    H141600   3.661   3.126   0.659 -2.9284 -0.8182  1.8009
 6703TIP3    H241601   3.562   3.241   0.667  1.0501  3.0597 -0.4095
 6704TIP3   OH241602   0.237   1.223   3.560 -0.0466  0.3892 -0.3280
 6704TIP3    H141603   0.173   1.248   3.626 -0.9354 -0.0957 -0.9829
 6704TIP3    H241604   0.251   1.130   3.572 -0.0420  0.3419 -0.6694
 6705TIP3   OH241605   3.303   3.801  17.459  0.4869  0.3619 -0.2697
 6705TIP3    H141606   3.333   3.824  17.547 -0.8325 -2.0598  0.9368
 6705TIP3    H241607   3.382   3.774  17.412  0.9903 -0.0589  0.7929
 6706TIP3   OH241608   3.854   0.476  13.061  0.2674 -0.3111  0.0906
 6706TIP3    H141609   3.846   0.569  13.082  2.1657  0.1171 -0.8347
 6706TIP3    H241610   3.907   0.440  13.132 -1.0333 -0.8815  0.8151
 6707TIP3   OH241611   2.725   5.612  11.860 -0.3767  0.1235  0.0480
 6707TIP3    H141612   2.739   5.570  11.945 -0.8769 -0.6065 -0.2141
 6707TIP3    H241613   2.707   5.539  11.801  2.0432  0.4161 -1.1618
 6708TIP3   OH241614   0.213   3.884   4.974 -0.2072  0.6588  0.3988
 6708TIP3    H141615   0.280   3.915   4.914  0.6345 -0.4724  0.7326
 6708TIP3    H241616   0.191   3.961   5.027 -2.4086  2.2712 -2.5509
 6709TIP3   OH241617   0.969   4.452   1.016 -0.3914 -0.7290  0.7957
 6709TIP3    H141618   0.923   4.532   1.041  0.1892  0.0805 -0.6484
 6709TIP3    H241619   1.056   4.461   1.056  0.0729 -0.0694 -0.3257
 6710TIP3   OH241620   3.633   4.022  14.827 -0.0045  0.5007 -0.3627
 6710TIP3    H141621   3.618   4.070  14.909 -2.3041 -1.4010  0.4694
 6710TIP3    H241622   3.550   4.028  14.780  0.7032  0.0437 -1.7310
 6711TIP3   OH241623   2.985   4.705  14.101 -0.2022 -0.1258  0.1193
 6711TIP3    H141624   3.075   4.739  14.102  0.2351 -1.2294  0.6399
 6711TIP3    H241625   2.942   4.752  14.029  1.0151 -0.1452 -0.6469
 6712TIP3   OH241626   0.330   2.827  15.101 -0.0575 -0.5498  0.6485
 6712TIP3    H141627   0.409   2.872  15.072  0.2916 -1.4036  0.2220
 6712TIP3    H241628   0.258   2.882  15.070  0.3670  0.2668  1.0995
 6713TIP3   OH241629   3.556   2.292  14.972  0.0141 -0.5066 -0.7055
 6713TIP3    H141630   3.475   2.332  14.940 -0.3832 -0.8001 -0.0965
 6713TIP3    H241631   3.548   2.295  15.068  1.9296  1.8922 -0.5304
 6714TIP3   OH241632   6.496   4.641  17.210  0.0190  0.0976  0.4490
 6714TIP3    H141633   6.535   4.556  17.188 -0.4501 -0.3375  1.2458
 6714TIP3    H241634   6.436   4.659  17.137 -0.1896 -0.4578  0.4794
 6715TIP3   OH241635   1.543   6.336   2.201 -0.0731 -0.2823 -0.4056
 6715TIP3    H141636   1.485   6.284   2.257  1.0200 -0.5426  0.5178
 6715TIP3    H241637   1.556   6.282   2.123  0.7237 -1.2471  0.3655
 6716TIP3   OH241638   1.670   2.379  10.864  0.4440  0.2969 -0.1844
 6716TIP3    H141639   1.730   2.323  10.913 -0.3983 -0.1067  0.4045
 6716TIP3    H241640   1.644   2.327  10.788 -0.0127  0.0354  0.1442
 6717TIP3   OH241641   5.229   6.285  11.438  0.3889  0.2882  0.1425
 6717TIP3    H141642   5.243   6.191  11.453  1.7666  0.3329 -0.6778
 6717TIP3    H241643   5.225   6.323  11.526  1.0044 -0.3942  0.4780
 6718TIP3   OH241644   4.407   5.869   3.533  0.0121  0.1561  0.0772
 6718TIP3    H141645   4.325   5.884   3.486  0.8891  0.9133 -1.2837
 6718TIP3    H241646   4.426   5.952   3.576 -0.1829 -0.1744  0.8166
 6719TIP3   OH241647   3.296   0.608  16.084 -0.0880  0.2631 -0.4928
 6719TIP3    H141648   3.336   0.638  16.165 -0.0605  0.7204 -0.6730
 6719TIP3    H241649   3.226   0.671  16.066 -0.0810  0.1798 -0.8320
 6720TIP3   OH241650   5.515   0.536  13.471  0.3326  0.0403 -0.2536
 6720TIP3    H141651   5.420   0.544  13.467  0.1489 -1.5052  0.6027
 6720TIP3    H241652   5.539   0.492  13.389  0.0993 -1.2063  0.3281
 6721TIP3   OH241653   3.209   3.878   2.165  0.3890 -0.4800 -0.3217
 6721TIP3    H141654   3.242   3.962   2.197 -0.6698 -0.8556  2.0058
 6721TIP3    H241655   3.270   3.853   2.096  0.1610  2.6510 -1.8789
 6722TIP3   OH241656   0.998   3.792   0.461  0.4652 -0.1720 -0.6702
 6722TIP3    H141657   0.986   3.699   0.477 -0.7960 -0.0096 -0.5545
 6722TIP3    H241658   0.912   3.822   0.430 -0.0670  1.5240  2.1442
 6723TIP3   OH241659   0.853   0.157   2.685 -0.0647  0.2435 -0.5430
 6723TIP3    H141660   0.896   0.220   2.742 -0.8065  1.0265 -0.8173
 6723TIP3    H241661   0.922   0.125   2.627  0.5982 -0.2328  0.4956
 6724TIP3   OH241662   0.026   2.479   0.236 -0.2131 -0.2396  0.1163
 6724TIP3    H141663   0.018   2.572   0.257  0.4391 -0.2157  0.2750
 6724TIP3    H241664  -0.048   2.461   0.178  1.0636  0.9826 -2.0267
 6725TIP3   OH241665   3.549   5.561  14.278 -0.5455  0.2937  0.2469
 6725TIP3    H141666   3.622   5.603  14.230 -0.2692 -1.8956 -1.4082
 6725TIP3    H241667   3.554   5.599  14.366  0.1325  3.0992 -0.8678
 6726TIP3   OH241668   3.391   1.973   1.445  0.4708 -0.2201 -0.3642
 6726TIP3    H141669   3.423   2.061   1.462 -2.5467  1.2374 -1.6051
 6726TIP3    H241670   3.394   1.963   1.350  1.3911 -1.7706 -0.2151
 6727TIP3   OH241671   1.094   6.131   5.748  0.2629 -0.4772  0.1057
 6727TIP3    H141672   1.100   6.092   5.835 -0.5331 -0.4654  0.1758
 6727TIP3    H241673   1.158   6.202   5.748  0.4241 -0.6219  0.6014
 6728TIP3   OH241674   1.390   1.126   5.417 -0.1434  0.2673 -0.2701
 6728TIP3    H141675   1.371   1.035   5.441 -0.2747 -0.0953 -1.6786
 6728TIP3    H241676   1.306   1.161   5.386  0.1038  0.5871 -0.5882
 6729TIP3   OH241677   1.070   0.449   5.473  0.6201  0.4229  0.4004
 6729TIP3    H141678   1.122   0.514   5.425 -0.7445  0.9433 -0.4337
 6729TIP3    H241679   1.134   0.385   5.505  1.9097  1.8152  0.6608
 6730TIP3   OH241680   2.049   1.503  12.673  0.3972 -0.4176  0.5547
 6730TIP3    H141681   2.069   1.522  12.582  0.7132 -1.0559  0.4828
 6730TIP3    H241682   2.133   1.509  12.718  0.3445 -0.6926  0.6928
 6731TIP3   OH241683   2.391   0.655  17.192  0.6971  0.5653  0.3539
 6731TIP3    H141684   2.351   0.610  17.119  2.1223  0.3055 -0.3077
 6731TIP3    H241685   2.322   0.661  17.258 -0.1855 -0.5109 -0.4387
 6732TIP3   OH241686   3.572   2.309  17.244  0.2246 -0.1480 -0.0224
 6732TIP3    H141687   3.586   2.229  17.296  0.6531 -0.2140 -0.2321
 6732TIP3    H241688   3.632   2.373  17.282  0.4994 -0.1795 -0.3960
 6733TIP3   OH241689   0.729   0.933  17.430 -0.3091 -0.1505  0.1776
 6733TIP3    H141690   0.677   0.943  17.510 -1.2396  1.2275 -0.5461
 6733TIP3    H241691   0.817   0.961  17.456  0.0711 -2.2265  1.3432
 6734TIP3   OH241692   5.384   2.473  17.074 -0.0998  0.3109 -0.9878
 6734TIP3    H141693   5.290   2.477  17.093 -0.0238  0.3966 -0.6237
 6734TIP3    H241694   5.388   2.458  16.980 -0.4760  0.6778 -1.0654
 6735TIP3   OH241695   4.379   3.434   4.829  0.6407 -0.0673 -0.1945
 6735TIP3    H141696   4.415   3.412   4.915  4.4472 -0.5425 -1.6744
 6735TIP3    H241697   4.446   3.489   4.789 -1.5758  1.1894 -2.4427
 6736TIP3   OH241698   6.735   0.822  14.981 -0.4289  0.0871  0.3423
 6736TIP3    H141699   6.662   0.858  14.931 -2.1706 -2.2189  1.0187
 6736TIP3    H241700   6.693   0.766  15.047  1.9381 -0.5895  1.3701
 6737TIP3   OH241701   5.352   2.777  15.111  0.4859 -0.0951  0.0053
 6737TIP3    H141702   5.427   2.718  15.108  0.2565 -0.4336  0.9182
 6737TIP3    H241703   5.387   2.859  15.147  1.1800  0.9486 -2.7047
 6738TIP3   OH241704   3.476   6.334  13.454  0.3214  0.2530  0.0697
 6738TIP3    H141705   3.543   6.370  13.512 -0.0844 -0.8081  1.2444
 6738TIP3    H241706   3.516   6.257  13.415 -0.5990 -1.1358  1.7717
 6739TIP3   OH241707   0.301   0.551   5.673 -0.1863 -0.2930  0.5040
 6739TIP3    H141708   0.379   0.574   5.622  0.1601 -0.3208  1.0107
 6739TIP3    H241709   0.328   0.566   5.764 -0.9369  0.1904  0.6540
 6740TIP3   OH241710   2.415   4.215  17.230 -0.1073 -0.3003  0.8180
 6740TIP3    H141711   2.348   4.209  17.299  0.5395 -0.8548  1.4093
 6740TIP3    H241712   2.367   4.249  17.154 -1.0852 -0.7864  1.1969
 6741TIP3   OH241713   4.648   1.988  12.554 -0.1277  0.0449 -0.2279
 6741TIP3    H141714   4.725   2.022  12.599 -1.2662  2.4992  0.0135
 6741TIP3    H241715   4.635   2.046  12.479 -0.6211 -1.5288 -1.4068
 6742TIP3   OH241716   2.695   5.460   2.191  0.6475  0.0861 -0.6654
 6742TIP3    H141717   2.656   5.540   2.155  1.5747 -0.6829 -3.6195
 6742TIP3    H241718   2.729   5.487   2.276  0.6837  2.7774 -1.4382
 6743TIP3   OH241719   2.815   2.690   3.167 -0.0644  0.0316  0.1228
 6743TIP3    H141720   2.844   2.781   3.173 -2.2573  0.7053  1.6784
 6743TIP3    H241721   2.814   2.672   3.073 -1.7398  2.4264 -0.4207
 6744TIP3   OH241722   2.886   0.991   1.316  0.4947 -0.1177 -0.0460
 6744TIP3    H141723   2.957   1.026   1.371  1.1123  0.0114 -0.9005
 6744TIP3    H241724   2.872   0.902   1.349  0.3210  0.2124  0.8142
 6745TIP3   OH241725   3.061   4.638   3.857 -0.2074  0.0342 -0.3952
 6745TIP3    H141726   3.145   4.642   3.811 -0.9412  0.5724 -1.7514
 6745TIP3    H241727   3.083   4.655   3.949  1.8697 -5.1086  0.3748
 6746TIP3   OH241728   3.090   5.969  13.925 -0.2744  0.1425 -0.2562
 6746TIP3    H141729   3.021   5.967  13.859  0.0478 -0.0528 -0.5891
 6746TIP3    H241730   3.118   5.878  13.933  0.6847  0.3598 -0.9191
 6747TIP3   OH241731   5.461   4.724  14.649 -0.6677  0.2831 -0.2856
 6747TIP3    H141732   5.497   4.780  14.718 -2.4250  0.0366  0.8933
 6747TIP3    H241733   5.532   4.664  14.628 -0.2719 -0.1017  1.8514
 6748TIP3   OH241734   5.481   4.145   3.173  0.2217  0.1241 -0.2319
 6748TIP3    H141735   5.396   4.189   3.170 -0.3629 -0.9273  0.4811
 6748TIP3    H241736   5.528   4.189   3.244  1.5554  2.8569 -2.5850
 6749TIP3   OH241737   3.144   5.142   2.240  0.1468  0.0130  0.5497
 6749TIP3    H141738   3.231   5.171   2.213  0.2621 -0.9392 -0.1269
 6749TIP3    H241739   3.092   5.143   2.160  0.0805 -1.3443  0.5625
 6750TIP3   OH241740   4.377   3.375   1.491 -0.2503  0.0634 -0.4968
 6750TIP3    H141741   4.335   3.343   1.571  1.5127  0.9967  0.8665
 6750TIP3    H241742   4.334   3.459   1.474 -1.9500 -0.9914 -1.6725
 6751TIP3   OH241743   4.438   5.641   1.176  0.3329  0.4777 -0.4253
 6751TIP3    H141744   4.369   5.685   1.226 -0.2905 -1.0090  0.0717
 6751TIP3    H241745   4.518   5.687   1.200 -0.3050  1.4085 -0.0190
 6752TIP3   OH241746   6.687   3.793  17.261  0.0886  0.5426  0.1308
 6752TIP3    H141747   6.694   3.809  17.355 -0.9360 -1.2914  0.5641
 6752TIP3    H241748   6.773   3.761  17.235  0.5685  1.6445  0.2824
 6753TIP3   OH241749   4.738   6.163  16.340  0.0282  0.4097  0.0730
 6753TIP3    H141750   4.671   6.108  16.299 -0.8780  1.2927  0.2998
 6753TIP3    H241751   4.754   6.122  16.425 -0.6933  0.5180  0.2732
 6754TIP3   OH241752   0.242   3.716  12.556  0.1835 -0.3436 -0.2679
 6754TIP3    H141753   0.183   3.785  12.524 -0.7635 -0.8498  0.3602
 6754TIP3    H241754   0.325   3.735  12.513 -0.1254  1.0466 -0.3120
 6755TIP3   OH241755   0.799   6.074   0.992  0.1350 -0.1939  0.0357
 6755TIP3    H141756   0.707   6.091   0.973  0.9736  1.1155 -3.5036
 6755TIP3    H241757   0.807   5.979   0.987 -0.7351 -0.2273 -1.4251
 6756TIP3   OH241758   6.430   4.277  16.516  0.3847 -1.1263  0.1344
 6756TIP3    H141759   6.397   4.192  16.546 -2.1574 -0.3686 -0.2638
 6756TIP3    H241760   6.378   4.297  16.438 -0.1713  1.4156  1.0481
 6757TIP3   OH241761   6.647   5.662   4.753 -0.0152  0.0543 -0.3702
 6757TIP3    H141762   6.701   5.586   4.772  0.9779  0.6559 -0.7047
 6757TIP3    H241763   6.701   5.737   4.780 -0.2066  0.7256 -1.7644
 6758TIP3   OH241764   1.895   1.893   5.065 -0.6274 -0.0911  0.8099
 6758TIP3    H141765   1.810   1.919   5.100 -1.3023 -2.7031  1.3101
 6758TIP3    H241766   1.953   1.889   5.141 -0.9245 -1.4278  0.9833
 6759TIP3   OH241767   3.691   1.592  15.464  0.1992  0.3065  0.1999
 6759TIP3    H141768   3.732   1.514  15.501 -0.7647 -0.3137 -0.0013
 6759TIP3    H241769   3.686   1.574  15.370 -3.0106 -0.9127  0.4730
 6760TIP3   OH241770   1.201   6.423  14.602 -0.3675  0.0089  0.0579
 6760TIP3    H141771   1.178   6.493  14.663 -1.1695 -0.8124  0.7333
 6760TIP3    H241772   1.140   6.434  14.529 -0.1908  0.2796 -0.0509
 6761TIP3   OH241773   6.572   1.460   4.643  0.3486  0.7667  0.2034
 6761TIP3    H141774   6.522   1.381   4.665 -0.4256  0.6905 -1.6024
 6761TIP3    H241775   6.580   1.456   4.547 -1.9428  4.1392 -0.2850
 6762TIP3   OH241776   1.562   4.086  12.995  0.6875  0.4706 -0.5815
 6762TIP3    H141777   1.646   4.085  13.042  0.3239  1.1694  0.1141
 6762TIP3    H241778   1.539   4.179  12.990 -1.6675  0.1898  2.2282
 6763TIP3   OH241779   6.705   1.645   1.610 -0.2801 -0.7226  0.2400
 6763TIP3    H141780   6.757   1.571   1.580 -0.8324 -0.6801 -0.8579
 6763TIP3    H241781   6.757   1.684   1.681  2.3228  0.7255 -2.2750
 6764TIP3   OH241782   2.780   6.441   1.933 -0.3181  0.5694  0.4187
 6764TIP3    H141783   2.850   6.493   1.972  0.3827  0.3338 -0.4875
 6764TIP3    H241784   2.787   6.355   1.976  0.6872  0.1939 -0.4404
 6765TIP3   OH241785   2.309   1.792   0.732 -0.5026 -0.3279  0.0139
 6765TIP3    H141786   2.275   1.770   0.645 -1.3072 -2.9118  0.8915
 6765TIP3    H241787   2.239   1.767   0.792  0.3913  0.5492  1.4855
 6766TIP3   OH241788   0.866   0.499   4.766 -0.2583 -0.3953 -0.1774
 6766TIP3    H141789   0.895   0.409   4.784 -0.8705 -0.3208  1.3554
 6766TIP3    H241790   0.876   0.544   4.850 -0.4183  0.8507 -0.8072
 6767TIP3   OH241791   4.005   2.797  13.637 -0.3873  0.2413 -0.2406
 6767TIP3    H141792   3.974   2.719  13.590  0.2494  1.3520 -2.6227
 6767TIP3    H241793   3.986   2.777  13.729 -1.7960 -1.9993 -0.9129
 6768TIP3   OH241794   5.968   0.977   0.984 -0.2208 -0.3047  0.5264
 6768TIP3    H141795   6.008   0.892   0.968 -1.6474 -1.3167  2.0389
 6768TIP3    H241796   5.922   0.967   1.067 -1.7620  1.4637 -0.0396
 6769TIP3   OH241797   2.503   3.155   1.556 -0.0566 -0.5335 -0.0178
 6769TIP3    H141798   2.506   3.102   1.636  0.6261 -0.6329 -0.1073
 6769TIP3    H241799   2.589   3.196   1.550 -0.4825  0.3645 -0.1071
 6770TIP3   OH241800   0.468   0.710  16.415  0.6023  0.1274  0.1394
 6770TIP3    H141801   0.444   0.709  16.508  1.3616  0.1016  0.3399
 6770TIP3    H241802   0.428   0.791  16.382 -2.0419 -1.2011 -0.1847
 6771TIP3   OH241803   2.807   0.467  16.687 -0.2640 -0.4034 -0.2137
 6771TIP3    H141804   2.767   0.525  16.751  0.0733 -0.0508 -0.3180
 6771TIP3    H241805   2.900   0.467  16.709  0.5594  2.7333 -2.9443
 6772TIP3   OH241806   6.530   5.225   2.396 -0.2787  0.3263 -0.0148
 6772TIP3    H141807   6.448   5.208   2.351  0.0218  0.9338 -0.8242
 6772TIP3    H241808   6.549   5.317   2.377 -0.1984  0.6453  1.4728
 6773TIP3   OH241809   0.782   4.053   0.816 -0.0802 -0.2004  0.0773
 6773TIP3    H141810   0.780   4.054   0.911 -3.3475  1.8240  0.1425
 6773TIP3    H241811   0.840   4.125   0.792 -0.5163  0.3201  0.5720
 6774TIP3   OH241812   4.401   2.109   5.851  0.5035  0.0152 -0.0881
 6774TIP3    H141813   4.425   2.175   5.786 -2.2573  1.5384  0.2474
 6774TIP3    H241814   4.324   2.066   5.814  0.7103 -1.2282  0.8633
 6775TIP3   OH241815   3.970   3.070  15.528  0.2069  0.2133  0.0093
 6775TIP3    H141816   3.944   2.983  15.559  1.6823 -0.9456 -1.8184
 6775TIP3    H241817   3.890   3.123  15.537  0.0923 -0.3180  4.2329
 6776TIP3   OH241818   4.347   5.661  16.729 -0.3073  0.1370  0.0320
 6776TIP3    H141819   4.303   5.641  16.646  0.1538 -0.8264 -0.0024
 6776TIP3    H241820   4.287   5.719  16.776 -0.4502  0.9264 -1.0894
 6777TIP3   OH241821   4.133   1.614  11.270  0.5388 -0.2732  0.1256
 6777TIP3    H141822   4.224   1.603  11.240  0.6829  1.8524 -0.4479
 6777TIP3    H241823   4.080   1.579  11.198  0.9073 -0.4775 -0.0512
 6778TIP3   OH241824   1.384   2.925  14.148  0.0152  0.8410  0.0368
 6778TIP3    H141825   1.443   2.984  14.194  0.0942 -0.3810  1.5762
 6778TIP3    H241826   1.328   2.983  14.096  2.2506  2.0703 -1.1627
 6779TIP3   OH241827   4.865   0.853   3.136 -0.2629 -0.3003 -0.0779
 6779TIP3    H141828   4.856   0.879   3.045 -0.1854 -1.3944 -0.4041
 6779TIP3    H241829   4.788   0.890   3.179  0.8461  2.2420 -0.0774
 6780TIP3   OH241830   3.039   5.666   0.308  0.0504 -0.1085 -0.8463
 6780TIP3    H141831   3.124   5.707   0.293  0.6425 -1.0039 -0.1248
 6780TIP3    H241832   2.983   5.700   0.239  0.9479  0.6507 -1.2238
 6781TIP3   OH241833   3.636   1.233   2.158  0.5346  0.1405 -0.5614
 6781TIP3    H141834   3.547   1.231   2.123  1.0415  1.0992 -1.9929
 6781TIP3    H241835   3.692   1.216   2.082  1.7728  3.8090 -0.6888
 6782TIP3   OH241836   3.935   6.456   3.215 -0.1992 -0.2424  0.4081
 6782TIP3    H141837   3.930   6.425   3.125  0.5819  0.6278  0.0526
 6782TIP3    H241838   3.908   6.381   3.268 -0.3885 -0.8490 -0.5297
 6783TIP3   OH241839   4.871   1.512  12.258 -0.4538  0.8785  0.0498
 6783TIP3    H141840   4.846   1.535  12.348 -0.8418  1.0078 -0.0909
 6783TIP3    H241841   4.953   1.462  12.268  1.8235  4.2957  0.2300
 6784TIP3   OH241842   2.998   3.117   2.554 -0.0087  0.3318 -0.0329
 6784TIP3    H141843   2.978   3.189   2.614  0.6921 -1.6701  2.8044
 6784TIP3    H241844   3.076   3.147   2.507  0.2150  1.4815  0.9907
 6785TIP3   OH241845   0.748   6.307  15.546  0.3951 -0.3478 -0.1800
 6785TIP3    H141846   0.801   6.302  15.625  1.5689  0.0390 -0.9172
 6785TIP3    H241847   0.663   6.341  15.575  1.0051  0.3688  0.8118
 6786TIP3   OH241848   6.530   1.994   4.708 -0.1364  0.5115 -0.0410
 6786TIP3    H141849   6.605   1.980   4.766 -1.0820 -2.9145  0.5821
 6786TIP3    H241850   6.560   1.962   4.622 -0.5849 -0.0281 -0.0002
 6787TIP3   OH241851   5.996   0.485   2.835 -0.2383  0.5318 -0.1271
 6787TIP3    H141852   6.067   0.532   2.879  1.4085 -2.1903  0.2969
 6787TIP3    H241853   5.920   0.496   2.892  0.6515  0.9209  1.0124
 6788TIP3   OH241854   1.557   2.694  13.804  0.1516  0.2985  0.2063
 6788TIP3    H141855   1.635   2.663  13.759 -0.0586 -1.3069  0.8737
 6788TIP3    H241856   1.491   2.628  13.786 -0.5820  0.8003  0.9886
 6789TIP3   OH241857   3.323   0.154  12.525 -0.1710 -0.2226 -0.6108
 6789TIP3    H141858   3.264   0.215  12.481 -0.6996 -0.4132 -0.1743
 6789TIP3    H241859   3.396   0.208  12.555  0.5734 -0.1891 -2.3276
 6790TIP3   OH241860   0.338   5.742   6.179 -0.2323  0.2907 -0.0143
 6790TIP3    H141861   0.334   5.836   6.160  0.0131  0.1856 -0.6280
 6790TIP3    H241862   0.372   5.737   6.268  1.1578  0.7697 -0.4848
 6791TIP3   OH241863   3.155   0.539   4.771  0.0878  0.0252 -0.3600
 6791TIP3    H141864   3.213   0.482   4.720  1.1638  0.9190 -0.1888
 6791TIP3    H241865   3.158   0.503   4.859  0.8807  0.4094 -0.2199
 6792TIP3   OH241866   3.120   2.654  11.091 -0.2110  0.1723  0.3153
 6792TIP3    H141867   3.042   2.640  11.144  0.7336 -0.8544  1.4930
 6792TIP3    H241868   3.159   2.734  11.127 -0.0311 -0.0429  0.6022
 6793TIP3   OH241869   1.130   4.781  15.572 -0.2867  0.2445 -0.2958
 6793TIP3    H141870   1.133   4.868  15.613  1.8336  1.7456 -3.2686
 6793TIP3    H241871   1.221   4.751  15.573 -0.9982 -2.0649  0.7497
 6794TIP3   OH241872   3.885   0.350   6.007 -0.6759 -0.2701 -0.1270
 6794TIP3    H141873   3.794   0.354   5.978 -0.5934 -0.7839 -0.4780
 6794TIP3    H241874   3.887   0.277   6.068 -0.5215 -0.1837 -0.0290
 6795TIP3   OH241875   1.042   4.456  12.682 -0.1634 -0.3036 -0.2294
 6795TIP3    H141876   0.952   4.427  12.694 -0.5974  1.0162 -0.1217
 6795TIP3    H241877   1.095   4.382  12.712 -1.2083 -0.1922  2.0835
 6796TIP3   OH241878   0.468   2.424  14.165  0.0766  0.1728 -0.8744
 6796TIP3    H141879   0.385   2.418  14.213 -0.0226  1.9531 -0.7661
 6796TIP3    H241880   0.474   2.516  14.138  1.9011  0.0324 -1.0989
 6797TIP3   OH241881   0.051   4.715  16.312 -0.1453  0.2656  0.5961
 6797TIP3    H141882   0.069   4.681  16.225 -0.6193 -2.3613  1.4286
 6797TIP3    H241883   0.114   4.671  16.369  0.6090  2.4347  1.5571
 6798TIP3   OH241884   6.146   4.556   2.479  0.0865  0.1524 -0.5326
 6798TIP3    H141885   6.155   4.508   2.397 -0.2505 -1.6198  0.4139
 6798TIP3    H241886   6.053   4.555   2.498  0.1380  0.7419 -0.2348
 6799TIP3   OH241887   1.409   0.261  11.918 -0.8187  0.3762 -0.3481
 6799TIP3    H141888   1.385   0.354  11.916 -0.6163  0.4775 -3.4023
 6799TIP3    H241889   1.329   0.217  11.949 -1.3550  1.4709 -0.1101
 6800TIP3   OH241890   4.438   2.136   0.562  0.5305 -0.6756 -0.0112
 6800TIP3    H141891   4.509   2.130   0.498  1.8867  0.0112  1.3684
 6800TIP3    H241892   4.473   2.096   0.641 -0.8855 -0.9403  0.5177
 6801TIP3   OH241893   1.771   1.261  15.391  0.7176  0.2250 -0.0124
 6801TIP3    H141894   1.785   1.210  15.470 -1.4992  1.6633  1.3922
 6801TIP3    H241895   1.820   1.214  15.323  0.2175 -2.7475  1.5423
 6802TIP3   OH241896   4.931   2.789   0.357 -0.5417 -0.4668 -0.3178
 6802TIP3    H141897   4.871   2.727   0.399 -0.1422 -0.5862  0.0815
 6802TIP3    H241898   4.953   2.852   0.425 -1.1346  0.2721 -0.7880
 6803TIP3   OH241899   6.630   5.553  15.648  0.8181  0.7522  0.1210
 6803TIP3    H141900   6.606   5.590  15.562  0.4435  0.9207  0.2945
 6803TIP3    H241901   6.564   5.588  15.708  0.6740  0.0855  0.3570
 6804TIP3   OH241902   4.928   4.046  15.392  0.2926  0.1563 -0.0373
 6804TIP3    H141903   4.933   4.104  15.316  1.3181  0.2677  0.1063
 6804TIP3    H241904   4.839   4.058  15.425  0.4991  1.6795  0.0148
 6805TIP3   OH241905   2.978   5.739  12.205  0.5430 -0.1320 -0.0307
 6805TIP3    H141906   2.962   5.652  12.242 -0.5126 -0.5644 -1.4096
 6805TIP3    H241907   2.917   5.797  12.251 -0.8650 -0.6897 -1.1268
 6806TIP3   OH241908   0.846   6.281   4.696  0.1668  0.2279  0.1785
 6806TIP3    H141909   0.908   6.251   4.629  0.3382  1.2914 -0.1741
 6806TIP3    H241910   0.879   6.368   4.721 -0.2713  0.1200  1.1717
 6807TIP3   OH241911   5.906   5.463   4.661 -0.1246  0.2238  0.5189
 6807TIP3    H141912   5.953   5.536   4.702  0.3417 -0.0714  0.5167
 6807TIP3    H241913   5.933   5.386   4.712  0.2973 -0.1163 -0.1995
 6808TIP3   OH241914   5.789   0.336   4.058 -0.3901 -0.6819  0.8011
 6808TIP3    H141915   5.720   0.300   4.002  0.7848 -2.2032  0.2547
 6808TIP3    H241916   5.862   0.352   3.998 -0.3775  1.3612  1.2836
 6809TIP3   OH241917   2.641   0.924   3.852  0.0344  0.1753  0.4219
 6809TIP3    H141918   2.590   0.843   3.859  1.1093 -0.5043  0.6979
 6809TIP3    H241919   2.732   0.895   3.860  0.6418  1.0353 -2.4606
 6810TIP3   OH241920   4.822   4.245  15.222  0.3318  0.1748  0.1943
 6810TIP3    H141921   4.815   4.160  15.179  2.5137  0.6930 -1.3480
 6810TIP3    H241922   4.735   4.284  15.214  0.0877 -0.6802 -1.7886
 6811TIP3   OH241923   2.668   5.151  15.037 -0.2485  0.2905 -0.2315
 6811TIP3    H141924   2.657   5.065  15.077  2.3087 -0.5805 -1.1996
 6811TIP3    H241925   2.599   5.155  14.970 -0.0831 -1.2540 -0.5369
 6812TIP3   OH241926   2.309   3.615   2.215 -0.4937  0.2996  0.1489
 6812TIP3    H141927   2.331   3.648   2.303 -1.3682 -0.8358  0.8061
 6812TIP3    H241928   2.309   3.520   2.224  0.5182  0.1169 -1.3729
 6813TIP3   OH241929   2.325   3.900  12.635 -0.0786  0.4752  0.6073
 6813TIP3    H141930   2.252   3.930  12.581  0.4141 -0.4346 -0.6053
 6813TIP3    H241931   2.377   3.979  12.652  0.5777  0.5700 -1.5558
 6814TIP3   OH241932   3.302   0.720   6.336 -0.0889  0.2097 -0.5557
 6814TIP3    H141933   3.230   0.769   6.376 -0.5566 -0.4881 -0.5052
 6814TIP3    H241934   3.381   0.755   6.376 -0.4363  0.6894 -0.2816
 6815TIP3   OH241935   2.150   0.664   6.024 -0.2258  0.3650 -0.4584
 6815TIP3    H141936   2.092   0.591   6.002  1.5339 -0.5894 -2.3221
 6815TIP3    H241937   2.098   0.742   6.006 -1.8325 -0.3900  0.6551
 6816TIP3   OH241938   0.068   5.645  12.225  0.2022 -0.0615 -0.0747
 6816TIP3    H141939   0.021   5.565  12.201  0.1374  0.5735 -2.3484
 6816TIP3    H241940   0.017   5.681  12.298 -0.0483 -1.8025  0.6644
 6817TIP3   OH241941   2.793   3.117  16.502  0.0809 -0.1210 -0.7492
 6817TIP3    H141942   2.838   3.199  16.523  0.5410 -0.5746  0.0816
 6817TIP3    H241943   2.836   3.051  16.557 -0.9928 -0.7314 -0.6083
 6818TIP3   OH241944   1.129   2.883  12.858 -0.3711  0.2933  0.5409
 6818TIP3    H141945   1.214   2.919  12.834  0.5505 -1.6944  0.5451
 6818TIP3    H241946   1.066   2.929  12.803  1.1993 -1.3134 -2.9421
 6819TIP3   OH241947   4.296   0.272   6.912 -0.5276  0.2015  0.3692
 6819TIP3    H141948   4.297   0.184   6.873 -0.3912  0.6989 -0.7579
 6819TIP3    H241949   4.385   0.283   6.946 -0.3484  0.1660 -0.0851
 6820TIP3   OH241950   4.302   4.331  13.382 -0.2628  0.2630  0.2719
 6820TIP3    H141951   4.373   4.344  13.319 -0.7594  0.4116 -0.2669
 6820TIP3    H241952   4.312   4.403  13.444  0.8477 -0.4661  0.9695
 6821TIP3   OH241953   5.444   5.009   4.534 -0.2423 -0.0105  0.5469
 6821TIP3    H141954   5.419   4.982   4.622 -0.8118  2.0212  1.0568
 6821TIP3    H241955   5.485   5.095   4.546  0.2274  0.0378 -1.1181
 6822TIP3   OH241956   5.341   4.498   5.856 -0.5221 -0.4659  0.8180
 6822TIP3    H141957   5.374   4.429   5.798 -1.0898  0.2601 -0.3956
 6822TIP3    H241958   5.420   4.536   5.895 -0.1144 -0.7585  0.2849
 6823TIP3   OH241959   5.876   4.690   2.837  0.4419 -1.0032 -0.0531
 6823TIP3    H141960   5.876   4.642   2.755 -1.3798 -1.9811  0.4524
 6823TIP3    H241961   5.838   4.775   2.816 -0.2987 -1.3619 -0.1799
 6824TIP3   OH241962   5.439   1.996   2.174 -0.4678 -0.2015  0.0928
 6824TIP3    H141963   5.394   2.040   2.246 -1.3452 -1.3935  0.2864
 6824TIP3    H241964   5.517   1.957   2.215 -0.9353 -0.8295  0.3912
 6825TIP3   OH241965   2.649   6.663  11.417 -0.6540 -0.4747  0.5151
 6825TIP3    H141966   2.560   6.639  11.392 -1.7855  2.3293  1.4386
 6825TIP3    H241967   2.672   6.736  11.360  1.7816 -2.1235 -0.8061
 6826TIP3   OH241968   2.851   2.137   6.191 -0.1630  0.2750 -0.0275
 6826TIP3    H141969   2.830   2.214   6.139 -1.0522  0.9887  1.3374
 6826TIP3    H241970   2.859   2.170   6.281  0.7738 -1.0108  0.3898
 6827TIP3   OH241971   0.729   1.567  11.633  0.0983  0.0671  0.0044
 6827TIP3    H141972   0.654   1.626  11.628 -0.3544 -0.5996 -2.2191
 6827TIP3    H241973   0.805   1.624  11.621 -0.1689  0.5286  0.4948
 6828TIP3   OH241974   6.144   2.470  17.387  0.3125 -0.4387  0.4667
 6828TIP3    H141975   6.114   2.388  17.350  0.2866 -0.6254  0.8965
 6828TIP3    H241976   6.091   2.483  17.466  0.5872 -0.2101  0.6182
 6829TIP3   OH241977   1.124   2.912   4.910  0.2996 -0.1183 -0.3343
 6829TIP3    H141978   1.160   2.843   4.966 -0.6510  0.6721  1.3443
 6829TIP3    H241979   1.185   2.985   4.922 -0.5087  0.4260  0.6150
 6830TIP3   OH241980   1.986   5.935  16.934 -0.6883  0.2361  0.7976
 6830TIP3    H141981   2.004   6.011  16.878  0.5846 -0.7856 -0.2548
 6830TIP3    H241982   2.023   5.959  17.019 -1.3744  1.2567  0.8269
 6831TIP3   OH241983   4.354   3.059   1.598  0.1882  0.3601 -0.2498
 6831TIP3    H141984   4.394   3.129   1.648  0.9573  1.3517 -2.1446
 6831TIP3    H241985   4.260   3.076   1.604  0.1702 -0.1983  1.6978
 6832TIP3   OH241986   0.911   2.511   5.302  0.1061 -0.2922 -0.3152
 6832TIP3    H141987   0.942   2.476   5.385 -0.1811 -0.3565 -0.2329
 6832TIP3    H241988   0.934   2.604   5.304 -1.3685  0.0788  0.5536
 6833TIP3   OH241989   6.398   3.812  17.658  0.5958 -0.2243  0.0836
 6833TIP3    H141990   6.309   3.847  17.654  0.9744  1.0182  1.5810
 6833TIP3    H241991   6.386   3.717  17.649 -0.9401 -0.1363  0.8115
 6834TIP3   OH241992   0.141   2.161  16.012 -0.2410 -0.3233  0.3013
 6834TIP3    H141993   0.144   2.174  15.918  1.3900 -0.9857  0.2219
 6834TIP3    H241994   0.049   2.141  16.031 -0.8572  1.1430 -0.9228
 6835TIP3   OH241995   2.632   4.426   1.485 -0.0400 -0.1563 -0.0315
 6835TIP3    H141996   2.713   4.476   1.495  0.0044 -0.5453  2.0063
 6835TIP3    H241997   2.658   4.335   1.494 -0.5354 -0.3737 -0.6908
 6836TIP3   OH241998   2.850   0.452  14.620 -0.3620  0.7394  0.1085
 6836TIP3    H141999   2.825   0.374  14.669  0.7470 -0.2378 -0.8348
 6836TIP3    H242000   2.828   0.431  14.529 -0.7036  1.8043 -0.0643
 6837TIP3   OH242001   1.098   6.138  15.771  0.2385  0.0680  0.3814
 6837TIP3    H142002   1.046   6.070  15.728  1.1695 -0.3334 -0.1361
 6837TIP3    H242003   1.099   6.211  15.709 -0.8787  0.6523  0.9944
 6838TIP3   OH242004   1.242   0.999  14.128  0.3765  0.4325 -0.5831
 6838TIP3    H142005   1.262   1.061  14.057  2.1271  0.1043 -0.4305
 6838TIP3    H242006   1.253   0.913  14.088 -0.8044  0.2046 -0.4603
 6839TIP3   OH242007   6.154   3.400  13.725  0.0159  0.7983 -0.3853
 6839TIP3    H142008   6.136   3.393  13.631  0.3150  2.4990 -0.6094
 6839TIP3    H242009   6.070   3.381  13.767 -0.2202  0.4346 -1.0103
 6840TIP3   OH242010   5.502   3.275  16.186 -0.0636  0.5834  0.1540
 6840TIP3    H142011   5.560   3.351  16.186 -0.3279  0.7882 -0.5440
 6840TIP3    H242012   5.429   3.300  16.242 -0.8945  1.4348 -1.2550
 6841TIP3   OH242013   6.440   3.938   5.985  0.1732 -0.0518  0.4398
 6841TIP3    H142014   6.441   3.842   5.992  0.9812 -0.0549  0.4402
 6841TIP3    H242015   6.357   3.958   5.942  0.9996 -0.9257 -1.7227
 6842TIP3   OH242016   2.634   0.841   4.391  0.1084  0.5310 -0.3485
 6842TIP3    H142017   2.674   0.768   4.438  1.9220  2.6981  1.7859
 6842TIP3    H242018   2.680   0.843   4.307 -1.1017 -1.6443 -1.1399
 6843TIP3   OH242019   4.450   6.007  11.599  0.3545  0.1095 -0.1560
 6843TIP3    H142020   4.422   5.942  11.534  0.2715  1.3356 -1.3763
 6843TIP3    H242021   4.372   6.023  11.651 -0.9996  2.4338 -2.6333
 6844TIP3   OH242022   5.444   3.058  13.489  0.6856 -0.2604  0.2287
 6844TIP3    H142023   5.406   3.054  13.401 -2.6683  0.6011  1.4693
 6844TIP3    H242024   5.412   2.980  13.532 -0.1674  0.7425  1.4922
 6845TIP3   OH242025   3.404   2.579   3.401 -0.7160 -1.0692  0.1690
 6845TIP3    H142026   3.381   2.670   3.383 -1.1731 -1.0455  0.8155
 6845TIP3    H242027   3.427   2.579   3.494 -0.0381 -1.4860  0.0097
 6846TIP3   OH242028   3.782   2.589  15.139 -0.3473 -0.0319 -0.5577
 6846TIP3    H142029   3.801   2.613  15.048 -1.1509  1.2405 -0.4163
 6846TIP3    H242030   3.688   2.603  15.148 -0.6844 -2.2162 -0.1039
 6847TIP3   OH242031   3.916   4.405  16.018  0.5243 -0.5712 -0.1523
 6847TIP3    H142032   3.965   4.358  15.951  0.7262 -1.1547  0.3963
 6847TIP3    H242033   3.885   4.336  16.077  0.3902 -0.0586  0.3779
 6848TIP3   OH242034   6.539   3.728  16.386 -0.1811  0.1480 -0.4269
 6848TIP3    H142035   6.629   3.749  16.410 -0.1926  1.0155 -1.0923
 6848TIP3    H242036   6.496   3.813  16.375 -1.5523 -0.2077  1.4818
 6849TIP3   OH242037   3.376   0.827  13.716 -0.1501  0.4901  0.5319
 6849TIP3    H142038   3.336   0.894  13.660  0.7410  2.5629  2.2641
 6849TIP3    H242039   3.465   0.817  13.682 -0.8146 -1.2889 -0.8869
 6850TIP3   OH242040   1.549   0.555  11.293 -0.1311 -0.4065  0.2824
 6850TIP3    H142041   1.508   0.570  11.208  1.4029 -1.8043 -0.7780
 6850TIP3    H242042   1.615   0.624  11.300 -1.2263  0.6086  1.0654
 6851TIP3   OH242043   3.106   5.328  16.039  0.2486  0.2833 -1.1844
 6851TIP3    H142044   3.050   5.263  16.082 -1.1984  1.5248 -1.1185
 6851TIP3    H242045   3.119   5.396  16.105  3.1141 -0.6416 -0.6862
 6852TIP3   OH242046   0.982   1.597  11.006  0.3229  0.1080 -0.4968
 6852TIP3    H142047   0.951   1.508  11.022 -0.0665  0.3767  0.2863
 6852TIP3    H242048   0.903   1.652  11.010  0.6357  0.5594 -0.3804
 6853TIP3   OH242049   5.970   2.309   2.335  0.3877 -0.0348  0.3691
 6853TIP3    H142050   5.915   2.352   2.400  0.8282  0.0438  0.6925
 6853TIP3    H242051   5.917   2.310   2.254  0.5839  1.5448  0.2389
 6854TIP3   OH242052   3.591   5.843  12.388  0.1296  0.1345 -0.2123
 6854TIP3    H142053   3.677   5.826  12.349  0.0302 -0.7401 -0.0804
 6854TIP3    H242054   3.542   5.887  12.319  0.3624 -0.2761 -0.6502
 6855TIP3   OH242055   5.231   5.445   4.339  0.2879 -0.2365 -0.1734
 6855TIP3    H142056   5.277   5.394   4.405  1.4297  0.5845 -0.3058
 6855TIP3    H242057   5.158   5.487   4.386  0.2604 -0.7538  0.2527
 6856TIP3   OH242058   5.711   1.860  15.191  0.0553  0.0695  0.3410
 6856TIP3    H142059   5.782   1.840  15.130 -0.8094  0.1610 -0.7359
 6856TIP3    H242060   5.755   1.901  15.266  0.9664  2.2598 -1.2742
 6857TIP3   OH242061   2.254   5.157   2.540 -0.3593  0.7533  0.1143
 6857TIP3    H142062   2.334   5.105   2.536 -0.4501  0.6493 -0.5972
 6857TIP3    H242063   2.185   5.098   2.509 -1.0710  0.2061  2.5894
 6858TIP3   OH242064   0.305   6.438   5.647  0.1159 -0.6275  0.3079
 6858TIP3    H142065   0.254   6.465   5.570  0.6199 -0.4927  0.0176
 6858TIP3    H242066   0.309   6.343   5.641  0.2492 -0.6090  0.1092
 6859TIP3   OH242067   1.114   0.899   0.237  0.5336  0.8030 -0.6663
 6859TIP3    H142068   1.102   0.807   0.211  1.4926  0.7986 -1.1424
 6859TIP3    H242069   1.031   0.924   0.277  0.4413 -0.4522 -0.0209
 6860TIP3   OH242070   0.477   6.294  14.822  0.1872  0.1449 -0.4498
 6860TIP3    H142071   0.512   6.383  14.828  0.1899  0.1313 -0.2618
 6860TIP3    H242072   0.554   6.238  14.822  0.1680  0.1198 -0.1358
 6861TIP3   OH242073   5.665   0.169   3.166  0.4869 -0.5788  0.2686
 6861TIP3    H142074   5.677   0.107   3.094 -1.1020  1.1021 -1.5458
 6861TIP3    H242075   5.643   0.113   3.241  1.3185 -2.3250 -0.7160
 6862TIP3   OH242076   2.728   4.554  16.064 -0.3093 -0.3489  0.2847
 6862TIP3    H142077   2.657   4.591  16.117  1.1674  0.4477  1.7949
 6862TIP3    H242078   2.808   4.589  16.103  0.9877 -2.0029 -0.7545
 6863TIP3   OH242079   0.263   6.109  11.270  0.4614 -0.2622  0.5447
 6863TIP3    H142080   0.230   6.039  11.326 -0.4724 -2.1464 -2.1593
 6863TIP3    H242081   0.222   6.093  11.185  4.3611  0.3850 -1.6636
 6864TIP3   OH242082   0.082   2.845   2.100 -0.1710  0.5808  0.0824
 6864TIP3    H142083  -0.001   2.810   2.132 -0.2196 -0.3595 -1.0008
 6864TIP3    H242084   0.073   2.843   2.004  1.3025 -0.0768 -0.0664
 6865TIP3   OH242085   4.314   3.806   7.292 -0.5841 -0.2011 -0.0038
 6865TIP3    H142086   4.375   3.836   7.225 -1.2334  0.1686 -0.4351
 6865TIP3    H242087   4.287   3.885   7.338 -3.7474  0.2514 -2.3499
 6866TIP3   OH242088   5.270   2.047   4.146  0.3125 -0.3759 -0.3896
 6866TIP3    H142089   5.315   1.976   4.100 -0.9089 -0.3154 -1.7814
 6866TIP3    H242090   5.220   2.003   4.215  1.4628 -0.5783  0.3291
 6867TIP3   OH242091   1.092   2.381  17.429 -0.2099 -0.0280 -0.7072
 6867TIP3    H142092   1.104   2.287  17.416  1.9469  0.2849 -1.5058
 6867TIP3    H242093   1.083   2.391  17.524 -0.5421 -1.0452 -0.6189
 6868TIP3   OH242094   0.400   0.450   4.090 -0.5566 -0.6679  0.3497
 6868TIP3    H142095   0.457   0.380   4.122 -1.0638 -0.9668  0.6088
 6868TIP3    H242096   0.408   0.519   4.155  0.5707 -0.1490 -0.3179
 6869TIP3   OH242097   3.147   2.884  11.863 -0.0331 -0.8275 -0.3045
 6869TIP3    H142098   3.112   2.795  11.867 -0.3391 -0.7901 -1.7663
 6869TIP3    H242099   3.232   2.878  11.908 -1.2346 -1.2064  2.0987
 6870TIP3   OH242100   6.660   5.684   3.293  0.1767  0.3441  0.0855
 6870TIP3    H142101   6.731   5.654   3.237  0.5183  0.2808  0.5468
 6870TIP3    H242102   6.693   5.673   3.382 -1.3409 -2.1363  0.4495
 6871TIP3   OH242103   3.575   4.197   7.121  0.3315 -0.5900 -0.4970
 6871TIP3    H142104   3.615   4.252   7.053  1.0700 -0.1174  0.2974
 6871TIP3    H242105   3.640   4.128   7.136 -0.2381 -1.2303 -0.9160
 6872TIP3   OH242106   4.040   4.167  15.294 -0.1774 -0.6717 -0.4733
 6872TIP3    H142107   3.995   4.252  15.296  0.9683 -0.0687  0.7742
 6872TIP3    H242108   4.108   4.174  15.361  0.1456 -2.4715 -0.5720
 6873TIP3   OH242109   5.744   3.546   3.674  0.2756  0.3016  0.3246
 6873TIP3    H142110   5.833   3.580   3.666  0.2313  0.5934  0.9924
 6873TIP3    H242111   5.737   3.519   3.766 -0.6528  1.2179  0.5400
 6874TIP3   OH242112   4.040   5.809  15.486  0.5664 -0.0017  0.7754
 6874TIP3    H142113   4.092   5.851  15.554 -0.2403  1.1752  0.6933
 6874TIP3    H242114   4.062   5.857  15.406 -1.3626  1.2194  0.9141
 6875TIP3   OH242115   1.647   5.745  15.730 -0.1443 -0.2744 -0.0631
 6875TIP3    H142116   1.638   5.687  15.806  0.2613 -1.9987 -1.2569
 6875TIP3    H242117   1.571   5.802  15.735 -1.3664 -1.8561  0.4271
 6876TIP3   OH242118   4.390   3.100   3.061  0.4793  0.1168 -0.3649
 6876TIP3    H142119   4.346   3.016   3.048 -1.4372  0.9314  0.4904
 6876TIP3    H242120   4.406   3.133   2.972 -0.8933 -0.0959 -0.7081
 6877TIP3   OH242121   6.035   1.543  15.932 -0.0846 -0.2629  0.5877
 6877TIP3    H142122   6.130   1.553  15.925 -0.0281 -1.0512  0.1623
 6877TIP3    H242123   6.015   1.461  15.886 -0.9000 -0.4297  1.2154
 6878TIP3   OH242124   5.032   4.623  15.635 -0.3894  0.0070 -0.1790
 6878TIP3    H142125   5.030   4.532  15.607 -0.5962  0.0764 -0.3950
 6878TIP3    H242126   5.069   4.620  15.723  1.1453 -0.1181 -0.7952
 6879TIP3   OH242127   2.967   2.587  11.305 -0.7550  0.0117  0.1041
 6879TIP3    H142128   2.975   2.502  11.347  0.4176 -0.0757 -0.2590
 6879TIP3    H242129   2.898   2.632  11.353  0.6817  0.0031  2.2872
 6880TIP3   OH242130   1.561   5.219  17.248  0.5458 -0.5215  0.1674
 6880TIP3    H142131   1.525   5.146  17.198  1.7523  0.3657 -2.1337
 6880TIP3    H242132   1.640   5.183  17.289 -1.6853 -1.9391  3.6831
 6881TIP3   OH242133   6.365   2.544  13.085 -0.1580 -0.0698  0.2155
 6881TIP3    H142134   6.427   2.616  13.074  0.1817 -0.1674  1.3566
 6881TIP3    H242135   6.396   2.476  13.025 -1.5297  1.3548 -2.2584
 6882TIP3   OH242136   1.741   6.332   5.974  0.2735 -0.3001 -0.4223
 6882TIP3    H142137   1.703   6.419   5.968  0.4549 -0.1087  0.9293
 6882TIP3    H242138   1.715   6.288   5.893  1.0331  1.3329 -1.6086
 6883TIP3   OH242139   1.870   4.260  14.981  0.3054  0.1906 -0.5315
 6883TIP3    H142140   1.925   4.195  15.025  0.0421  1.3133  1.6383
 6883TIP3    H242141   1.932   4.323  14.944  0.5279 -0.0526 -0.5702
 6884TIP3   OH242142   5.001   2.239   1.889  0.3207  0.0974 -0.9702
 6884TIP3    H142143   5.069   2.299   1.920  0.6600 -0.2992 -0.9377
 6884TIP3    H242144   4.978   2.271   1.802 -1.3812  1.8468  0.0436
 6885TIP3   OH242145   6.528   4.742   5.019 -0.1137  0.2471  0.2207
 6885TIP3    H142146   6.472   4.796   4.963 -1.4552 -1.7763 -0.4816
 6885TIP3    H242147   6.518   4.779   5.106 -1.9688  0.4070 -0.0322
 6886TIP3   OH242148   0.570   3.910  16.559 -0.1570  0.4141  0.7176
 6886TIP3    H142149   0.547   3.821  16.587  0.2655  0.2538  0.5677
 6886TIP3    H242150   0.554   3.965  16.636 -1.6394  0.4124  0.4280
 6887TIP3   OH242151   3.361   1.563   4.148  0.2150 -0.4804 -0.3689
 6887TIP3    H142152   3.362   1.585   4.055  0.7825 -1.1128 -0.5255
 6887TIP3    H242153   3.286   1.505   4.159  1.6973 -2.6753 -1.0224
 6888TIP3   OH242154   0.374   5.640   2.793 -0.1147  0.0370 -0.0312
 6888TIP3    H142155   0.361   5.572   2.727 -0.3864  0.2202 -0.1682
 6888TIP3    H242156   0.291   5.644   2.841  0.3377 -0.6527  0.8568
 6889TIP3   OH242157   5.688   3.669   2.824 -0.4772  0.2088  0.4048
 6889TIP3    H142158   5.644   3.675   2.739 -0.0606 -1.5622  0.0166
 6889TIP3    H242159   5.780   3.653   2.802 -0.4391 -0.6708  1.1706
 6890TIP3   OH242160   4.325   0.060  13.199  0.5363  0.1702 -0.0916
 6890TIP3    H142161   4.270   0.132  13.168  1.8705  0.3525 -2.2333
 6890TIP3    H242162   4.414   0.085  13.173  1.1310 -1.8851 -0.2084
 6891TIP3   OH242163   5.201   5.938  14.096 -0.6287  0.3196  0.0437
 6891TIP3    H142164   5.205   5.895  14.182 -0.1349 -1.6821 -0.9268
 6891TIP3    H242165   5.215   5.868  14.033  0.6170  1.9935 -1.6540
 6892TIP3   OH242166   1.595   3.872  10.832 -0.3822 -1.1560  0.5271
 6892TIP3    H142167   1.559   3.795  10.786  0.5137 -0.8664 -0.6955
 6892TIP3    H242168   1.518   3.916  10.868 -1.3446 -0.5236 -2.0831
 6893TIP3   OH242169   3.886   2.346   1.827 -0.2599  0.0201 -0.2639
 6893TIP3    H142170   3.834   2.426   1.815  0.1696  0.5803  1.3509
 6893TIP3    H242171   3.973   2.368   1.792  0.1916  0.6902  1.2066
 6894TIP3   OH242172   0.934   5.714  11.435 -0.0447 -0.1648 -0.2283
 6894TIP3    H142173   0.991   5.650  11.477 -1.1508 -0.6282  0.6079
 6894TIP3    H242174   0.862   5.662  11.399 -1.1837  0.6147  0.8230
 6895TIP3   OH242175   5.238   3.455   6.592  0.0049  0.0468 -0.2186
 6895TIP3    H142176   5.204   3.528   6.644  1.8590  0.8311 -0.0398
 6895TIP3    H242177   5.321   3.433   6.633  0.6668 -0.4921 -1.7838
 6896TIP3   OH242178   0.043   4.441  12.352  0.1795  0.3748 -0.1958
 6896TIP3    H142179   0.005   4.377  12.412 -1.8895  0.3259 -1.4289
 6896TIP3    H242180  -0.003   4.523  12.372  0.0629  0.5479 -1.1035
 6897TIP3   OH242181   4.800   2.796   1.580  0.1104  0.5534  0.2037
 6897TIP3    H142182   4.707   2.810   1.599  0.0059 -0.5414  0.5992
 6897TIP3    H242183   4.812   2.829   1.491 -1.3294 -1.7605 -0.9650
 6898TIP3   OH242184   3.418   4.884  15.660  0.0583  0.1924 -0.4382
 6898TIP3    H142185   3.497   4.883  15.606 -0.2990 -0.0267 -0.9650
 6898TIP3    H242186   3.424   4.964  15.711  0.1892  0.6303 -1.1298
 6899TIP3   OH242187   6.222   0.369  10.770  0.2810  0.1721  0.2566
 6899TIP3    H142188   6.200   0.278  10.789  0.1631 -0.7151 -3.3913
 6899TIP3    H242189   6.310   0.380  10.808  0.4166 -1.5468  0.5471
 6900TIP3   OH242190   4.891   2.079  12.620  0.2940  0.7124 -0.0657
 6900TIP3    H142191   4.941   2.031  12.687 -1.5841  1.3236  1.9027
 6900TIP3    H242192   4.942   2.158  12.604  1.8486 -0.4283 -1.0060
 6901TIP3   OH242193   3.537   0.200   1.341 -0.8212 -0.4044  0.0188
 6901TIP3    H142194   3.559   0.289   1.369 -1.9429 -0.2019  0.2876
 6901TIP3    H242195   3.610   0.147   1.373 -0.1314  0.4120 -0.1584
 6902TIP3   OH242196   1.168   6.496   1.951  0.5041  0.3433  0.3078
 6902TIP3    H142197   1.077   6.466   1.948  0.3213  0.9544 -2.4493
 6902TIP3    H242198   1.191   6.491   2.044 -2.1268 -0.4058  1.0183
 6903TIP3   OH242199   3.240   5.931  15.022 -1.2963 -0.1762 -0.0174
 6903TIP3    H142200   3.261   5.847  15.062 -0.9482  0.5326  1.3613
 6903TIP3    H242201   3.252   5.917  14.928  1.3807 -0.9490  0.3562
 6904TIP3   OH242202   5.835   2.626   5.689 -0.2277 -0.0894  0.8166
 6904TIP3    H142203   5.773   2.698   5.675 -0.5300 -0.6397 -0.9694
 6904TIP3    H242204   5.909   2.646   5.631  0.9858  0.1891  2.3941
 6905TIP3   OH242205   2.719   5.243   0.531  0.4621 -0.1917 -0.1148
 6905TIP3    H142206   2.753   5.195   0.607 -0.5637  0.8354  1.0398
 6905TIP3    H242207   2.738   5.335   0.550 -2.9871  0.4989  0.7555
 6906TIP3   OH242208   6.059   0.473   4.627 -0.4111  0.6016 -0.4003
 6906TIP3    H142209   6.136   0.419   4.609 -0.2030  0.8110 -0.1392
 6906TIP3    H242210   6.050   0.470   4.722 -0.4056  1.0179 -0.3851
 6907TIP3   OH242211   2.882   6.140   1.771 -0.6823  0.9176  0.8465
 6907TIP3    H142212   2.923   6.224   1.750 -0.3217  0.4494 -0.4197
 6907TIP3    H242213   2.954   6.081   1.790 -0.9356  0.8827  1.7431
 6908TIP3   OH242214   2.420   1.643   6.679 -0.1215 -0.5934 -0.4555
 6908TIP3    H142215   2.360   1.569   6.679 -1.8057  0.6603 -2.0784
 6908TIP3    H242216   2.504   1.607   6.705 -1.5234 -2.4441  1.9998
 6909TIP3   OH242217   2.864   5.987   0.759 -0.3722  0.5453 -0.5638
 6909TIP3    H142218   2.838   6.079   0.751  0.1585  0.7036 -0.5057
 6909TIP3    H242219   2.791   5.938   0.721 -1.3849  0.9056  0.8546
 6910TIP3   OH242220   1.766   2.495  12.926 -0.4683 -0.0224  0.3929
 6910TIP3    H142221   1.716   2.441  12.988 -1.0014 -1.1938 -0.9796
 6910TIP3    H242222   1.811   2.431  12.870 -0.4559  0.9667 -0.7759
 6911TIP3   OH242223   4.928   1.662  15.942  0.4095 -0.4048 -0.2799
 6911TIP3    H142224   5.004   1.708  15.978  0.0680 -1.8517  2.5741
 6911TIP3    H242225   4.958   1.572  15.931 -0.1027 -0.3947 -1.8857
 6912TIP3   OH242226   3.679   6.675  12.071  0.4608 -0.4030  0.2540
 6912TIP3    H142227   3.672   6.715  11.984  1.0930 -2.9423 -1.0490
 6912TIP3    H242228   3.769   6.643  12.075  0.1275 -1.2582  1.4154
 6913TIP3   OH242229   3.163   2.681  12.398 -0.8692 -0.3869 -0.1437
 6913TIP3    H142230   3.083   2.676  12.450  0.0987 -0.7497  1.3920
 6913TIP3    H242231   3.179   2.592  12.368  0.6054 -1.0318  2.2644
 6914TIP3   OH242232   3.975   0.194  14.144 -0.2578 -0.2906 -0.0478
 6914TIP3    H142233   4.021   0.127  14.093 -0.3860 -0.7078  0.3809
 6914TIP3    H242234   3.902   0.148  14.185  0.7135 -0.2872  1.7337
 6915TIP3   OH242235   2.224   5.574  15.868  0.2176 -0.1404 -0.0357
 6915TIP3    H142236   2.270   5.648  15.829 -0.0513 -0.9321 -1.9610
 6915TIP3    H242237   2.141   5.610  15.897  0.0559  0.3089 -1.0231
 6916TIP3   OH242238   4.610   6.586   6.263 -0.3751 -1.0147 -0.7323
 6916TIP3    H142239   4.603   6.521   6.334  1.9901 -0.8538 -0.2448
 6916TIP3    H242240   4.642   6.536   6.188  3.1352 -0.3277  0.1047
 6917TIP3   OH242241   5.557   2.504   0.195 -0.1738  0.0024 -0.4555
 6917TIP3    H142242   5.601   2.432   0.151 -0.9447 -0.5162 -0.4068
 6917TIP3    H242243   5.580   2.493   0.287 -0.9051 -0.6540 -0.3385
 6918TIP3   OH242244   2.957   6.405  13.966 -0.0428  0.2444 -0.0406
 6918TIP3    H142245   2.917   6.329  14.008 -1.0983  1.3909  1.1578
 6918TIP3    H242246   2.998   6.371  13.887  1.1712 -1.8655  1.4151
 6919TIP3   OH242247   1.164   1.749  13.921  0.0312 -0.1659 -0.4930
 6919TIP3    H142248   1.137   1.825  13.870 -1.1684  0.3658  0.8439
 6919TIP3    H242249   1.093   1.686  13.912 -0.3754  0.0755  0.7386
 6920TIP3   OH242250   5.753   6.485  13.768 -0.1887 -0.2093 -0.0183
 6920TIP3    H142251   5.839   6.517  13.794  1.0448 -2.1052 -1.4540
 6920TIP3    H242252   5.756   6.391  13.787 -0.4506 -1.0635 -3.5045
 6921TIP3   OH242253   6.465   0.751  16.646  0.0391  0.5596  0.1395
 6921TIP3    H142254   6.370   0.744  16.634 -0.0284  0.9831  0.3866
 6921TIP3    H242255   6.481   0.846  16.644  0.5170  0.4726 -0.3604
 6922TIP3   OH242256   1.127   3.306  12.530 -0.4091  0.5685  0.5707
 6922TIP3    H142257   1.062   3.248  12.489  0.0683  0.6831 -0.3673
 6922TIP3    H242258   1.211   3.273  12.500  0.0116  0.1841  2.0955
 6923TIP3   OH242259   4.288   2.839  17.403 -0.4799  0.1346  0.7662
 6923TIP3    H142260   4.198   2.864  17.425 -1.1067 -1.6400  0.3940
 6923TIP3    H242261   4.304   2.759  17.454  0.7469  0.1837  0.5019
 6924TIP3   OH242262   0.329   3.628  14.990  0.1065 -0.3697  0.1021
 6924TIP3    H142263   0.397   3.662  15.047  0.7305 -0.1836 -0.7260
 6924TIP3    H242264   0.325   3.534  15.011  0.2497 -0.2829  0.5206
 6925TIP3   OH242265   6.324   0.391   2.518  0.2316  0.5455 -0.0918
 6925TIP3    H142266   6.263   0.464   2.534  0.5473  0.7181  0.3438
 6925TIP3    H242267   6.327   0.344   2.601  0.6002  0.4710 -0.1468
 6926TIP3   OH242268   6.179   1.597   1.424  0.2037  0.0359  0.7404
 6926TIP3    H142269   6.234   1.653   1.370 -0.3879 -0.0087  0.0820
 6926TIP3    H242270   6.103   1.650   1.445 -1.3082 -1.0861 -1.5135
 6927TIP3   OH242271   4.536   2.903  14.322 -0.6508  0.3799  0.3471
 6927TIP3    H142272   4.604   2.837  14.308 -0.7565  0.0747  1.2169
 6927TIP3    H242273   4.478   2.865  14.388 -1.4223  0.8252 -0.0547
 6928TIP3   OH242274   6.530   0.676  15.092 -0.4361  0.2323 -0.5569
 6928TIP3    H142275   6.466   0.615  15.128  0.6534 -1.0186 -0.6490
 6928TIP3    H242276   6.487   0.715  15.015 -1.0918 -0.5366 -0.5833
 6929TIP3   OH242277   0.640   1.375   3.771  0.0342  0.2377  0.0570
 6929TIP3    H142278   0.694   1.298   3.749  1.1889  1.2184 -0.6590
 6929TIP3    H242279   0.560   1.363   3.721 -0.3885 -1.1672  1.0040
 6930TIP3   OH242280   5.282   0.563  14.176  0.2237  0.2939 -0.1994
 6930TIP3    H142281   5.259   0.532  14.263  1.3123  0.4220  0.1539
 6930TIP3    H242282   5.278   0.485  14.120 -0.4910  0.2157 -0.0465
 6931TIP3   OH242283   6.684   4.819  16.893 -0.0986 -0.1047 -0.6287
 6931TIP3    H142284   6.616   4.883  16.912  1.2396  1.2356 -0.2232
 6931TIP3    H242285   6.682   4.809  16.798  0.1069  1.0428 -0.7678
 6932TIP3   OH242286   5.445   1.161  17.633  0.1783  0.0109 -0.4868
 6932TIP3    H142287   5.448   1.256  17.619 -0.5527 -0.2238 -2.6718
 6932TIP3    H242288   5.418   1.126  17.548 -1.1550 -2.0496  0.7298
 6933TIP3   OH242289   1.628   2.333  13.091  0.2195  0.5991  0.4892
 6933TIP3    H142290   1.597   2.244  13.109 -0.8002  0.4723 -1.6386
 6933TIP3    H242291   1.591   2.386  13.162 -0.5557 -0.4018  0.8637
 6934TIP3   OH242292   4.723   5.434   2.994 -0.6906 -0.3806 -0.5119
 6934TIP3    H142293   4.720   5.395   2.907  0.7738 -1.6034 -0.0571
 6934TIP3    H242294   4.713   5.528   2.979 -2.7367 -0.7399 -1.7741
 6935TIP3   OH242295   6.236   3.063   6.661  0.1561  0.0831  0.8129
 6935TIP3    H142296   6.184   3.047   6.581 -0.3551  0.0261  1.1503
 6935TIP3    H242297   6.205   2.998   6.723 -0.2361  0.8310  1.4129
 6936TIP3   OH242298   2.568   4.865   0.623  0.1477 -0.0182  0.1207
 6936TIP3    H142299   2.530   4.948   0.651  0.6083  0.7142 -1.3292
 6936TIP3    H242300   2.504   4.799   0.651 -1.1323  0.9895 -0.3297
 6937TIP3   OH242301   3.689   5.047  15.934 -0.1131 -0.2775  0.3528
 6937TIP3    H142302   3.651   5.094  16.008 -2.4927 -0.2087 -0.8317
 6937TIP3    H242303   3.748   4.983  15.974 -0.7826  0.2391  2.2518
 6938TIP3   OH242304   6.367   5.724   1.056  0.0975 -0.0962  0.3487
 6938TIP3    H142305   6.283   5.682   1.038 -0.3332 -0.3813  2.6439
 6938TIP3    H242306   6.344   5.811   1.088  0.8735  1.0198 -1.9119
 6939TIP3   OH242307   2.533   4.950  11.837  0.5715  0.2636 -0.1880
 6939TIP3    H142308   2.478   4.872  11.827  2.6901 -1.5304  1.0926
 6939TIP3    H242309   2.608   4.934  11.780  1.3381  1.0797  0.5558
 6940TIP3   OH242310   3.303   5.281  15.850 -0.0456 -0.0656  0.4508
 6940TIP3    H142311   3.303   5.285  15.755  1.8288 -0.8269  0.3619
 6940TIP3    H242312   3.212   5.294  15.876 -0.3125  2.2425 -1.3308
 6941TIP3   OH242313   1.638   1.015   2.175 -0.9002  0.5734 -0.1072
 6941TIP3    H142314   1.553   1.055   2.158 -1.5329 -0.4492  0.4988
 6941TIP3    H242315   1.618   0.937   2.228  0.1736 -0.9409 -1.8077
 6942TIP3   OH242316   6.049   5.654   0.403  0.3810 -0.3746  0.3497
 6942TIP3    H142317   6.100   5.635   0.482 -2.4111 -0.1608  2.3542
 6942TIP3    H242318   6.045   5.570   0.357 -0.2817 -1.2674  1.9405
 6943TIP3   OH242319   4.596   3.307  12.475  0.0345 -0.4052 -0.3473
 6943TIP3    H142320   4.671   3.315  12.535  0.1287  0.3790 -0.5496
 6943TIP3    H242321   4.636   3.297  12.388 -0.0472  1.1347 -0.6040
 6944TIP3   OH242322   1.056   3.235   1.627 -0.1805  0.2723 -0.6690
 6944TIP3    H142323   1.042   3.148   1.589 -1.5772  0.0829  0.2159
 6944TIP3    H242324   0.970   3.278   1.623  0.0889  0.9777  0.4324
 6945TIP3   OH242325   3.126   5.316   6.547  0.3121  0.3601 -0.2302
 6945TIP3    H142326   3.105   5.283   6.634 -2.8533 -0.6317 -1.2462
 6945TIP3    H242327   3.174   5.397   6.563 -1.1353  0.7965  2.4401
 6946TIP3   OH242328   6.274   0.598  16.036  0.1001  0.0110  0.2479
 6946TIP3    H142329   6.255   0.691  16.023 -0.4252 -0.2088 -0.6566
 6946TIP3    H242330   6.342   0.578  15.971  1.2231  0.0671  1.3741
 6947TIP3   OH242331   4.817   4.544  17.502  0.0232  0.3685 -0.1044
 6947TIP3    H142332   4.739   4.570  17.452  0.8140  3.2268 -0.0078
 6947TIP3    H242333   4.796   4.562  17.593  0.7513  1.0639 -0.0635
 6948TIP3   OH242334   5.555   4.924  14.320  0.2378 -0.4320 -0.7896
 6948TIP3    H142335   5.558   4.961  14.409  0.2675  0.0805 -0.9978
 6948TIP3    H242336   5.526   4.997  14.265 -0.5961 -0.9759 -1.0847
 6949TIP3   OH242337   4.050   2.765   1.454  0.8062 -0.1822 -0.6524
 6949TIP3    H142338   4.087   2.781   1.367  0.9810 -0.1383 -0.5712
 6949TIP3    H242339   4.025   2.852   1.486 -0.5145 -0.3429 -1.2090
 6950TIP3   OH242340   0.385   0.240   6.010 -0.7016 -0.0438  0.1626
 6950TIP3    H142341   0.311   0.300   6.010 -0.9095 -0.2691  1.2363
 6950TIP3    H242342   0.376   0.192   6.093 -0.6846 -1.7226 -0.7587
 6951TIP3   OH242343   5.245   6.503   5.977  0.4434  0.3536 -0.4372
 6951TIP3    H142344   5.224   6.509   5.884 -1.3291 -0.4544 -0.1336
 6951TIP3    H242345   5.218   6.415   6.002  2.1764  0.0554  0.5739
 6952TIP3   OH242346   0.290   1.520  11.777 -0.1403  0.0633  0.2232
 6952TIP3    H142347   0.349   1.479  11.840  0.6583  1.7505  0.6405
 6952TIP3    H242348   0.335   1.600  11.750 -1.0977  0.0942 -1.4458
 6953TIP3   OH242349   4.546   6.042  12.355  0.0537 -0.3649 -0.0120
 6953TIP3    H142350   4.638   6.068  12.368 -0.3344  1.9920 -1.3370
 6953TIP3    H242351   4.549   5.947  12.343  2.3966 -0.2946 -0.5155
 6954TIP3   OH242352   5.762   4.223  11.607 -0.0404 -0.1894 -0.4018
 6954TIP3    H142353   5.856   4.234  11.596 -0.1870  1.2925 -0.3507
 6954TIP3    H242354   5.726   4.312  11.604 -1.4846 -0.7497 -0.8034
 6955TIP3   OH242355   3.463   0.076  17.573  0.3712 -0.3346 -0.4120
 6955TIP3    H142356   3.545   0.101  17.531  0.7865  0.2326  0.7202
 6955TIP3    H242357   3.400   0.072  17.501  0.8049  1.7100 -0.9707
 6956TIP3   OH242358   3.983   3.643  14.248 -0.2685 -0.4669  0.2611
 6956TIP3    H142359   3.950   3.581  14.313 -3.1416  2.6741  2.1016
 6956TIP3    H242360   3.918   3.642  14.178  0.2413 -0.3073 -0.2271
 6957TIP3   OH242361   6.378   5.461  14.272  0.2445 -0.1146  0.3497
 6957TIP3    H142362   6.465   5.483  14.305 -0.6689  1.5962  1.7965
 6957TIP3    H242363   6.392   5.385  14.215  2.9011  1.2152 -0.9052
 6958TIP3   OH242364   1.749   3.056   4.237 -0.0797 -0.4624 -0.3451
 6958TIP3    H142365   1.673   3.018   4.192  0.0232  0.9950 -1.8507
 6958TIP3    H242366   1.788   2.983   4.284 -0.6332 -1.9379 -2.0623
 6959TIP3   OH242367   6.004   5.249   2.171  0.0145 -0.3667  0.0355
 6959TIP3    H142368   5.967   5.307   2.104 -1.3342 -1.6194 -0.3512
 6959TIP3    H242369   6.022   5.167   2.125 -0.1888 -0.9836  1.0235
 6960TIP3   OH242370   0.441   5.383   5.346 -0.2233  0.7381 -0.2365
 6960TIP3    H142371   0.381   5.320   5.386  0.0838  0.9179  0.5419
 6960TIP3    H242372   0.395   5.466   5.351  1.5008  1.6880  4.0099
 6961TIP3   OH242373   5.234   3.204  12.534  0.2737 -0.0379  1.0952
 6961TIP3    H142374   5.242   3.280  12.592 -0.2247  0.2551  0.7855
 6961TIP3    H242375   5.142   3.205  12.505  0.7311  0.3593 -0.4262
 6962TIP3   OH242376   5.126   5.351   0.032 -0.1199 -0.3173  0.4304
 6962TIP3    H142377   5.072   5.343   0.110  0.6853 -0.3375  0.9977
 6962TIP3    H242378   5.216   5.340   0.063  0.4590  2.2784 -0.0237
 6963TIP3   OH242379   4.823   0.764  13.134  0.5191  0.2533 -0.7096
 6963TIP3    H142380   4.886   0.696  13.157  0.9872  1.0081  0.3533
 6963TIP3    H242381   4.773   0.728  13.061  2.2027 -0.3575 -1.6091
 6964TIP3   OH242382   3.291   1.987   0.403  1.0391 -0.3716 -0.0535
 6964TIP3    H142383   3.290   2.081   0.386  0.0440 -0.2281  0.7061
 6964TIP3    H242384   3.202   1.967   0.431  1.3392 -1.4728  0.1567
 6965TIP3   OH242385   0.881   2.700   3.462 -0.0488 -0.0705 -0.0229
 6965TIP3    H142386   0.916   2.736   3.544  0.3027  0.9917 -0.6243
 6965TIP3    H242387   0.823   2.629   3.491 -0.0703  0.3920  1.1583
 6966TIP3   OH242388   2.521   2.166   3.138  0.3943  0.1836  0.3485
 6966TIP3    H142389   2.580   2.100   3.174 -0.3339 -0.5428  0.2515
 6966TIP3    H242390   2.484   2.210   3.214 -2.1714 -2.2545  0.6539
 6967TIP3   OH242391   6.459   5.232   1.917  0.5002 -0.6267 -0.2482
 6967TIP3    H142392   6.450   5.213   1.824 -1.8870  0.9443 -0.4504
 6967TIP3    H242393   6.399   5.171   1.960 -1.6719  1.3802 -0.2338
 6968TIP3   OH242394   4.212   4.595  12.177  0.0225  0.3334 -0.2949
 6968TIP3    H142395   4.168   4.680  12.174 -2.7722 -0.9688  0.5746
 6968TIP3    H242396   4.176   4.552  12.255  0.8713 -1.8842 -1.0397
 6969TIP3   OH242397   1.223   5.133   4.903  0.1900 -0.5050 -0.6096
 6969TIP3    H142398   1.190   5.043   4.897 -1.8676  0.2037 -0.6721
 6969TIP3    H242399   1.145   5.186   4.918  1.2724  1.3594 -1.2738
 6970TIP3   OH242400   6.654   3.033   4.735 -0.2328 -0.3781  0.3824
 6970TIP3    H142401   6.594   3.106   4.752  1.5446  0.9510  1.2917
 6970TIP3    H242402   6.598   2.955   4.735 -1.7555  0.6283  2.5923
 6971TIP3   OH242403   0.431   4.551  11.603 -0.1469  0.1921  0.4631
 6971TIP3    H142404   0.432   4.637  11.646  0.7603  0.8545 -0.8154
 6971TIP3    H242405   0.524   4.526  11.599 -0.1839  0.2089 -1.1605
 6972TIP3   OH242406   5.046   5.138   0.667 -0.2039  0.3048 -0.5270
 6972TIP3    H142407   5.089   5.169   0.746 -0.4653  0.9262 -0.6182
 6972TIP3    H242408   5.038   5.043   0.678  0.1586  0.3363 -0.0109
 6973TIP3   OH242409   1.050   3.392   5.838  0.0917 -0.4264 -0.4940
 6973TIP3    H142410   1.086   3.319   5.888  0.5295 -1.7775 -2.6823
 6973TIP3    H242411   0.956   3.387   5.854  0.1345 -1.3698 -0.4505
 6974TIP3   OH242412   0.820   5.789   0.284  0.0018  0.0524  0.1211
 6974TIP3    H142413   0.841   5.701   0.315  0.1273  0.0425  0.0092
 6974TIP3    H242414   0.904   5.826   0.258  0.0405  0.4510  0.8020
 6975TIP3   OH242415   1.195   4.187   1.524  0.1164  0.6170  0.4239
 6975TIP3    H142416   1.237   4.159   1.443  2.0672  1.0801  1.2063
 6975TIP3    H242417   1.186   4.282   1.515 -0.6589  0.5341  0.3134
 6976TIP3   OH242418   5.328   3.776   6.927  0.4000 -0.3205 -0.4736
 6976TIP3    H142419   5.267   3.739   6.863 -0.8447 -0.6137  0.8412
 6976TIP3    H242420   5.400   3.714   6.931  0.7461 -0.0452 -1.9490
 6977TIP3   OH242421   5.403   6.494  15.458 -0.4509 -0.0982 -0.0126
 6977TIP3    H142422   5.368   6.550  15.527  0.1726 -0.5865  0.7259
 6977TIP3    H242423   5.494   6.522  15.449 -0.0809 -1.0857  0.4953
 6978TIP3   OH242424   1.334   0.303   1.949  0.0529 -0.3576 -0.3658
 6978TIP3    H142425   1.273   0.236   1.980  1.6386 -2.4176 -1.4520
 6978TIP3    H242426   1.385   0.328   2.026  1.0775 -2.2381 -0.3998
 6979TIP3   OH242427   1.241   3.918  11.897  0.1420 -0.2174 -0.0642
 6979TIP3    H142428   1.216   3.883  11.811  0.3292 -2.5779  0.7835
 6979TIP3    H242429   1.323   3.964  11.881  0.6999 -1.4829 -0.9943
 6980TIP3   OH242430   6.608   5.990   2.600 -0.2324 -0.4129  0.4835
 6980TIP3    H142431   6.595   5.896   2.591 -0.3174 -0.3790  0.2377
 6980TIP3    H242432   6.659   6.014   2.523 -2.3134  0.1505 -0.8026
 6981TIP3   OH242433   3.661   0.208  11.347  0.0067 -0.1912 -0.3758
 6981TIP3    H142434   3.598   0.236  11.414  0.5887  1.3637 -0.4302
 6981TIP3    H242435   3.746   0.226  11.386  0.4350 -1.6891 -0.5570
 6982TIP3   OH242436   5.669   0.394   6.670 -0.4653 -0.8787 -0.1207
 6982TIP3    H142437   5.638   0.306   6.650  0.1603 -1.1956  0.2689
 6982TIP3    H242438   5.758   0.381   6.703 -0.0606 -0.0344 -0.8227
 6983TIP3   OH242439   6.664   3.898  14.600 -0.3265 -0.2720 -0.5559
 6983TIP3    H142440   6.700   3.973  14.553  0.9261 -0.4465  0.0785
 6983TIP3    H242441   6.735   3.833  14.599 -0.3449 -0.3886  1.3062
 6984TIP3   OH242442   5.031   0.593   3.985  0.1584 -0.7826 -0.3615
 6984TIP3    H142443   4.964   0.586   3.917 -0.3846 -0.3816  0.1208
 6984TIP3    H242444   5.113   0.571   3.940 -0.6520 -4.9175 -0.1953
 6985TIP3   OH242445   5.860   4.759   0.664  0.0662 -0.1967  0.1322
 6985TIP3    H142446   5.797   4.759   0.736  2.0197 -0.2616  1.9609
 6985TIP3    H242447   5.917   4.684   0.682  1.3398  0.5013 -0.7893
 6986TIP3   OH242448   5.463   1.485  16.253  0.4749 -0.1468  0.0781
 6986TIP3    H142449   5.389   1.543  16.271  0.0741 -0.8607  0.7662
 6986TIP3    H242450   5.515   1.533  16.187 -0.1120  0.7561  0.2481
 6987TIP3   OH242451   0.567   2.664  13.373 -0.2311 -0.0787  0.4045
 6987TIP3    H142452   0.473   2.664  13.389 -0.3568  0.9589 -0.2156
 6987TIP3    H242453   0.578   2.718  13.295  0.6750 -2.0704 -0.9327
 6988TIP3   OH242454   2.878   1.678   5.485 -0.0514 -0.0976  0.4369
 6988TIP3    H142455   2.795   1.724   5.477 -1.1872 -1.8487  1.5125
 6988TIP3    H242456   2.943   1.747   5.499 -1.5674  1.2288  1.2259
 6989TIP3   OH242457   2.199   2.494  14.943 -0.2866 -0.2902  0.3628
 6989TIP3    H142458   2.187   2.538  15.027  0.2576 -0.2360  0.4116
 6989TIP3    H242459   2.213   2.565  14.880  0.8303 -0.3947  0.4799
 6990TIP3   OH242460   5.240   6.337   5.191 -0.4536  0.3025 -0.0652
 6990TIP3    H142461   5.275   6.268   5.247  1.7378  2.1386  0.9700
 6990TIP3    H242462   5.311   6.359   5.132 -1.7941  0.3455 -1.7505
 6991TIP3   OH242463   4.323   4.881   6.252  0.1953  0.3310  0.3111
 6991TIP3    H142464   4.411   4.843   6.259  0.0732  0.1318  0.7631
 6991TIP3    H242465   4.273   4.840   6.322 -0.1551  0.7439  0.3088
 6992TIP3   OH242466   4.430   0.309  16.995  0.1906 -0.2948  0.0425
 6992TIP3    H142467   4.504   0.368  16.987 -0.3943  0.1984 -2.9824
 6992TIP3    H242468   4.421   0.269  16.909 -3.3291  0.0460  0.0829
 6993TIP3   OH242469   2.643   2.996   4.808 -0.2418  0.0448  0.3985
 6993TIP3    H142470   2.560   3.009   4.855  0.2336 -0.2094  1.3325
 6993TIP3    H242471   2.660   2.902   4.815 -0.7118 -0.1991 -1.2622
 6994TIP3   OH242472   6.559   3.556  11.399  0.1604 -0.5280 -0.2549
 6994TIP3    H142473   6.492   3.493  11.374 -1.9637  1.9693 -1.4121
 6994TIP3    H242474   6.620   3.558  11.325 -1.3863  0.7298 -1.5905
 6995TIP3   OH242475   4.817   3.758  15.922  0.3293  0.0323 -0.3081
 6995TIP3    H142476   4.908   3.729  15.926  0.4949 -0.0309 -2.7330
 6995TIP3    H242477   4.819   3.835  15.865 -1.1146  0.0771 -0.3414
 6996TIP3   OH242478   5.339   1.856  16.583 -0.6765  0.0189  0.3494
 6996TIP3    H142479   5.287   1.887  16.657 -0.0035  1.5502  0.2065
 6996TIP3    H242480   5.323   1.919  16.513 -1.6544 -1.6515 -1.0060
 6997TIP3   OH242481   2.913   4.662  12.457  0.3083 -0.1752  0.3752
 6997TIP3    H142482   2.998   4.655  12.502  1.3798  0.6105 -1.4002
 6997TIP3    H242483   2.907   4.754  12.433 -1.1967 -0.1715  0.6885
 6998TIP3   OH242484   6.259   1.249   1.777  0.5053 -0.0716 -0.2421
 6998TIP3    H142485   6.200   1.269   1.704 -0.0705 -0.1230  0.2009
 6998TIP3    H242486   6.303   1.332   1.796 -1.2975  0.6568  1.0746
 6999TIP3   OH242487   1.879   2.092  15.831 -0.1369  0.2215 -0.2305
 6999TIP3    H142488   1.825   2.068  15.756  1.5274  0.4533 -1.5481
 6999TIP3    H242489   1.952   2.031  15.829  0.7459  1.2327  0.2729
 7000TIP3   OH242490   0.890   5.524  16.589  0.1048  0.1306  0.0339
 7000TIP3    H142491   0.856   5.545  16.501 -0.6820 -0.7394  0.1117
 7000TIP3    H242492   0.894   5.609  16.633 -0.5229  0.4534 -0.4982
 7001TIP3   OH242493   3.015   3.921  14.165  0.3573  0.2031  0.2753
 7001TIP3    H142494   2.991   3.875  14.245 -2.3401  0.0215 -0.5400
 7001TIP3    H242495   3.046   3.853  14.106 -0.0571 -0.0320  0.3273
 7002TIP3   OH242496   1.929   1.275  13.186 -0.3476 -0.3929  0.3918
 7002TIP3    H142497   1.842   1.237  13.174  0.0397 -1.1981 -0.0084
 7002TIP3    H242498   1.989   1.201  13.171  0.5691  0.8342 -2.8117
 7003TIP3   OH242499   6.348   4.420   2.679  0.7186  0.6001 -0.0733
 7003TIP3    H142500   6.272   4.473   2.656  0.5558  0.6555  0.5708
 7003TIP3    H242501   6.372   4.448   2.767  1.9911  1.1586 -0.5681
 7004TIP3   OH242502   0.513   4.148  16.309 -0.5477 -0.4082  0.7280
 7004TIP3    H142503   0.433   4.107  16.275 -1.0293  0.2638  1.0112
 7004TIP3    H242504   0.554   4.080  16.363 -0.9414 -0.7570  0.5935
 7005TIP3   OH242505   4.480   4.696   4.809 -0.1249 -0.0108 -0.3373
 7005TIP3    H142506   4.529   4.735   4.881 -0.8610  0.9346 -0.3352
 7005TIP3    H242507   4.461   4.607   4.837  1.0525 -0.1957 -0.0820
 7006TIP3   OH242508   4.370   1.909  14.971 -0.3148  0.1642  0.4763
 7006TIP3    H142509   4.431   1.856  15.023  0.4102 -1.3978 -1.8128
 7006TIP3    H242510   4.425   1.956  14.909 -1.3197 -0.5990 -1.0654
 7007TIP3   OH242511   4.635   2.882   0.702  0.1769 -0.0164 -0.3868
 7007TIP3    H142512   4.596   2.795   0.687  0.7796 -0.6884  1.6604
 7007TIP3    H242513   4.574   2.943   0.662 -1.4861 -1.2383  0.1884
 7008TIP3   OH242514   1.026   5.105   6.684  0.3341 -0.0444 -0.2693
 7008TIP3    H142515   1.107   5.147   6.657  1.6207 -1.6304  0.9475
 7008TIP3    H242516   1.039   5.012   6.665 -1.7021 -0.2038 -1.1664
 7009TIP3   OH242517   1.210   4.907  14.579 -0.1024  0.1195  0.2232
 7009TIP3    H142518   1.240   4.872  14.495  0.2964  0.1162  0.3619
 7009TIP3    H242519   1.225   5.001  14.572 -1.2337  0.2843 -0.1748
 7010TIP3   OH242520   3.148   6.211  15.293  0.1363  0.1695  0.1126
 7010TIP3    H142521   3.127   6.295  15.334  0.1496  1.1195 -1.6987
 7010TIP3    H242522   3.089   6.206  15.217  1.0283 -0.8375 -0.5533
 7011TIP3   OH242523   0.518   0.683   3.703 -0.2516  0.0086  0.4090
 7011TIP3    H142524   0.430   0.688   3.741 -0.8307 -0.4202 -0.8066
 7011TIP3    H242525   0.531   0.767   3.660 -0.2647 -0.1028  0.1847
 7012TIP3   OH242526   5.584   1.759  10.750  0.4058 -0.0951  0.2680
 7012TIP3    H142527   5.518   1.755  10.819  0.0363 -0.0499 -0.0743
 7012TIP3    H242528   5.543   1.713  10.676  1.7927 -2.4484  0.8741
 7013TIP3   OH242529   0.808   6.001   4.051  0.5043 -0.2022  0.0293
 7013TIP3    H142530   0.784   5.959   3.969  0.3265  0.7998 -0.4318
 7013TIP3    H242531   0.884   6.054   4.030  1.2189 -0.8859  0.7922
 7014TIP3   OH242532   2.184   0.103   3.331 -0.2975 -0.1462  0.1866
 7014TIP3    H142533   2.206   0.033   3.392 -0.4268 -0.4380 -0.0959
 7014TIP3    H242534   2.233   0.082   3.252  0.8289  0.8978  0.5855
 7015TIP3   OH242535   4.316   6.107  16.578  0.0764 -0.3086  0.8857
 7015TIP3    H142536   4.374   6.065  16.514 -0.6977 -1.2959  0.8039
 7015TIP3    H242537   4.229   6.098  16.540 -0.4252 -1.1567  2.1907
 7016TIP3   OH242538   6.450   1.479   1.938  0.1634  0.0685 -0.2583
 7016TIP3    H142539   6.409   1.549   1.988 -0.7904 -1.1929  0.8057
 7016TIP3    H242540   6.491   1.423   2.004 -0.3996 -1.1924 -0.9320
 7017TIP3   OH242541   4.217   0.166   0.673  0.2245  0.1158 -0.1432
 7017TIP3    H142542   4.282   0.099   0.695  0.5055  0.0838 -1.0116
 7017TIP3    H242543   4.178   0.135   0.591 -1.4374 -0.2496  0.7276
 7018TIP3   OH242544   3.060   2.708   6.319 -0.1042  0.0251 -0.6862
 7018TIP3    H142545   3.020   2.717   6.406 -0.5998  1.5395 -1.0455
 7018TIP3    H242546   3.138   2.655   6.335  0.5169  1.3156  0.9344
 7019TIP3   OH242547   4.138   1.891   6.405 -0.3848 -0.3672  0.1160
 7019TIP3    H142548   4.094   1.964   6.361 -2.0666 -0.9672  0.7016
 7019TIP3    H242549   4.194   1.852   6.337  1.5718  2.1725  0.1193
 7020TIP3   OH242550   0.335   0.586  12.613  0.2148 -0.0519  0.0041
 7020TIP3    H142551   0.287   0.507  12.635 -0.3466  0.6622  1.4641
 7020TIP3    H242552   0.397   0.598  12.685  0.4385  0.7198 -0.3032
 7021TIP3   OH242553   3.510   4.868  11.735 -0.0673 -0.5709  0.8140
 7021TIP3    H142554   3.472   4.883  11.648 -0.7370  0.3486  1.2427
 7021TIP3    H242555   3.447   4.810  11.778 -0.0807 -0.4875  0.9077
 7022TIP3   OH242556   6.407   1.263  15.985 -0.5828  0.0603 -0.0554
 7022TIP3    H142557   6.338   1.324  15.959 -0.9524 -0.4206 -0.2043
 7022TIP3    H242558   6.374   1.177  15.959 -0.2734 -0.2544  0.5908
 7023TIP3   OH242559   5.447   1.629   0.059  0.1912 -0.4730  0.0860
 7023TIP3    H142560   5.396   1.694   0.011  0.5677 -0.1382  0.1307
 7023TIP3    H242561   5.393   1.608   0.136 -0.2785 -0.7911 -0.3297
 7024TIP3   OH242562   4.769   6.390   5.181 -0.3416 -0.2775 -0.2310
 7024TIP3    H142563   4.808   6.478   5.188  0.2842 -0.6355  1.0789
 7024TIP3    H242564   4.844   6.331   5.177 -0.7479 -0.7415 -1.9304
 7025TIP3   OH242565   5.252   6.011   4.905 -0.2736  0.7229  0.0788
 7025TIP3    H142566   5.273   5.989   4.815  0.4685 -0.1467  0.4553
 7025TIP3    H242567   5.207   6.096   4.899  0.2022  0.9087 -1.0543
 7026TIP3   OH242568   0.313   6.560   1.828 -0.3225 -0.1138 -0.0302
 7026TIP3    H142569   0.382   6.544   1.763 -2.0664 -1.1412 -1.7313
 7026TIP3    H242570   0.231   6.546   1.780 -1.7264  0.6075  2.0295
 7027TIP3   OH242571   0.529   3.954   2.670 -0.3302  0.4680 -0.9790
 7027TIP3    H142572   0.458   3.897   2.642  0.4216 -0.6624 -0.6397
 7027TIP3    H242573   0.509   4.039   2.630 -2.1004  0.3088 -0.5203
 7028TIP3   OH242574   6.342   4.144   0.613 -0.2944 -0.3571  0.0590
 7028TIP3    H142575   6.418   4.099   0.577  1.5938  2.3747  0.2994
 7028TIP3    H242576   6.285   4.159   0.537  1.3827  1.0886 -0.9992
 7029TIP3   OH242577   5.219   5.305   4.594 -0.4647  0.1068 -0.1244
 7029TIP3    H142578   5.163   5.277   4.665 -0.0983 -2.1951 -0.6751
 7029TIP3    H242579   5.308   5.298   4.629 -0.3298 -0.0500 -0.4927
 7030TIP3   OH242580   3.321   2.343   1.647  0.2443  0.0849  0.4125
 7030TIP3    H142581   3.236   2.335   1.605  1.1583  1.1228 -1.8242
 7030TIP3    H242582   3.336   2.437   1.653  0.8391 -0.0700  1.6785
 7031TIP3   OH242583   2.636   1.874   1.677 -0.1653  0.0494 -0.1579
 7031TIP3    H142584   2.543   1.869   1.698  0.1014 -0.1872  1.0260
 7031TIP3    H242585   2.660   1.784   1.654  0.3585 -0.4884  2.2582
 7032TIP3   OH242586   2.941   1.038   6.157 -0.3551 -0.2595 -0.3072
 7032TIP3    H142587   2.929   1.107   6.223  0.0335 -0.5947  0.1202
 7032TIP3    H242588   2.986   1.082   6.085  0.5454 -0.2232  0.2628
 7033TIP3   OH242589   5.529   4.011  16.239  0.4894 -0.2074 -0.1996
 7033TIP3    H142590   5.510   3.942  16.302 -0.5366  1.4054  1.3724
 7033TIP3    H242591   5.465   4.080  16.260  1.2960  1.1107 -1.8577
 7034TIP3   OH242592   6.544   5.858   6.004 -0.0795 -0.1006 -0.0552
 7034TIP3    H142593   6.587   5.881   6.086 -1.4386  2.6190 -0.0032
 7034TIP3    H242594   6.598   5.900   5.936 -1.3586  1.5157 -0.1429
 7035TIP3   OH242595   3.437   4.980  16.543 -0.7613 -0.0461  0.0870
 7035TIP3    H142596   3.492   4.969  16.621  0.5839  1.8064 -0.5260
 7035TIP3    H242597   3.347   4.976  16.576 -0.2537 -1.1302  1.4369
 7036TIP3   OH242598   5.697   1.368  12.663 -0.2375  0.0005 -0.1090
 7036TIP3    H142599   5.728   1.278  12.658 -0.1204  0.0982 -1.2634
 7036TIP3    H242600   5.646   1.381  12.583 -0.0499  1.0381 -0.0773
 7037TIP3   OH242601   0.439   3.461   4.890 -0.1001 -0.0478 -0.4330
 7037TIP3    H142602   0.401   3.374   4.876  1.4293 -0.9170  0.4782
 7037TIP3    H242603   0.377   3.505   4.948 -0.7261 -0.6746 -0.6142
 7038TIP3   OH242604   0.202   5.513  14.482 -0.4013  0.8816 -0.4669
 7038TIP3    H142605   0.201   5.470  14.396 -1.8946  0.0250 -0.0600
 7038TIP3    H242606   0.125   5.570  14.481 -0.0818  1.3307  0.0928
 7039TIP3   OH242607   4.447   1.003  15.007 -0.4940 -0.0908  0.1275
 7039TIP3    H142608   4.499   1.069  14.961 -0.1248 -0.7176 -0.3868
 7039TIP3    H242609   4.486   0.999  15.095 -0.7935  0.6661  0.3002
 7040TIP3   OH242610   1.585   4.945  14.139 -0.3388 -0.2029 -0.2692
 7040TIP3    H142611   1.501   4.919  14.101 -1.1898 -1.1036  2.0587
 7040TIP3    H242612   1.562   5.007  14.208  0.7913 -1.1102  0.9774
 7041TIP3   OH242613   1.103   4.566  14.631  0.5584 -0.0708 -0.0125
 7041TIP3    H142614   1.116   4.659  14.650  0.7579 -0.6859  3.3110
 7041TIP3    H242615   1.191   4.530  14.627  0.5529 -0.0326 -2.4979
 7042TIP3   OH242616   2.872   2.055   1.206 -0.0702 -0.0975  0.3816
 7042TIP3    H142617   2.874   2.149   1.220  1.0576  0.0076 -0.3693
 7042TIP3    H242618   2.832   2.019   1.285  2.9786  0.7037  2.4637
 7043TIP3   OH242619   4.410   0.189  16.730  0.0467  0.1027 -0.1595
 7043TIP3    H142620   4.468   0.255  16.690  0.4800  0.8010  1.5476
 7043TIP3    H242621   4.322   0.222  16.714  0.2059  0.3291 -0.5972
 7044TIP3   OH242622   3.055   4.319   1.465  0.0077  0.2784  0.4820
 7044TIP3    H142623   2.992   4.384   1.494 -0.2480 -0.2723  1.2033
 7044TIP3    H242624   3.031   4.240   1.513 -1.8579 -1.3861 -2.8023
 7045TIP3   OH242625   0.726   2.779   4.462  0.5099  0.5344  0.2566
 7045TIP3    H142626   0.647   2.770   4.516  1.2387  0.2415  1.3021
 7045TIP3    H242627   0.781   2.706   4.488  0.1696 -0.7009 -2.1908
 7046TIP3   OH242628   2.834   2.169  16.253 -0.4350  0.1258 -0.1339
 7046TIP3    H142629   2.797   2.136  16.171 -0.9423  0.9496 -0.2510
 7046TIP3    H242630   2.782   2.127  16.322  0.3245 -0.9710 -0.1900
 7047TIP3   OH242631   2.101   1.975   4.179 -0.2655  0.1825  0.5241
 7047TIP3    H142632   2.108   1.928   4.096  0.1844  0.1444  0.5827
 7047TIP3    H242633   2.175   2.035   4.178 -1.3909  1.6289 -0.0161
 7048TIP3   OH242634   4.853   2.319   5.104 -0.1278 -0.3879  0.3285
 7048TIP3    H142635   4.808   2.334   5.021 -0.2988  0.0951  0.5035
 7048TIP3    H242636   4.924   2.259   5.082 -0.2117 -0.3151 -0.1563
 7049TIP3   OH242637   6.370   3.887  14.580 -0.1978 -0.0114  0.4193
 7049TIP3    H142638   6.409   3.943  14.512 -0.7421  1.4128  1.2201
 7049TIP3    H242639   6.442   3.870  14.641 -0.1077  0.1175  0.3504
 7050TIP3   OH242640   5.994   1.789   1.515 -0.2317  0.4919  0.3668
 7050TIP3    H142641   5.991   1.814   1.607  1.4143  0.6638  0.4092
 7050TIP3    H242642   6.024   1.868   1.470  2.1492 -0.4731  0.1316
 7051TIP3   OH242643   3.047   1.077  12.829 -0.9847 -0.2704  0.1357
 7051TIP3    H142644   3.065   0.986  12.806  0.4616  0.3063 -1.1931
 7051TIP3    H242645   3.060   1.081  12.924  0.1631 -1.1932  0.0342
 7052TIP3   OH242646   1.230   2.004   3.631 -0.1725  0.6240 -0.0658
 7052TIP3    H142647   1.158   1.990   3.570 -1.4582  0.2151  1.4731
 7052TIP3    H242648   1.281   1.923   3.627 -0.2388  0.6038 -0.5942
 7053TIP3   OH242649   1.524   5.515  16.773  0.5860  0.6771 -0.1326
 7053TIP3    H142650   1.550   5.451  16.839 -1.5590 -0.3636 -0.1896
 7053TIP3    H242651   1.597   5.518  16.712  0.9491 -1.3755  0.1326
 7054TIP3   OH242652   5.501   2.067  15.661 -0.1214 -0.2248  0.4497
 7054TIP3    H142653   5.523   2.090  15.571  0.8631 -1.7022  0.2781
 7054TIP3    H242654   5.514   2.148  15.711  0.8317  0.2195 -0.4897
 7055TIP3   OH242655   2.814   3.368  15.026 -0.1447 -1.6528  0.0396
 7055TIP3    H142656   2.862   3.449  15.045  1.0086 -2.1303 -0.7686
 7055TIP3    H242657   2.732   3.378  15.074  0.6268 -0.6855  1.2139
 7056TIP3   OH242658   5.144   5.996   5.197 -0.0689 -0.1518  0.8618
 7056TIP3    H142659   5.187   6.007   5.112  0.5174  0.1620  1.1965
 7056TIP3    H242660   5.091   5.917   5.187  0.4280 -0.4282  0.3854
 7057TIP3   OH242661   6.207   4.948   1.626 -0.1184 -0.3836  0.5353
 7057TIP3    H142662   6.282   4.893   1.648 -1.6438 -2.0863  1.7954
 7057TIP3    H242663   6.233   4.994   1.546  1.1083 -3.3065 -0.8930
 7058TIP3   OH242664   0.903   6.639  12.648  0.1280  0.5196  0.6179
 7058TIP3    H142665   0.952   6.558  12.660 -0.0351  0.1535 -0.9635
 7058TIP3    H242666   0.970   6.708  12.643  0.4050  0.2101 -0.0570
 7059TIP3   OH242667   0.732   3.801   5.627 -0.0731 -0.0591  0.0558
 7059TIP3    H142668   0.693   3.833   5.708 -1.9310  1.3379 -1.2974
 7059TIP3    H242669   0.679   3.725   5.603  1.7655 -1.7789  1.1344
 7060TIP3   OH242670   6.269   2.513  14.622 -0.0059  0.0130  0.1657
 7060TIP3    H142671   6.203   2.455  14.660  0.1802 -0.0033  0.4630
 7060TIP3    H242672   6.353   2.470  14.641  0.0533 -0.3771 -0.9134
 7061TIP3   OH242673   6.716   1.442  14.760 -0.0613  0.8780 -0.0472
 7061TIP3    H142674   6.746   1.461  14.849  0.6159 -1.7264  0.3700
 7061TIP3    H242675   6.641   1.384  14.772 -0.1621  0.7508 -1.1809
 7062TIP3   OH242676   3.005   6.100  11.936 -0.0585  0.9095  0.0873
 7062TIP3    H142677   3.064   6.166  11.899 -0.9912  1.6632 -0.1018
 7062TIP3    H242678   2.918   6.131  11.913 -0.5171 -0.4327 -0.0308
 7063TIP3   OH242679   0.779   3.836   2.484  0.4767  0.0853  0.1850
 7063TIP3    H142680   0.764   3.799   2.571 -1.5110  0.3408 -0.0019
 7063TIP3    H242681   0.802   3.761   2.430  1.5295 -0.1072  0.8670
 7064TIP3   OH242682   3.471   3.308  13.602 -0.1676  0.3930 -0.6767
 7064TIP3    H142683   3.483   3.326  13.509 -0.0791  1.6328 -0.4412
 7064TIP3    H242684   3.376   3.301  13.613 -0.1308 -0.8004 -1.0331
 7065TIP3   OH242685   3.435   5.207   2.206  0.6880 -0.6915 -0.0242
 7065TIP3    H142686   3.495   5.147   2.250  0.7196 -0.9042 -0.3599
 7065TIP3    H242687   3.433   5.284   2.262 -1.8862 -2.2113  2.2904
 7066TIP3   OH242688   5.756   0.050   4.728  0.1812 -0.0997 -0.4174
 7066TIP3    H142689   5.772   0.129   4.779 -1.3128  0.5356 -0.8759
 7066TIP3    H242690   5.809  -0.018   4.770  0.0831  0.7278  1.0819
 7067TIP3   OH242691   2.510   2.206  11.138 -0.2233  0.0852 -0.0432
 7067TIP3    H142692   2.544   2.143  11.075 -0.0399 -1.3201  1.4073
 7067TIP3    H242693   2.465   2.153  11.204 -1.8607  1.6337  0.1588
 7068TIP3   OH242694   1.355   4.783   0.504 -0.3680  0.4435  0.3006
 7068TIP3    H142695   1.308   4.734   0.437 -0.4935  0.6601  0.2329
 7068TIP3    H242696   1.392   4.715   0.561 -0.4835  0.2671  0.1661
 7069TIP3   OH242697   1.915   2.796  16.006 -0.1264 -0.2781 -0.2135
 7069TIP3    H142698   1.966   2.870  16.039 -0.3827 -0.9992  2.0077
 7069TIP3    H242699   1.980   2.735  15.973  0.3573 -0.3734  0.8510
 7070TIP3   OH242700   1.893   2.715   0.931  0.3613 -0.7478  0.1831
 7070TIP3    H142701   1.960   2.698   0.865  2.2896 -1.1074  2.1100
 7070TIP3    H242702   1.843   2.633   0.936  1.3488 -1.3624  0.3676
 7071TIP3   OH242703   5.918   2.568  16.962  0.4942  0.6010  0.4817
 7071TIP3    H142704   5.972   2.489  16.952  0.7305  0.9246 -0.9600
 7071TIP3    H242705   5.877   2.557  17.048 -0.3451 -1.6474 -0.1324
 7072TIP3   OH242706   6.159   1.103  14.845  0.3831  0.0439 -0.3451
 7072TIP3    H142707   6.157   1.035  14.778  1.6191  0.2135 -0.5661
 7072TIP3    H242708   6.180   1.184  14.798  1.7796  0.0799  0.2869
 7073TIP3   OH242709   1.644   0.037  12.132 -0.4155  0.3321  0.0252
 7073TIP3    H142710   1.697   0.026  12.053 -0.7509  0.8005 -0.2682
 7073TIP3    H242711   1.621   0.130  12.133  0.0968  0.4606  1.0035
 7074TIP3   OH242712   1.715   1.857  12.270 -0.4400 -0.1706  0.8678
 7074TIP3    H142713   1.783   1.909  12.227 -0.0798 -1.2322  0.1061
 7074TIP3    H242714   1.752   1.836  12.356 -0.6221  0.8800  1.2085
 7075TIP3   OH242715   5.025   5.728   5.158 -0.1217  0.4152  0.1263
 7075TIP3    H142716   5.042   5.656   5.097  1.8108  1.1078 -0.2290
 7075TIP3    H242717   5.049   5.693   5.244 -0.1517  0.3211  0.0961
 7076TIP3   OH242718   6.223   0.098  14.429 -0.3444  0.1293  0.1670
 7076TIP3    H142719   6.245   0.030  14.365 -0.7396  0.4086 -0.2705
 7076TIP3    H242720   6.304   0.148  14.441 -0.5226  0.6861 -0.8601
 7077TIP3   OH242721   2.836   3.462  16.179 -0.3876  0.0072 -0.2519
 7077TIP3    H142722   2.780   3.386  16.166  0.6522 -0.4957 -2.1975
 7077TIP3    H242723   2.871   3.452  16.268 -0.3713 -1.7192 -0.4236
 7078TIP3   OH242724   2.992   0.395   3.355  0.0487  0.4685  0.0953
 7078TIP3    H142725   2.946   0.473   3.384 -0.0169  0.5089 -0.1136
 7078TIP3    H242726   2.928   0.348   3.301  0.9094  1.6556 -2.1335
 7079TIP3   OH242727   5.112   0.625  10.810  0.1809 -0.2189  0.6483
 7079TIP3    H142728   5.117   0.632  10.905 -0.5243 -0.9116  0.7368
 7079TIP3    H242729   5.095   0.533  10.793  0.2111 -0.0831 -0.1471
 7080TIP3   OH242730   1.718   0.617  15.338 -0.3412 -0.1285 -0.6186
 7080TIP3    H142731   1.737   0.631  15.431 -0.5771 -0.6292 -0.4932
 7080TIP3    H242732   1.704   0.523  15.330 -1.4098  0.0491 -0.9571
 7081TIP3   OH242733   1.927   4.408  16.155 -0.0584 -0.0770  0.3987
 7081TIP3    H142734   2.008   4.445  16.191  0.6055 -0.2758 -0.8418
 7081TIP3    H242735   1.916   4.325  16.201 -0.9200  1.0573  2.3549
 7082TIP3   OH242736   4.202   5.486  16.483  0.8038 -0.7352 -0.2925
 7082TIP3    H142737   4.276   5.515  16.429  0.0711  0.9017 -0.4793
 7082TIP3    H242738   4.238   5.415  16.537  2.2916 -0.5099 -0.9390
 7083TIP3   OH242739   6.585   5.399  12.470  0.1915 -0.0525  0.0654
 7083TIP3    H142740   6.570   5.343  12.547 -0.3301  1.8184  1.3922
 7083TIP3    H242741   6.537   5.479  12.489  0.9732  0.8989 -1.7404
 7084TIP3   OH242742   3.877   2.846   6.631  0.3485 -0.1292 -0.2610
 7084TIP3    H142743   3.833   2.819   6.550  0.9995 -0.1161 -0.6224
 7084TIP3    H242744   3.915   2.765   6.666 -2.0185 -0.6558  1.3815
 7085TIP3   OH242745   5.054   6.436   2.470  0.2358 -0.2053 -0.8664
 7085TIP3    H142746   5.071   6.475   2.555  1.1918 -0.3810 -0.9669
 7085TIP3    H242747   4.978   6.483   2.436 -0.5092 -0.5252  0.3296
 7086TIP3   OH242748   5.587   1.020  14.661  0.1790 -0.4934 -0.2866
 7086TIP3    H142749   5.565   0.930  14.636 -0.7956 -0.1985 -0.5638
 7086TIP3    H242750   5.592   1.019  14.756  0.3087 -0.8768 -0.2987
 7087TIP3   OH242751   2.721   0.826  13.136 -0.0441 -0.0950 -0.0150
 7087TIP3    H142752   2.743   0.888  13.206 -1.2709  0.4571 -0.0907
 7087TIP3    H242753   2.770   0.857  13.060 -0.3146  0.5318  0.0616
 7088TIP3   OH242754   0.329   6.001   0.587 -0.2676  0.1164  0.0941
 7088TIP3    H142755   0.415   6.002   0.545  0.7002  0.1945  1.9624
 7088TIP3    H242756   0.267   5.999   0.515  1.3042 -0.2299 -1.3105
 7089TIP3   OH242757   4.556   3.429  14.173  0.3541 -0.1978  0.2184
 7089TIP3    H142758   4.526   3.439  14.263 -0.5118 -0.1885 -0.0675
 7089TIP3    H242759   4.572   3.335  14.163  0.7386 -0.1613  0.4650
 7090TIP3   OH242760   1.960   0.064  11.692  0.0272  0.7235  0.6249
 7090TIP3    H142761   1.967   0.157  11.716 -1.1168  0.7473  0.9380
 7090TIP3    H242762   2.029   0.021  11.742 -1.8688  0.8708  3.6285
 7091TIP3   OH242763   1.707   4.701   6.076 -0.0115  0.1342 -0.1959
 7091TIP3    H142764   1.621   4.726   6.044  0.2715  0.0273 -1.0629
 7091TIP3    H242765   1.700   4.706   6.172 -1.1236 -0.3547 -0.2379
 7092TIP3   OH242766   3.217   5.492   6.041  0.4888 -0.2146  0.3930
 7092TIP3    H142767   3.130   5.453   6.043 -0.0878  1.0626  0.5368
 7092TIP3    H242768   3.243   5.498   6.133  1.0127 -1.1846  0.3216
 7093TIP3   OH242769   0.830   3.549  14.391 -0.0164  0.4539 -0.3551
 7093TIP3    H142770   0.802   3.505  14.311 -0.2527  0.7482 -0.4374
 7093TIP3    H242771   0.758   3.610  14.411 -0.2646 -0.0828  0.4490
 7094TIP3   OH242772   4.415   2.547  13.428  0.1214  0.1683 -0.0047
 7094TIP3    H142773   4.323   2.557  13.452  0.2552  1.9242 -0.1004
 7094TIP3    H242774   4.418   2.468  13.373 -1.4388  0.5236 -0.6285
 7095TIP3   OH242775   5.095   0.304  15.498  0.4324  0.4291 -0.1466
 7095TIP3    H142776   5.114   0.379  15.442  0.6606  0.6432  0.2114
 7095TIP3    H242777   5.003   0.285  15.483  0.3063  0.9534 -0.0416
 7096TIP3   OH242778   3.811   0.583  14.674  0.7670 -0.3890  0.1847
 7096TIP3    H142779   3.806   0.589  14.579 -1.6281  0.9099  0.3012
 7096TIP3    H242780   3.752   0.510  14.697  0.5514 -0.0601  0.7074
 7097TIP3   OH242781   1.752   4.511  15.969 -0.2334 -0.5162  0.7290
 7097TIP3    H142782   1.807   4.532  15.893 -0.0335  0.9014  1.2296
 7097TIP3    H242783   1.814   4.495  16.039 -0.4081 -2.3279  0.5015
 7098TIP3   OH242784   1.896   2.210  16.654  0.1500  0.6806  0.2107
 7098TIP3    H142785   1.887   2.305  16.648  1.8322  0.9810  1.8387
 7098TIP3    H242786   1.986   2.193  16.626 -0.5476 -0.6175 -1.4118
 7099TIP3   OH242787   0.894   6.020  14.339 -0.0460  0.0521  0.2600
 7099TIP3    H142788   0.817   6.074  14.360 -0.2350  0.3587 -1.1048
 7099TIP3    H242789   0.960   6.047  14.403 -0.8177  0.3508  0.9562
 7100TIP3   OH242790   6.561   6.281  14.578  0.2681  0.2503 -0.7096
 7100TIP3    H142791   6.560   6.337  14.656 -0.0857 -1.2578  0.4270
 7100TIP3    H242792   6.653   6.258  14.566  0.0334 -2.3128  1.4588
 7101TIP3   OH242793   0.288   1.187  13.981  0.4605  0.4049  0.1589
 7101TIP3    H142794   0.273   1.094  13.993  1.4370  0.3069  0.8042
 7101TIP3    H242795   0.279   1.224  14.069  0.1526  0.9117 -0.0785
 7102TIP3   OH242796   4.580   2.656   3.824 -0.1282 -0.6027 -0.0578
 7102TIP3    H142797   4.544   2.735   3.865  0.2796 -0.0222 -0.7879
 7102TIP3    H242798   4.562   2.668   3.731 -0.4329 -1.5804 -0.1277
 7103TIP3   OH242799   0.302   5.759   1.506 -0.5193  0.1973 -0.0540
 7103TIP3    H142800   0.391   5.730   1.484 -0.3504  0.9284 -0.3565
 7103TIP3    H242801   0.302   5.769   1.601 -0.0894  0.8044 -0.1164
 7104TIP3   OH242802   2.384   5.200   2.137 -0.1885  0.4120 -0.3013
 7104TIP3    H142803   2.325   5.130   2.166  0.1153 -1.0190 -2.8697
 7104TIP3    H242804   2.335   5.281   2.150 -1.4505 -0.4604  0.5532
 7105TIP3   OH242805   0.494   3.398  16.335 -0.1254 -0.1929 -0.0551
 7105TIP3    H142806   0.534   3.338  16.397  0.4906  1.6116  1.3945
 7105TIP3    H242807   0.428   3.445  16.386 -1.8451 -0.8120 -1.5891
 7106TIP3   OH242808   6.067   2.705  15.551 -0.5213  0.6552 -0.1049
 7106TIP3    H142809   6.030   2.625  15.589 -1.1652  1.1527  0.3359
 7106TIP3    H242810   6.154   2.712  15.590 -0.2759 -0.0712 -0.5018
 7107TIP3   OH242811   1.664   0.920  12.569  0.3420  0.0534 -0.2796
 7107TIP3    H142812   1.705   0.879  12.645  0.6133  0.7450 -0.0446
 7107TIP3    H242813   1.591   0.862  12.547  1.3250 -1.0958 -0.6041
 7108TIP3   OH242814   1.480   3.325   1.936 -0.4204  0.3991 -0.1669
 7108TIP3    H142815   1.441   3.247   1.897  1.3084 -1.3387  1.3754
 7108TIP3    H242816   1.429   3.340   2.015  0.4897 -0.4377  0.6012
 7109TIP3   OH242817   4.127   1.690   5.235 -0.0885 -0.0052  0.0432
 7109TIP3    H142818   4.103   1.610   5.186  1.4640  0.6228 -1.8681
 7109TIP3    H242819   4.200   1.663   5.290  2.0683  0.5080 -2.3671
 7110TIP3   OH242820   4.898   3.570  16.267  0.4380  0.4864 -0.1974
 7110TIP3    H142821   4.806   3.551  16.286  0.4646 -0.5154 -0.9408
 7110TIP3    H242822   4.931   3.610  16.347 -0.7225  1.1615 -0.0326
 7111TIP3   OH242823   3.130   3.008  10.830  0.2379 -0.9148 -0.8045
 7111TIP3    H142824   3.081   2.937  10.788 -1.2995  1.2894 -3.0531
 7111TIP3    H242825   3.201   3.027  10.770  1.7114 -1.6058  0.6347
 7112TIP3   OH242826   6.032   1.875  16.182  0.4921  0.1063 -0.4760
 7112TIP3    H142827   5.980   1.943  16.225  0.2240 -0.6695  0.4499
 7112TIP3    H242828   5.968   1.817  16.141  0.7416  0.8133 -1.9354
 7113TIP3   OH242829   5.012   4.395   1.652  0.1877  0.4220  0.2554
 7113TIP3    H142830   4.969   4.317   1.616  0.7922 -0.4978  1.4353
 7113TIP3    H242831   4.974   4.468   1.604 -1.2068 -0.5130 -0.1324
 7114TIP3   OH242832   0.665   6.329  13.434 -0.4354 -0.1447 -0.0648
 7114TIP3    H142833   0.641   6.307  13.344  2.5272  0.1194 -1.0552
 7114TIP3    H242834   0.699   6.248  13.470  0.0630  0.1624  0.1683
 7115TIP3   OH242835   1.865   5.121   2.273  0.1492 -0.6022 -0.0164
 7115TIP3    H142836   1.947   5.096   2.317  1.5914 -0.5748 -2.4753
 7115TIP3    H242837   1.806   5.047   2.288  1.1305 -1.2891  0.5964
 7116TIP3   OH242838   1.907   0.611  17.458 -0.1283 -0.0169  0.0507
 7116TIP3    H142839   1.852   0.639  17.531  0.9098 -0.2145  0.9364
 7116TIP3    H242840   1.942   0.526  17.485 -0.9199 -0.8159 -1.3405
 7117TIP3   OH242841   5.813   0.262   4.883 -0.1575 -0.2047 -0.3780
 7117TIP3    H142842   5.801   0.357   4.876 -0.7200 -0.1519  1.1155
 7117TIP3    H242843   5.851   0.249   4.970 -1.1915 -1.4438 -0.0928
 7118TIP3   OH242844   1.072   5.752  13.176 -0.0431 -0.0417 -0.5774
 7118TIP3    H142845   1.158   5.779  13.207 -0.2433 -0.6762  0.5671
 7118TIP3    H242846   1.086   5.725  13.085  0.6588  1.3216 -0.8954
 7119TIP3   OH242847   5.836   0.542  13.252  0.1247 -0.0916  0.2695
 7119TIP3    H142848   5.831   0.601  13.176  0.8705 -0.4404 -0.0540
 7119TIP3    H242849   5.745   0.517  13.268 -0.4861  2.5160  1.5251
 7120TIP3   OH242850   6.011   6.172  14.798  0.6960  0.1307 -0.8910
 7120TIP3    H142851   6.053   6.086  14.801 -0.2023 -0.3068 -0.3248
 7120TIP3    H242852   6.076   6.231  14.836  0.3509 -0.7450  1.1882
 7121TIP3   OH242853   0.548   4.592   4.687 -0.3014  0.5629 -0.7538
 7121TIP3    H142854   0.535   4.682   4.658 -0.7447  1.1496  1.0913
 7121TIP3    H242855   0.464   4.548   4.670 -0.9902  1.2417  0.7013
 7122TIP3   OH242856   4.842   3.219  14.537 -0.2423 -0.6535  0.2123
 7122TIP3    H142857   4.824   3.298  14.485  0.7756 -0.4131  0.2079
 7122TIP3    H242858   4.766   3.163  14.522 -0.9599  0.3123  0.1845
 7123TIP3   OH242859   0.179   1.648   2.842 -0.0480  0.4294  0.4487
 7123TIP3    H142860   0.116   1.598   2.895  1.5714 -2.1404  0.1045
 7123TIP3    H242861   0.207   1.719   2.900 -0.7621 -0.3626  1.8339
 7124TIP3   OH242862   1.294   4.006  12.902  0.1685 -0.4741 -0.2226
 7124TIP3    H142863   1.389   4.013  12.909  0.1037 -0.6542  1.4745
 7124TIP3    H242864   1.270   3.939  12.967 -1.2380  0.6909  0.5260
 7125TIP3   OH242865   5.829   2.433  16.223  0.1822 -0.0820  0.2562
 7125TIP3    H142866   5.772   2.373  16.271  1.1369 -2.5906 -1.5480
 7125TIP3    H242867   5.911   2.432  16.272  0.3003 -0.5073  0.0486
 7126TIP3   OH242868   6.375   1.925  16.345 -0.0226  0.8448  0.0259
 7126TIP3    H142869   6.379   2.010  16.301 -0.5419  1.1141  0.4856
 7126TIP3    H242870   6.345   1.945  16.434 -3.6505 -0.0982 -0.8020
 7127TIP3   OH242871   5.535   4.909  12.044 -0.0798  0.2477 -0.4055
 7127TIP3    H142872   5.588   4.892  11.966  1.2031 -0.4548  0.5839
 7127TIP3    H242873   5.560   4.996  12.073 -0.6561  0.5643 -0.8383
 7128TIP3   OH242874   0.179   3.069   3.971  0.2384  0.5580  0.5715
 7128TIP3    H142875   0.138   3.155   3.960  0.2348  0.3944 -0.8741
 7128TIP3    H242876   0.262   3.087   4.014 -0.2179  1.1680  1.2186
 7129TIP3   OH242877   5.750   2.876  14.435 -0.2910  0.5026 -0.1823
 7129TIP3    H142878   5.822   2.938  14.447  2.0189 -1.8322 -0.9328
 7129TIP3    H242879   5.696   2.886  14.513  0.3537  2.9407  0.0275
 7130TIP3   OH242880   4.574   1.021  12.481  0.0855 -0.1970  0.2840
 7130TIP3    H142881   4.614   0.962  12.416  1.7589  0.4850  0.6266
 7130TIP3    H242882   4.594   1.108  12.448 -2.1446  0.2301 -0.0891
 7131TIP3   OH242883   0.930   6.154  12.298  0.0163 -0.4515  0.0905
 7131TIP3    H142884   0.954   6.077  12.247 -0.1263 -0.4357 -0.0006
 7131TIP3    H242885   0.847   6.183  12.261 -1.2402 -1.7212  1.7524
 7132TIP3   OH242886   2.086   0.166  15.747  0.2724  0.2475 -0.5655
 7132TIP3    H142887   2.115   0.111  15.674 -2.5303 -0.9467 -0.8772
 7132TIP3    H242888   2.038   0.238  15.705 -3.0225 -1.4488  0.0043
 7133TIP3   OH242889   6.509   4.619  15.076  0.3783  0.0843  0.5296
 7133TIP3    H142890   6.520   4.620  15.171  1.6288  0.0628  0.4038
 7133TIP3    H242891   6.424   4.576  15.062  0.1764  0.0909  1.6274
 7134TIP3   OH242892   5.039   0.926  14.039  0.1991 -0.2442  0.2845
 7134TIP3    H142893   5.111   0.863  14.047  0.9817  0.6615  0.5046
 7134TIP3    H242894   4.963   0.872  14.017  0.9999 -1.1874 -0.2614
 7135TIP3   OH242895   2.026   4.072   1.146  0.2959  0.1029 -0.4730
 7135TIP3    H142896   2.086   4.001   1.166 -0.1005 -0.2068 -0.3770
 7135TIP3    H242897   2.070   4.122   1.077 -0.1416 -1.1940 -1.7324
 7136TIP3   OH242898   2.135   3.778  13.007 -0.2346  0.4041 -0.3214
 7136TIP3    H142899   2.095   3.694  12.989  1.8693 -0.5818 -0.7803
 7136TIP3    H242900   2.210   3.782  12.946  1.6784  1.0956  1.9288
 7137TIP3   OH242901   3.447   0.532  16.413 -0.5336  0.4415 -0.7619
 7137TIP3    H142902   3.513   0.547  16.481 -0.5354 -2.3022 -0.0396
 7137TIP3    H242903   3.490   0.559  16.332  0.8264  0.3509 -0.1099
 7138TIP3   OH242904   4.212   3.847   3.062 -0.1332 -0.1982  0.2651
 7138TIP3    H142905   4.232   3.850   2.968  0.2459  0.7263  0.3684
 7138TIP3    H242906   4.273   3.783   3.098 -0.3477 -0.6298 -0.1295
 7139TIP3   OH242907   0.810   2.779  15.748 -0.5694  0.1248  0.5106
 7139TIP3    H142908   0.840   2.836  15.677 -1.6194  0.2228  0.1139
 7139TIP3    H242909   0.726   2.817  15.774  0.0753  0.4305  2.2203
 7140TIP3   OH242910   1.045   2.186   5.455 -0.0632  0.0251 -0.5240
 7140TIP3    H142911   1.134   2.192   5.419 -0.4503  0.9048 -1.3758
 7140TIP3    H242912   1.034   2.265   5.507 -0.7769  0.5669 -1.4637
 7141TIP3   OH242913   2.267   3.897  14.967 -0.7598  0.0446  0.1527
 7141TIP3    H142914   2.251   3.973  14.911 -0.0996 -0.8819 -1.3449
 7141TIP3    H242915   2.182   3.855  14.975 -0.8893  0.2673 -0.0252
 7142TIP3   OH242916   3.968   3.064   0.792  0.1775 -0.2209  0.1684
 7142TIP3    H142917   3.985   2.995   0.728  1.4897  0.3366 -0.1179
 7142TIP3    H242918   4.055   3.097   0.815 -0.4273  1.6229 -0.0245
 7143TIP3   OH242919   5.461   5.503  17.354  0.4149  0.1027  0.0388
 7143TIP3    H142920   5.514   5.577  17.324 -0.6173  0.6295 -0.5341
 7143TIP3    H242921   5.379   5.542  17.384 -0.1511 -0.8071 -0.2721
 7144TIP3   OH242922   0.852   3.966  12.706  0.3141 -0.1760 -0.2820
 7144TIP3    H142923   0.943   3.958  12.678  0.2516 -2.0595 -0.0955
 7144TIP3    H242924   0.818   4.039  12.654  1.9867  0.7888 -0.1088
 7145TIP3   OH242925   4.248   6.507  14.378 -0.0352 -0.5158  0.1165
 7145TIP3    H142926   4.220   6.430  14.329 -0.4564  0.2614 -0.8998
 7145TIP3    H242927   4.203   6.500  14.462  1.0330 -2.0921  0.6175
 7146TIP3   OH242928   3.931   5.676  16.731  0.7443 -0.3512  0.5043
 7146TIP3    H142929   3.838   5.700  16.731  0.8199  0.2613 -2.2909
 7146TIP3    H242930   3.957   5.681  16.823 -2.2527 -1.7461  1.5570
 7147TIP3   OH242931   0.090   5.020   1.171  0.1774 -0.0790 -0.1840
 7147TIP3    H142932  -0.005   5.009   1.175  0.1311  0.4558  0.3433
 7147TIP3    H242933   0.112   5.071   1.249  0.9990 -0.8428  0.1108
 7148TIP3   OH242934   0.624   6.565  16.160  0.0346  0.6539  0.0823
 7148TIP3    H142935   0.607   6.627  16.231  0.6381  1.6957 -0.6530
 7148TIP3    H242936   0.654   6.486  16.204  1.7225  1.7255  0.9467
 7149TIP3   OH242937   4.099   6.295  14.280 -0.3259 -0.1292  0.3231
 7149TIP3    H142938   4.009   6.272  14.304  0.0841 -1.1376  0.9511
 7149TIP3    H242939   4.119   6.240  14.205  0.0240 -0.4692  0.6626
 7150TIP3   OH242940   0.979   6.107  13.022  0.3032 -0.3654 -0.0862
 7150TIP3    H142941   1.009   6.123  13.112  0.0498 -0.1512 -0.0379
 7150TIP3    H242942   0.887   6.082  13.032  0.1016  0.2474 -0.3269
 7151TIP3   OH242943   1.166   1.356   0.162  0.3252  0.3371 -0.0460
 7151TIP3    H142944   1.170   1.273   0.114 -4.1696 -0.4343  0.4534
 7151TIP3    H242945   1.218   1.416   0.110  0.7534 -1.9365 -2.4563
 7152TIP3   OH242946   1.571   4.499   0.034  0.7322 -0.2502 -0.3209
 7152TIP3    H142947   1.489   4.464  -0.001 -0.6087  1.2381  1.1793
 7152TIP3    H242948   1.601   4.562  -0.031  0.2158 -0.1750 -0.4867
 7153TIP3   OH242949   0.255   3.069  14.967  0.1012  0.0345 -0.2873
 7153TIP3    H142950   0.276   3.162  14.956  1.8778  0.1181  2.6956
 7153TIP3    H242951   0.200   3.066  15.045  0.5186 -1.4720 -0.0209
 7154TIP3   OH242952   2.455   4.674  12.126  0.3102 -0.1254  0.1941
 7154TIP3    H142953   2.503   4.672  12.208  0.3455 -1.4767  0.1613
 7154TIP3    H242954   2.434   4.583  12.107  0.3193  0.1468 -1.3083
 7155TIP3   OH242955   5.811   0.082   1.444  0.2715 -0.1084  0.0469
 7155TIP3    H142956   5.733   0.037   1.475  1.3088 -1.4857  0.7856
 7155TIP3    H242957   5.823   0.155   1.505 -0.6881  0.3975 -0.3581
 7156TIP3   OH242958   3.115   6.560   2.816  0.1113 -0.3732  0.0381
 7156TIP3    H142959   3.091   6.500   2.886 -0.2954 -0.8163 -0.4720
 7156TIP3    H242960   3.142   6.640   2.861 -1.1638 -0.2746  0.6749
 7157TIP3   OH242961   2.165   1.578   1.235  0.0402  0.6944  0.1898
 7157TIP3    H142962   2.141   1.487   1.215  0.4531  0.1055  2.0495
 7157TIP3    H242963   2.245   1.593   1.185 -0.0590  0.0248 -0.1814
 7158TIP3   OH242964   4.852   1.829  13.138 -0.0816 -0.3671  0.6544
 7158TIP3    H142965   4.787   1.797  13.077 -1.1416 -1.1102  2.1087
 7158TIP3    H242966   4.824   1.918  13.160  1.1786  0.5255 -1.0656
 7159TIP3   OH242967   1.630   0.634  16.227 -0.2974 -0.3868 -0.4744
 7159TIP3    H142968   1.721   0.660  16.211 -0.2229  0.0181  0.5555
 7159TIP3    H242969   1.586   0.714  16.254 -0.2316 -1.1041  2.0178
 7160TIP3   OH242970   4.099   5.627   5.875 -0.5509  0.7405  0.1742
 7160TIP3    H142971   4.190   5.650   5.895 -0.9159  1.2912  1.3338
 7160TIP3    H242972   4.081   5.668   5.791  0.8135 -0.9074 -0.9831
 7161TIP3   OH242973   1.338   1.702   5.833 -0.1091  0.5278  0.7788
 7161TIP3    H142974   1.432   1.706   5.852 -0.0842 -0.0545  0.7928
 7161TIP3    H242975   1.317   1.609   5.839 -0.7435  0.6883  1.0481
 7162TIP3   OH242976   3.264   2.594   6.067  0.1690 -0.3699  0.1889
 7162TIP3    H142977   3.176   2.583   6.101 -0.0367  0.0197 -0.2087
 7162TIP3    H242978   3.299   2.670   6.113 -0.1435  0.2151 -0.5273
 7163TIP3   OH242979   2.225   3.950  12.362 -0.1503  0.0318 -0.0535
 7163TIP3    H142980   2.192   3.866  12.329 -0.1410 -0.2959  0.7528
 7163TIP3    H242981   2.295   3.974  12.301  0.0836 -0.7250 -0.0906
 7164TIP3   OH242982   4.817   0.519  17.602 -0.5213 -0.3945 -0.2274
 7164TIP3    H142983   4.884   0.488  17.542  0.2393  0.0949  0.3506
 7164TIP3    H242984   4.793   0.442  17.653 -1.3275 -0.8655 -1.2752
 7165TIP3   OH242985   2.093   4.192   5.395 -0.3534 -0.1770  0.4163
 7165TIP3    H142986   2.117   4.127   5.461 -0.3356 -1.7794 -1.0768
 7165TIP3    H242987   2.007   4.163   5.363 -0.5907  0.8485  0.1018
 7166TIP3   OH242988   3.551   4.537  14.523 -0.0844  0.3419 -0.3651
 7166TIP3    H142989   3.551   4.502  14.434 -0.9917 -0.4260 -0.0805
 7166TIP3    H242990   3.463   4.518  14.556  0.3684  0.2494  0.8397
 7167TIP3   OH242991   5.458   3.076  14.378 -0.3205  0.5776  0.8473
 7167TIP3    H142992   5.553   3.086  14.383 -0.0376 -1.4364  0.1857
 7167TIP3    H242993   5.429   3.151  14.325  1.2848 -0.3790 -1.5840
 7168TIP3   OH242994   1.071   2.436   3.527  0.3053 -0.3612 -0.3855
 7168TIP3    H142995   1.114   2.507   3.479  0.3984  0.4094  0.7978
 7168TIP3    H242996   1.142   2.381   3.560  0.2595 -0.6615 -0.7849
 7169TIP3   OH242997   2.802   0.511   5.080 -0.0650  0.2249 -0.2463
 7169TIP3    H142998   2.743   0.498   5.154 -3.8575  2.3252 -2.5476
 7169TIP3    H242999   2.834   0.601   5.090  0.1345  0.2035 -0.6690
 7170TIP3   OH243000   4.750   1.392   6.310  0.0546  0.8193  0.3617
 7170TIP3    H143001   4.790   1.452   6.372  0.1200  0.7726  0.3647
 7170TIP3    H243002   4.667   1.366   6.351  0.6061 -0.0784  0.9494
 7171TIP3   OH243003   4.565   2.350  17.458 -0.3795 -0.4045 -0.1152
 7171TIP3    H143004   4.614   2.339  17.540 -1.0614  0.5385  0.4409
 7171TIP3    H243005   4.620   2.308  17.391  0.0651 -1.4316  0.8588
 7172TIP3   OH243006   2.933   3.506   1.152  0.2962 -0.0233  0.4276
 7172TIP3    H143007   2.947   3.566   1.079 -1.1037 -0.0377  0.1212
 7172TIP3    H243008   2.959   3.420   1.118  0.9846  0.1785  0.4229
 7173TIP3   OH243009   4.469   6.135   1.712  0.3641 -0.0345 -0.4662
 7173TIP3    H143010   4.532   6.068   1.686  1.7817  1.4650 -1.0330
 7173TIP3    H243011   4.442   6.176   1.630 -1.8218 -0.9771 -0.2966
 7174TIP3   OH243012   1.206   4.825  13.628  0.5268 -0.4359 -0.1630
 7174TIP3    H143013   1.289   4.825  13.676 -0.8071 -3.0835  2.4277
 7174TIP3    H243014   1.165   4.908  13.652  2.0363  0.5963 -0.9332
 7175TIP3   OH243015   0.058   4.740  13.468 -0.0595  0.9709 -0.2575
 7175TIP3    H143016   0.105   4.794  13.405  0.9526  0.4393  0.0219
 7175TIP3    H243017  -0.031   4.734  13.433  0.9569 -1.0308 -2.7560
 7176TIP3   OH243018   1.484   5.581  11.446 -0.4440 -0.2379 -1.0418
 7176TIP3    H143019   1.567   5.567  11.492 -1.7566  1.0280  2.0169
 7176TIP3    H243020   1.494   5.665  11.402 -0.4302  0.4937  0.3019
 7177TIP3   OH243021   5.075   4.396  12.809 -0.1674  0.1984  0.2104
 7177TIP3    H143022   5.116   4.439  12.884 -0.4791  1.0959 -0.1222
 7177TIP3    H243023   4.991   4.441  12.799 -1.5691 -2.0186  1.2760
 7178TIP3   OH243024   2.751   3.674   1.498 -0.1953 -0.4380  0.2570
 7178TIP3    H143025   2.786   3.760   1.474 -0.9239  0.1275  1.1285
 7178TIP3    H243026   2.720   3.637   1.416 -0.5794  0.4741 -0.0228
 7179TIP3   OH243027   1.172   6.283   2.326  0.4662 -0.8034  0.1115
 7179TIP3    H143028   1.250   6.237   2.356  0.6323 -0.1905  0.6453
 7179TIP3    H243029   1.108   6.269   2.396  0.6057 -0.0065  0.4046
 7180TIP3   OH243030   2.425   3.498   4.805 -0.1619  0.0920  0.2293
 7180TIP3    H143031   2.430   3.431   4.737  0.4378 -0.1669  0.5240
 7180TIP3    H243032   2.428   3.449   4.888  2.4904  0.5634  0.4975
 7181TIP3   OH243033   5.911   6.161   2.106  0.1181 -0.4468  0.2701
 7181TIP3    H143034   5.897   6.202   2.021 -2.3548 -1.6548  0.0071
 7181TIP3    H243035   6.006   6.158   2.116  0.4338  1.2044 -1.6848
 7182TIP3   OH243036   3.270   3.155   4.965 -0.0164 -0.0147  0.0299
 7182TIP3    H143037   3.364   3.155   4.980 -0.2470  1.4076  1.9283
 7182TIP3    H243038   3.256   3.088   4.899  2.3654  0.0654 -0.6613
 7183TIP3   OH243039   3.090   2.798  15.853  0.0873  0.6797 -0.1419
 7183TIP3    H143040   3.116   2.755  15.935  0.3754 -1.2434 -1.1960
 7183TIP3    H243041   3.041   2.875  15.882  2.2481  1.4181  1.8484
 7184TIP3   OH243042   6.398   2.243   1.705  0.2510 -0.5431  0.4644
 7184TIP3    H143043   6.322   2.200   1.665  0.1591 -0.0953  0.1443
 7184TIP3    H243044   6.367   2.331   1.725  0.8692 -0.1523 -0.2543
 7185TIP3   OH243045   3.052   6.387  14.504 -0.0762 -0.9499  0.2295
 7185TIP3    H143046   3.064   6.318  14.438 -0.4157  0.5895 -1.5174
 7185TIP3    H243047   2.976   6.357  14.555 -0.9867 -1.3384 -1.2743
 7186TIP3   OH243048   4.515   0.360   0.775  0.4957 -0.1014  0.3218
 7186TIP3    H143049   4.533   0.273   0.812 -0.9846  0.0282  1.4570
 7186TIP3    H243050   4.481   0.342   0.687  0.6115 -0.6450  0.3844
 7187TIP3   OH243051   2.025   6.224  16.859 -0.3162 -0.3772  0.2903
 7187TIP3    H143052   2.102   6.246  16.911 -0.4170 -1.3295  0.8783
 7187TIP3    H243053   1.969   6.301  16.864  1.5588  1.2824 -2.0728
 7188TIP3   OH243054   0.428   4.429   5.854  0.4638 -0.2233  0.3135
 7188TIP3    H143055   0.451   4.484   5.779 -0.8783  0.4338  0.3591
 7188TIP3    H243056   0.402   4.345   5.816  0.0193  0.0306  0.0514
 7189TIP3   OH243057   6.732   4.544   3.695  0.3825 -0.2182 -0.0031
 7189TIP3    H143058   6.681   4.520   3.772 -0.6074 -0.1290 -0.6141
 7189TIP3    H243059   6.711   4.477   3.630  0.0965  0.4978 -0.6607
 7190TIP3   OH243060   0.695   4.171  17.199  0.4281  0.0244 -0.1149
 7190TIP3    H143061   0.603   4.150  17.180  0.3181  0.0023  0.4370
 7190TIP3    H243062   0.705   4.262  17.170  0.2977 -0.0447 -0.3885
 7191TIP3   OH243063   2.767   1.201  16.138  0.1840 -0.8006  0.0684
 7191TIP3    H143064   2.840   1.217  16.197  1.0718  0.0485 -1.2004
 7191TIP3    H243065   2.763   1.105  16.130  0.4403 -0.8931  1.0049
 7192TIP3   OH243066   5.864   3.256  15.590  0.8001 -0.1251 -0.2150
 7192TIP3    H143067   5.811   3.192  15.637 -0.0790  0.3657 -0.5111
 7192TIP3    H243068   5.893   3.211  15.511  0.6222 -0.3226 -0.1679
 7193TIP3   OH243069   5.276   0.700   1.978  0.3565 -0.1519 -0.1770
 7193TIP3    H143070   5.245   0.669   1.893  1.9431 -2.0308 -0.1215
 7193TIP3    H243071   5.327   0.779   1.958 -1.2131  0.7958 -0.6578
 7194TIP3   OH243072   5.618   0.312  15.853  0.6025  0.5407 -0.2880
 7194TIP3    H143073   5.665   0.291  15.772  0.0502 -0.7646 -0.2918
 7194TIP3    H243074   5.686   0.346  15.912  1.2575  0.1961 -0.8304
 7195TIP3   OH243075   2.116   6.685  15.974  0.0239  0.4148  0.7427
 7195TIP3    H143076   2.117   6.731  16.058 -1.6864  0.5505  0.7290
 7195TIP3    H243077   2.106   6.753  15.908 -0.6824  0.1767  0.5918
 7196TIP3   OH243078   6.419   5.468  10.912 -0.3799  0.5878 -0.3511
 7196TIP3    H143079   6.465   5.528  10.853 -0.7704  1.5435  0.3079
 7196TIP3    H243080   6.420   5.384  10.865  0.5988  0.9783 -1.0671
 7197TIP3   OH243081   0.938   5.987  12.521 -0.2924 -0.1324  0.5660
 7197TIP3    H143082   0.904   6.048  12.455  0.5558 -0.2788 -0.0184
 7197TIP3    H243083   1.031   5.979  12.501 -0.2913 -1.2472  0.9331
 7198TIP3   OH243084   0.582   5.064   5.423  0.0147 -0.3962  0.1824
 7198TIP3    H143085   0.497   5.103   5.443  0.0220  0.0095 -0.5332
 7198TIP3    H243086   0.622   5.047   5.508  0.1201  1.4122  0.5331
 7199TIP3   OH243087   4.863   0.272  10.732  0.0615 -0.3731 -0.4553
 7199TIP3    H143088   4.790   0.285  10.793  0.5584 -3.0368  0.8640
 7199TIP3    H243089   4.852   0.341  10.667 -1.2854  1.8010  1.8882
 7200TIP3   OH243090   1.828   3.174  13.578  0.4489  0.2049 -0.1858
 7200TIP3    H143091   1.866   3.240  13.636  0.8046 -0.2770  0.1441
 7200TIP3    H243092   1.737   3.167  13.605  0.7309 -0.3648  0.6529
 7201TIP3   OH243093   2.992   3.499   5.604 -0.1732 -0.1870 -0.0622
 7201TIP3    H143094   3.066   3.560   5.608 -0.2637 -0.0357 -0.5998
 7201TIP3    H243095   2.941   3.519   5.683  1.5120 -1.8324  1.5562
 7202TIP3   OH243096   6.125   3.378   2.754  0.1835 -0.7512 -0.6421
 7202TIP3    H143097   6.043   3.333   2.736 -0.6655  0.6985 -0.5506
 7202TIP3    H243098   6.161   3.398   2.668 -0.3485 -0.0372 -0.7101
 7203TIP3   OH243099   4.439   1.599   1.310  0.1200  0.2729 -0.0669
 7203TIP3    H143100   4.524   1.611   1.267 -0.8787 -0.0417 -2.2017
 7203TIP3    H243101   4.432   1.505   1.324 -1.0082 -0.0285 -2.3862
 7204TIP3   OH243102   0.182   0.774   4.640  0.2493 -0.0844  0.4649
 7204TIP3    H143103   0.247   0.704   4.633 -1.0127 -1.1694 -1.0797
 7204TIP3    H243104   0.195   0.826   4.560  1.3371  1.6730  1.7000
 7205TIP3   OH243105   3.788   2.089   6.891 -0.5338  0.1447 -0.4620
 7205TIP3    H143106   3.790   1.997   6.917  2.8374  0.4252  0.7653
 7205TIP3    H243107   3.729   2.131   6.953  0.7584 -0.6354  1.3734
 7206TIP3   OH243108   0.222   1.015  17.631 -0.7251  0.6083 -0.5690
 7206TIP3    H143109   0.209   0.999  17.724 -3.4881  0.3010 -0.9395
 7206TIP3    H243110   0.168   1.092  17.611  1.1459  1.7346 -1.6339
 7207TIP3   OH243111   3.163   0.198  11.264  0.2632 -0.0363  0.2589
 7207TIP3    H143112   3.230   0.235  11.208 -0.0841  0.6799  0.3066
 7207TIP3    H243113   3.087   0.255  11.253  0.4193  0.5844  2.0216
 7208TIP3   OH243114   2.681   6.605   5.817 -0.0998  0.0889 -0.2571
 7208TIP3    H143115   2.606   6.642   5.864 -0.3460 -1.6381  0.8067
 7208TIP3    H243116   2.756   6.627   5.872  0.3000  2.2391 -1.5666
 7209TIP3   OH243117   5.368   4.431   5.152 -0.0521  0.0564  0.4043
 7209TIP3    H143118   5.437   4.495   5.138 -0.4299  0.2652 -0.5702
 7209TIP3    H243119   5.343   4.442   5.243  0.1578  1.0248  0.3496
 7210TIP3   OH243120   2.326   5.985   3.345 -0.1721 -0.0775  0.0733
 7210TIP3    H143121   2.246   5.954   3.387 -0.3487  1.7160  1.1862
 7210TIP3    H243122   2.355   5.912   3.291 -1.7424 -1.3018  0.8059
 7211TIP3   OH243123   4.320   0.187  14.814 -0.5694  0.4290  0.0404
 7211TIP3    H143124   4.224   0.187  14.819 -0.6432 -0.2730 -1.0989
 7211TIP3    H243125   4.339   0.217  14.726  0.2445  0.0128  0.0686
 7212TIP3   OH243126   2.136   2.697   4.300  0.7626  0.0809 -0.5254
 7212TIP3    H143127   2.108   2.678   4.211  1.5656  0.9546 -0.9732
 7212TIP3    H243128   2.221   2.654   4.308  0.9111  0.4065 -0.3400
 7213TIP3   OH243129   6.570   2.025   0.926 -0.4692 -0.1045  0.0453
 7213TIP3    H143130   6.588   2.097   0.867 -2.0874  0.7327  0.5154
 7213TIP3    H243131   6.554   1.950   0.868  0.1392  0.1607 -0.4798
 7214TIP3   OH243132   0.298   4.612  12.312  0.8309 -0.4014 -0.3858
 7214TIP3    H143133   0.263   4.523  12.315 -0.4883  0.0995 -0.3227
 7214TIP3    H243134   0.221   4.669  12.324  1.5359  0.7627 -1.1697
 7215TIP3   OH243135   2.753   4.752   2.525  0.7682 -0.4563  0.1508
 7215TIP3    H143136   2.793   4.702   2.596 -1.0844 -1.5604  0.4920
 7215TIP3    H243137   2.826   4.777   2.468  2.0929 -0.9831  1.5554
 7216TIP3   OH243138   1.917   0.524  11.285 -0.7121  0.2299 -0.0568
 7216TIP3    H143139   1.872   0.445  11.314  0.3188 -0.3727 -0.0556
 7216TIP3    H243140   1.914   0.520  11.189 -0.7669  0.2428 -0.0553
 7217TIP3   OH243141   6.282   3.104  11.900 -0.0996 -0.1818 -0.2873
 7217TIP3    H143142   6.268   3.074  11.811 -2.1313 -2.7510  0.8013
 7217TIP3    H243143   6.367   3.067  11.925  1.2372  1.8320 -1.5565
 7218TIP3   OH243144   3.952   4.656   2.819 -0.1207  0.3077 -0.0300
 7218TIP3    H143145   3.924   4.567   2.797 -1.8182  0.3609  1.6694
 7218TIP3    H243146   3.927   4.709   2.743 -1.4574 -0.2627 -0.0091
 7219TIP3   OH243147   4.460   4.842  17.185 -0.3381  0.3299  0.2761
 7219TIP3    H143148   4.540   4.798  17.158  0.3077  2.3314 -1.3290
 7219TIP3    H243149   4.483   4.887  17.266  0.2659  1.0506 -0.2784
 7220TIP3   OH243150   2.276   0.463  14.955  0.0134  0.1581 -0.2779
 7220TIP3    H143151   2.284   0.425  14.867  1.8700 -0.5955  0.1576
 7220TIP3    H243152   2.214   0.406  15.000  2.4261 -2.2826  0.2317
 7221TIP3   OH243153   6.228   6.542   0.568 -0.1934 -0.2617  0.3662
 7221TIP3    H143154   6.292   6.525   0.499 -0.3905  0.3776  0.0163
 7221TIP3    H243155   6.279   6.545   0.649 -0.0221 -1.4712  0.3185
 7222TIP3   OH243156   0.513   2.021   4.469 -0.0301 -0.3069 -0.0423
 7222TIP3    H143157   0.563   2.064   4.399  0.0152  1.0706  0.8016
 7222TIP3    H243158   0.480   1.941   4.428 -1.5254  1.2870 -2.2396
 7223TIP3   OH243159   5.193   2.698   5.029 -1.2765  0.3396 -0.5246
 7223TIP3    H143160   5.284   2.706   5.058 -1.1710 -0.7510 -0.4928
 7223TIP3    H243161   5.156   2.630   5.086 -1.7999  0.0070 -1.2453
 7224TIP3   OH243162   2.681   6.242  11.080  0.6951  0.8361  0.4814
 7224TIP3    H143163   2.647   6.179  11.143 -2.5469  0.5777 -1.3183
 7224TIP3    H243164   2.751   6.195  11.035 -1.2345 -1.4146 -0.3999
 7225TIP3   OH243165   5.167   3.900   0.421 -0.1140 -0.8140  0.4560
 7225TIP3    H143166   5.200   3.918   0.333  0.1331 -1.6191  0.3826
 7225TIP3    H243167   5.243   3.871   0.471 -0.2321 -0.2732  0.9727
 7226TIP3   OH243168   3.656   3.243  15.859 -0.0412  0.1915  0.4460
 7226TIP3    H143169   3.623   3.178  15.797  2.8462 -0.9892 -0.0187
 7226TIP3    H243170   3.657   3.325  15.810 -1.0477  0.0288  0.1240
 7227TIP3   OH243171   2.770   3.557   4.479  0.1417  0.0595 -0.1732
 7227TIP3    H143172   2.862   3.555   4.505  0.7987  0.6846 -2.2383
 7227TIP3    H243173   2.762   3.635   4.425 -1.5363 -0.1605 -0.2953
 7228TIP3   OH243174   4.036   4.517  16.361  0.2468  0.0519  0.1994
 7228TIP3    H143175   4.116   4.470  16.382  0.4789 -0.1621 -1.0423
 7228TIP3    H243176   4.030   4.511  16.265 -0.7191  0.9239  0.1909
 7229TIP3   OH243177   6.623   5.986  15.642 -0.2500 -0.2058  0.1729
 7229TIP3    H143178   6.688   5.921  15.616  0.1862  0.0407  0.6322
 7229TIP3    H243179   6.625   6.052  15.572  0.6806  0.2844  0.6414
 7230TIP3   OH243180   6.591   3.276  13.565  0.1140 -0.3235 -0.2026
 7230TIP3    H143181   6.516   3.269  13.625  0.2234  2.4802  0.4383
 7230TIP3    H243182   6.583   3.201  13.507 -2.5329 -0.7564  0.5778
 7231TIP3   OH243183   6.089   4.514  15.426 -0.6683  0.0083  0.2147
 7231TIP3    H143184   6.105   4.457  15.351 -0.1156  1.1529 -0.5743
 7231TIP3    H243185   6.099   4.603  15.391 -0.0350  0.5605  1.7157
 7232TIP3   OH243186   6.266   2.542   0.656  0.0233  0.4427  0.4930
 7232TIP3    H143187   6.214   2.597   0.714  0.7744 -1.4348  3.1756
 7232TIP3    H243188   6.348   2.528   0.703  0.4347 -1.7255 -0.7055
 7233TIP3   OH243189   6.009   6.466   4.589  0.4249 -0.1188  0.7213
 7233TIP3    H143190   5.957   6.482   4.667  0.7358 -1.1465  1.1653
 7233TIP3    H243191   6.060   6.387   4.610 -0.6512 -1.3856 -1.0701
 7234TIP3   OH243192   6.696   0.160  15.420  1.1949  0.7748  0.0207
 7234TIP3    H143193   6.685   0.188  15.511  0.8081  1.1422 -0.1370
 7234TIP3    H243194   6.642   0.220  15.370  0.5420 -0.1021 -0.3441
 7235TIP3   OH243195   0.998   3.470   0.274  0.2213 -0.3777 -0.1711
 7235TIP3    H143196   1.087   3.492   0.300 -0.2516  0.7228  0.6248
 7235TIP3    H243197   0.950   3.463   0.356 -0.7649  0.6970 -0.6201
 7236TIP3   OH243198   3.155   3.842  14.954 -0.6080  0.2137  0.4827
 7236TIP3    H143199   3.102   3.794  15.018 -2.1974  0.8524 -0.3085
 7236TIP3    H243200   3.092   3.881  14.895  0.8001 -1.2073 -2.1454
 7237TIP3   OH243201   4.051   3.489   6.080  0.0838 -0.1762  0.0457
 7237TIP3    H143202   4.046   3.518   6.171 -0.0596  0.8249 -0.2756
 7237TIP3    H243203   4.142   3.504   6.055  0.3410 -1.2462  0.2660
 7238TIP3   OH243204   2.134   5.208  11.809 -0.2382  0.0415 -0.0722
 7238TIP3    H143205   2.099   5.225  11.721  0.1205 -1.1096 -0.4542
 7238TIP3    H243206   2.219   5.252  11.809 -0.9306  1.4345  0.2836
 7239TIP3   OH243207   2.060   4.247  15.591 -0.1025 -0.0500 -0.0779
 7239TIP3    H143208   2.145   4.242  15.547  0.4224 -0.8517  0.9989
 7239TIP3    H243209   2.014   4.318  15.545  1.1492  0.4163 -0.6549
 7240TIP3   OH243210   6.707   5.066  11.791  0.6331  0.2419  0.3227
 7240TIP3    H143211   6.746   4.986  11.828  0.6167  0.2345  0.3245
 7240TIP3    H243212   6.674   5.039  11.706  0.7660  0.2841  0.2574
 7241TIP3   OH243213   0.003   2.735  12.043  0.0447 -0.3666 -0.1505
 7241TIP3    H143214  -0.046   2.674  11.989  0.3429 -0.9300  0.2114
 7241TIP3    H243215  -0.063   2.778  12.098 -0.0233 -1.3252  0.5334
 7242TIP3   OH243216   5.747   0.359   5.723  0.1507  0.2381 -0.2404
 7242TIP3    H143217   5.702   0.318   5.649  0.5782 -1.5622  0.4344
 7242TIP3    H243218   5.758   0.450   5.697 -1.3356  0.0797 -1.6108
 7243TIP3   OH243219   1.192   5.419  10.511  0.7059 -0.2823  0.2741
 7243TIP3    H143220   1.115   5.394  10.459  0.9984 -0.7521  0.0640
 7243TIP3    H243221   1.188   5.515  10.514  0.6543 -0.2416 -0.5888
 7244TIP3   OH243222   2.944   1.139  15.372 -0.3354  0.0812  0.1068
 7244TIP3    H143223   2.989   1.096  15.444 -0.0678 -1.3770 -0.8872
 7244TIP3    H243224   2.979   1.097  15.293 -0.0542  2.1429 -0.9396
 7245TIP3   OH243225   4.711   6.560   4.053 -0.0197 -0.2182  0.0024
 7245TIP3    H143226   4.641   6.619   4.082  0.8335  0.4947  0.6559
 7245TIP3    H243227   4.787   6.586   4.104  0.8322 -0.7333 -0.9769
 7246TIP3   OH243228   6.569   1.700  12.513 -0.1053 -0.1076 -0.1556
 7246TIP3    H143229   6.590   1.672  12.424 -0.2214 -0.7213  0.0051
 7246TIP3    H243230   6.476   1.723  12.509 -0.3181 -0.8907 -0.0208
 7247TIP3   OH243231   6.698   1.000  13.604 -0.0133  0.0922 -0.6216
 7247TIP3    H143232   6.695   0.908  13.577  2.7042  0.1545 -1.3891
 7247TIP3    H243233   6.638   1.044  13.544 -0.5280 -1.0113 -0.9495
 7248TIP3   OH243234   5.320   4.797  15.479  0.6865  0.4778 -0.4924
 7248TIP3    H143235   5.298   4.890  15.479  0.1225  0.3469 -0.4509
 7248TIP3    H243236   5.236   4.752  15.481  0.9713 -0.0329  0.3491
 7249TIP3   OH243237   0.594   2.047  14.830  0.7318 -0.3056  0.3956
 7249TIP3    H143238   0.570   2.052  14.923  1.7297  0.2499  0.6398
 7249TIP3    H243239   0.604   1.954  14.813 -0.5098 -0.4912  0.5504
 7250TIP3   OH243240   4.377   5.673   2.148 -0.3773 -0.1684 -0.0495
 7250TIP3    H143241   4.433   5.749   2.135  1.0444 -1.3873 -1.5228
 7250TIP3    H243242   4.323   5.695   2.223 -0.0429  2.2885 -0.4518
 7251TIP3   OH243243   2.284   3.029   5.415  0.2734  0.0610 -0.1014
 7251TIP3    H143244   2.208   2.994   5.462  0.7170 -0.0153  0.5758
 7251TIP3    H243245   2.311   3.104   5.467  0.5088  0.2382 -0.4821
 7252TIP3   OH243246   6.381   5.632   3.366  0.3280 -0.5986  0.4667
 7252TIP3    H143247   6.360   5.592   3.450  0.4803  0.7667  1.1810
 7252TIP3    H243248   6.475   5.648   3.370  0.7159 -2.2801 -0.7694
 7253TIP3   OH243249   1.113   0.360  11.017  0.1445  0.0680  0.0203
 7253TIP3    H143250   1.205   0.371  11.041  0.1448  0.5787 -0.1999
 7253TIP3    H243251   1.107   0.270  10.986  0.7572  0.2901 -0.7720
 7254TIP3   OH243252   6.377   3.654  12.581  0.4672  0.2929  0.1221
 7254TIP3    H143253   6.301   3.698  12.544 -0.7396 -1.2140  0.6682
 7254TIP3    H243254   6.373   3.674  12.675  1.3118  0.9719  0.0282
 7255TIP3   OH243255   3.175   2.564   1.382  1.0715  0.4300 -0.0730
 7255TIP3    H143256   3.254   2.589   1.431  1.1146  1.1535 -0.4999
 7255TIP3    H243257   3.110   2.546   1.449  1.1585  1.3176  0.2558
 7256TIP3   OH243258   4.681   4.999   1.698  0.6283 -0.2768 -0.1648
 7256TIP3    H143259   4.656   4.907   1.713 -1.9379  0.7572  3.4204
 7256TIP3    H243260   4.724   5.025   1.780  1.0130  1.8365 -0.9746
 7257TIP3   OH243261   3.275   5.346  16.685  0.3122  0.4450  0.0994
 7257TIP3    H143262   3.299   5.311  16.771  0.1201 -1.1993 -0.4753
 7257TIP3    H243263   3.304   5.438  16.687  0.7385  0.3033  1.7302
 7258TIP3   OH243264   3.738   0.025   2.657  0.3300  0.4556 -0.0551
 7258TIP3    H143265   3.680  -0.047   2.681 -0.4290  0.8703 -0.6227
 7258TIP3    H243266   3.796   0.034   2.733 -1.2131  0.9315  1.1337
 7259TIP3   OH243267   1.739   0.660  16.856  0.4408 -0.1408  0.1111
 7259TIP3    H143268   1.755   0.744  16.899  0.9775 -0.2468  0.1209
 7259TIP3    H243269   1.726   0.683  16.764  1.2337 -0.1065  0.0002
 7260TIP3   OH243270   0.460   5.636   5.932  0.2972 -0.2187 -0.0644
 7260TIP3    H143271   0.406   5.674   6.002 -1.1910 -0.3839 -1.0657
 7260TIP3    H243272   0.428   5.546   5.924  0.2244 -0.1038 -1.1648
 7261TIP3   OH243273   6.510   2.818  15.761  0.3073  0.1440 -0.4401
 7261TIP3    H143274   6.495   2.912  15.755  0.4454  0.2317  0.4619
 7261TIP3    H243275   6.595   2.805  15.719  0.0674  0.3541 -0.9904
 7262TIP3   OH243276   2.421   1.556   1.848  0.2090 -0.4798 -0.6721
 7262TIP3    H143277   2.388   1.617   1.782  1.6536  1.1590  0.0352
 7262TIP3    H243278   2.450   1.612   1.920 -0.6806 -2.1750  1.1013
 7263TIP3   OH243279   4.410   1.917  13.644 -0.0023  1.0049 -0.1041
 7263TIP3    H143280   4.417   1.848  13.578  0.6600  1.0086 -0.0442
 7263TIP3    H243281   4.467   1.986  13.611 -0.5301  1.4616 -0.0772
 7264TIP3   OH243282   4.979   4.880   0.745 -0.5285 -0.1517 -0.1601
 7264TIP3    H143283   4.982   4.867   0.840 -1.6757  0.5363 -0.0114
 7264TIP3    H243284   4.917   4.814   0.714 -1.2109  0.5066 -0.2388
 7265TIP3   OH243285   4.780   0.707   0.757  0.5722 -0.7942 -0.2720
 7265TIP3    H143286   4.745   0.650   0.690 -0.7705 -0.7768  0.3791
 7265TIP3    H243287   4.730   0.686   0.836  0.0744  1.1895  0.0101
 7266TIP3   OH243288   1.470   3.841  13.162 -0.0724  0.6526 -0.1467
 7266TIP3    H143289   1.377   3.852  13.141  0.2730  0.2340 -2.0624
 7266TIP3    H243290   1.515   3.907  13.110  0.6752  1.5679  1.5703
 7267TIP3   OH243291   6.538   3.593   4.608  0.5024  0.1578  0.5980
 7267TIP3    H143292   6.567   3.502   4.597  1.2945  0.3381  1.0806
 7267TIP3    H243293   6.495   3.614   4.526 -0.1271 -0.8062  0.6584
 7268TIP3   OH243294   5.075   5.197  15.651  0.1897 -0.1011  0.1756
 7268TIP3    H143295   5.151   5.254  15.638 -1.1230  1.3157 -2.2956
 7268TIP3    H243296   5.018   5.247  15.710  0.4111 -0.2968  0.5489
 7269TIP3   OH243297   1.181   2.815  15.600 -0.4327  0.2994 -0.1264
 7269TIP3    H143298   1.107   2.872  15.577 -1.4764 -0.4621  1.1726
 7269TIP3    H243299   1.146   2.726  15.591 -0.4155 -0.0727  2.5582
 7270TIP3   OH243300   2.280   4.277  12.478 -0.0495 -0.4449  0.1655
 7270TIP3    H143301   2.335   4.347  12.443  0.1083  0.0183  1.2892
 7270TIP3    H243302   2.234   4.242  12.401  0.4245  0.3904 -0.5218
 7271TIP3   OH243303   4.300   6.347   3.238  0.0882  0.1779 -0.1229
 7271TIP3    H143304   4.266   6.421   3.187  0.1812  0.7751  0.6507
 7271TIP3    H243305   4.361   6.387   3.300 -0.5466 -0.4341  0.9264
 7272TIP3   OH243306   0.122   1.501   4.160  0.2269  0.5405  0.4167
 7272TIP3    H143307   0.058   1.433   4.182 -0.7790  1.3875  0.1931
 7272TIP3    H243308   0.143   1.484   4.068 -0.2045  0.6740  0.2917
 7273TIP3   OH243309   4.767   3.798   3.515  0.0774  0.0772  0.0922
 7273TIP3    H143310   4.817   3.879   3.503  0.0366  0.0182 -0.5196
 7273TIP3    H243311   4.793   3.743   3.441  0.3066 -0.5774  0.6447
 7274TIP3   OH243312   3.138   1.524  13.939  0.1928  0.0833 -0.0458
 7274TIP3    H143313   3.174   1.468  14.007 -0.9905 -1.0751 -0.3266
 7274TIP3    H243314   3.166   1.613  13.963  5.2415 -0.8188 -1.5587
 7275TIP3   OH243315   4.808   6.625  12.235  0.4997  0.1426 -0.3430
 7275TIP3    H143316   4.880   6.642  12.297  1.7503  0.9056 -1.9427
 7275TIP3    H243317   4.799   6.530  12.235 -1.5108  0.1729  3.1100
 7276TIP3   OH243318   0.263   0.256  16.360 -0.4147 -0.0031 -0.0045
 7276TIP3    H143319   0.292   0.348  16.354 -1.8837  0.6766  2.1558
 7276TIP3    H243320   0.179   0.255  16.315 -1.1554  0.1215  1.3253
 7277TIP3   OH243321   5.904   5.030  14.830 -0.1781 -0.3688  0.2267
 7277TIP3    H143322   5.931   4.958  14.773 -0.7650 -1.3614  1.1427
 7277TIP3    H243323   5.836   4.991  14.886  0.3503  0.5621  1.5559
 7278TIP3   OH243324   4.578   5.078   5.211 -0.1954  0.3100  0.2719
 7278TIP3    H143325   4.627   5.083   5.293 -0.7690  1.1031  0.5700
 7278TIP3    H243326   4.595   5.161   5.168 -0.1380  0.0146 -0.2921
 7279TIP3   OH243327   6.153   5.795   6.267 -0.2378  0.2376 -0.3146
 7279TIP3    H143328   6.174   5.815   6.175  1.3638  1.9203  0.3542
 7279TIP3    H243329   6.118   5.878   6.301 -1.9566 -0.7073  0.3273
 7280TIP3   OH243330   0.615   6.582   3.582  0.3803  0.1962  0.4613
 7280TIP3    H143331   0.604   6.597   3.676  1.2912 -0.6694  0.7201
 7280TIP3    H243332   0.557   6.509   3.562  1.5826 -0.8733  0.7560
 7281TIP3   OH243333   6.565   6.186   0.086  0.0395 -0.1399  0.3327
 7281TIP3    H143334   6.512   6.107   0.098 -2.6361  1.5195  0.3710
 7281TIP3    H243335   6.615   6.169   0.006 -2.7579 -0.8194 -1.4422
 7282TIP3   OH243336   5.680   2.111  16.016  0.2915  0.1911  0.2878
 7282TIP3    H143337   5.638   2.025  16.016  1.6989 -0.5593 -1.1871
 7282TIP3    H243338   5.610   2.173  15.999 -0.6416 -0.7433  0.6670
 7283TIP3   OH243339   5.724   1.201  16.629  0.6087 -0.0435  0.3521
 7283TIP3    H143340   5.670   1.130  16.665 -2.0506 -0.6776 -4.0730
 7283TIP3    H243341   5.662   1.273  16.614  2.1317  1.2187 -0.1819
 7284TIP3   OH243342   3.329   3.640  12.590  0.1314  0.3072 -0.1749
 7284TIP3    H143343   3.270   3.598  12.527 -0.8070  0.7459  0.3903
 7284TIP3    H243344   3.369   3.568  12.638  0.5110 -0.0139 -0.9495
 7285TIP3   OH243345   0.441   0.997   1.389 -0.3926 -0.2376 -0.3389
 7285TIP3    H143346   0.476   0.908   1.393 -0.2713 -0.1529  1.4154
 7285TIP3    H243347   0.379   1.001   1.461  0.3188  1.3739  0.2380
 7286TIP3   OH243348   2.538   4.253  16.147  0.5091  0.0182  0.1234
 7286TIP3    H143349   2.594   4.189  16.190  1.2503 -0.2447 -1.1862
 7286TIP3    H243350   2.449   4.225  16.168  0.8431 -0.6345  0.6922
 7287TIP3   OH243351   0.109   0.734  12.405 -0.0405  0.1870 -0.0723
 7287TIP3    H143352   0.082   0.801  12.341  1.1082 -2.0065 -3.1132
 7287TIP3    H243353   0.104   0.652  12.356  1.2759 -1.6264  2.6426
 7288TIP3   OH243354   2.372   2.983  14.170 -0.0356 -0.0635  0.3972
 7288TIP3    H143355   2.279   2.967  14.182  0.4559 -1.9886  2.3038
 7288TIP3    H243356   2.387   3.069  14.210 -1.1911  1.0162 -1.3576
 7289TIP3   OH243357   3.456   4.685  12.726 -0.0287 -0.1619 -0.3796
 7289TIP3    H143358   3.388   4.752  12.737 -2.1192 -2.0839 -0.7753
 7289TIP3    H243359   3.516   4.722  12.662 -1.7641  0.9023 -1.4704
 7290TIP3   OH243360   4.408   2.336  16.484  0.3891 -0.8865  0.0071
 7290TIP3    H143361   4.468   2.402  16.517 -1.1499 -0.5253  2.3055
 7290TIP3    H243362   4.325   2.383  16.473 -0.2103 -1.9902 -0.3136
 7291TIP3   OH243363   2.299   6.043  16.590 -0.0748 -0.4704 -0.5122
 7291TIP3    H143364   2.260   6.118  16.545  1.1086  1.1076  0.9486
 7291TIP3    H243365   2.316   6.075  16.678  2.2810 -1.8360 -0.4067
 7292TIP3   OH243366   5.556   6.296  16.492 -0.0755 -0.5823 -0.0510
 7292TIP3    H143367   5.484   6.261  16.440  1.0426 -0.4635 -1.7341
 7292TIP3    H243368   5.600   6.358  16.434  0.9948 -0.1523  1.1643
 7293TIP3   OH243369   5.943   3.052   4.313 -0.2437  0.6659 -0.1000
 7293TIP3    H143370   5.940   3.146   4.296  0.4083  0.6603 -0.2777
 7293TIP3    H243371   5.852   3.025   4.320 -0.4815  1.8063  2.7256
 7294TIP3   OH243372   5.074   2.675   4.229  0.6138  0.1238  0.3650
 7294TIP3    H143373   5.139   2.638   4.289  0.0208 -0.5296  0.6199
 7294TIP3    H243374   5.108   2.656   4.142  1.2095  0.5921  0.4900
 7295TIP3   OH243375   3.977   1.731   0.000  0.1506  0.6810  0.2112
 7295TIP3    H143376   4.031   1.681  -0.061 -1.2204  0.3707 -0.8073
 7295TIP3    H243377   3.891   1.736  -0.043 -0.4802  1.6174  1.5164
 7296TIP3   OH243378   4.965   6.314  11.914  0.7093  0.2051 -0.8463
 7296TIP3    H143379   5.059   6.303  11.929  0.4351 -1.9472 -0.2980
 7296TIP3    H243380   4.953   6.299  11.820  0.7015 -1.9736 -0.5577
 7297TIP3   OH243381   1.863   1.471  13.949  0.1141 -0.8468  0.2366
 7297TIP3    H143382   1.893   1.487  14.038  1.3879 -1.2532 -0.1089
 7297TIP3    H243383   1.794   1.536  13.936 -0.8680 -1.4948  1.8789
 7298TIP3   OH243384   3.420   5.903   6.080  0.2172 -0.6577 -0.2107
 7298TIP3    H143385   3.463   5.976   6.035 -0.1862  0.3481  0.9662
 7298TIP3    H243386   3.331   5.902   6.043 -0.4892  0.9184  1.2895
 7299TIP3   OH243387   2.088   3.021   2.540 -0.2675  0.1259  0.0848
 7299TIP3    H143388   2.027   3.094   2.526 -1.0019 -0.3532  0.6912
 7299TIP3    H243389   2.107   2.988   2.452 -1.2371  0.0105 -0.0991
 7300TIP3   OH243390   6.352   1.063   4.340  0.4050 -0.1410 -0.1526
 7300TIP3    H143391   6.431   1.069   4.394  0.7098  1.5751 -0.7382
 7300TIP3    H243392   6.314   1.151   4.343 -0.9429 -0.6693 -0.7234
 7301TIP3   OH243393   1.045   4.851   0.415  0.0276 -0.9650  0.1404
 7301TIP3    H143394   1.022   4.880   0.503  1.0918  0.1540  0.0799
 7301TIP3    H243395   1.056   4.757   0.423  1.2364 -0.7382  1.4893
 7302TIP3   OH243396   3.934   2.460   4.238 -0.5618  0.1557  0.4185
 7302TIP3    H143397   3.962   2.383   4.188  0.4474 -0.0729  1.3025
 7302TIP3    H243398   3.845   2.439   4.266 -0.4106 -0.5611  0.3834
 7303TIP3   OH243399   2.769   1.363  11.600 -0.1611  0.3402 -0.3065
 7303TIP3    H143400   2.683   1.332  11.573 -0.8874  2.2612 -0.3240
 7303TIP3    H243401   2.826   1.287  11.589 -1.7912 -0.9024 -0.5216
 7304TIP3   OH243402   5.368   1.271  14.325 -0.3522 -0.2793 -0.4689
 7304TIP3    H143403   5.278   1.245  14.307 -0.7469  0.1051  0.7960
 7304TIP3    H243404   5.380   1.250  14.418  0.3478  1.0478 -0.2314
 7305TIP3   OH243405   5.321   6.339  14.104 -0.2508 -0.1798 -0.2764
 7305TIP3    H143406   5.372   6.353  14.184 -0.7620 -0.7870  0.1621
 7305TIP3    H243407   5.325   6.245  14.089 -0.7107 -0.1513 -0.6027
 7306TIP3   OH243408   2.908   2.315  17.106 -0.0185 -0.8093  0.1833
 7306TIP3    H143409   2.869   2.371  17.039 -0.2125  0.7842  1.5599
 7306TIP3    H243410   2.978   2.369  17.143 -1.4116 -0.6659  2.8374
 7307TIP3   OH243411   6.290   4.796   0.688  0.6536  0.0247  0.6347
 7307TIP3    H143412   6.313   4.887   0.704  0.2047  0.4294 -0.9001
 7307TIP3    H243413   6.374   4.752   0.675  0.8068  0.5685 -0.2895
 7308TIP3   OH243414   4.518   6.067  16.170  0.5301  0.3524 -0.4106
 7308TIP3    H143415   4.455   6.000  16.197  1.5755 -0.6667 -0.3863
 7308TIP3    H243416   4.510   6.069  16.074 -0.6470  1.3875 -0.3106
 7309TIP3   OH243417   1.743   1.302   5.856  0.1568 -0.2683 -0.2261
 7309TIP3    H143418   1.822   1.355   5.867 -0.2766  0.3619 -0.0516
 7309TIP3    H243419   1.689   1.353   5.795 -0.8533  0.1851  0.9995
 7310TIP3   OH243420   6.135   3.804  11.617 -0.2291 -0.0444  0.9780
 7310TIP3    H143421   6.127   3.770  11.706  0.7497 -2.9232  0.0869
 7310TIP3    H243422   6.165   3.729  11.565 -1.7286  1.2350 -1.9933
 7311TIP3   OH243423   4.213   0.416   6.142  0.0633 -0.2266 -0.3409
 7311TIP3    H143424   4.223   0.344   6.204 -0.0343 -1.0386 -1.2396
 7311TIP3    H243425   4.297   0.421   6.096 -0.4885 -0.9521 -1.4928
 7312TIP3   OH243426   2.321   3.742   3.781 -0.4238  0.1708  0.2079
 7312TIP3    H143427   2.385   3.723   3.850  0.5207  2.2714 -0.0461
 7312TIP3    H243428   2.318   3.661   3.729  1.5523 -0.2007  0.5803
 7313TIP3   OH243429   1.578   1.962  11.396  0.2421  0.3123 -0.2394
 7313TIP3    H143430   1.636   1.997  11.329  1.0790  0.6246  0.6298
 7313TIP3    H243431   1.594   2.017  11.473  0.3532 -0.9176  0.6539
 7314TIP3   OH243432   3.634   3.399   1.741  0.3782  0.5046 -0.0628
 7314TIP3    H143433   3.544   3.376   1.762 -0.5085  2.7576 -1.1033
 7314TIP3    H243434   3.658   3.341   1.669 -1.3818  1.8694 -1.8539
 7315TIP3   OH243435   3.482   5.718  17.051  0.4647  0.4978  0.3782
 7315TIP3    H143436   3.540   5.713  16.975 -0.5160  0.5872 -0.3935
 7315TIP3    H243437   3.413   5.779  17.025 -0.7089 -0.6176  0.7559
 7316TIP3   OH243438   4.306   3.220   6.703 -0.1333 -0.1605  0.1676
 7316TIP3    H143439   4.268   3.133   6.693 -2.1350  0.6399  0.3410
 7316TIP3    H243440   4.375   3.209   6.769  3.5621 -2.6731 -3.6212
 7317TIP3   OH243441   2.682   0.436  16.430 -0.2449 -0.5993  0.1033
 7317TIP3    H143442   2.752   0.411  16.369 -0.2186  1.3913 -0.7720
 7317TIP3    H243443   2.727   0.454  16.512 -0.1454 -2.2220  0.4499
 7318TIP3   OH243444   5.365   0.464   2.669 -0.2771 -0.1585  0.7077
 7318TIP3    H143445   5.290   0.456   2.728  0.5841 -0.4951  1.7954
 7318TIP3    H243446   5.359   0.386   2.613  0.4223 -1.3680  2.2198
 7319TIP3   OH243447   1.715   0.566   0.022  0.2614  0.3292  0.3944
 7319TIP3    H143448   1.686   0.494   0.077 -0.1857 -1.4943 -2.0807
 7319TIP3    H243449   1.651   0.636   0.038 -0.3327 -0.4522  1.5176
 7320TIP3   OH243450   1.699   1.435   3.178 -0.0427 -0.0423  0.8545
 7320TIP3    H143451   1.692   1.473   3.265 -0.7281  3.1170 -0.4306
 7320TIP3    H243452   1.609   1.428   3.147  0.2110 -0.6273  0.2088
 7321TIP3   OH243453   3.756   4.883   4.772 -0.1773 -0.0778  0.2934
 7321TIP3    H143454   3.704   4.835   4.836 -0.2193 -2.0624 -1.1354
 7321TIP3    H243455   3.729   4.974   4.783  0.7694 -0.1067  3.9142
 7322TIP3   OH243456   3.224   5.725   3.139  0.1106 -0.2653 -0.6555
 7322TIP3    H143457   3.249   5.732   3.231  1.3485 -0.1992 -0.9788
 7322TIP3    H243458   3.129   5.718   3.141  0.0634  0.3731  0.5955
 7323TIP3   OH243459   0.119   4.746   5.780  0.5647 -0.1989  0.2129
 7323TIP3    H143460   0.159   4.714   5.861  0.9734  0.1645  0.1572
 7323TIP3    H243461   0.189   4.795   5.736  0.9831 -2.0487 -1.3369
 7324TIP3   OH243462   0.341   1.701   1.562 -0.0135  0.2728  0.0003
 7324TIP3    H143463   0.307   1.629   1.509 -3.2645  1.8905 -0.3760
 7324TIP3    H243464   0.390   1.658   1.632 -1.9529 -2.3444 -0.1007
 7325TIP3   OH243465   0.412   5.872  12.909 -0.1954  0.2556 -0.1857
 7325TIP3    H143466   0.388   5.821  12.987  2.3260 -1.2935 -0.3119
 7325TIP3    H243467   0.336   5.865  12.852 -1.2117 -0.5559  1.1962
 7326TIP3   OH243468   5.581   3.704   5.591  0.1130 -0.3008 -0.2610
 7326TIP3    H143469   5.499   3.658   5.575  0.5023 -1.3231  0.5138
 7326TIP3    H243470   5.599   3.752   5.511 -0.3031 -1.5569 -1.1336
 7327TIP3   OH243471   3.887   0.737   3.382  0.0328 -0.2544 -0.3734
 7327TIP3    H143472   3.830   0.765   3.311 -0.0107  0.6777  0.0107
 7327TIP3    H243473   3.899   0.643   3.368 -0.3381 -0.1711 -1.3440
 7328TIP3   OH243474   0.586   0.780  14.045 -0.6868 -0.4477 -1.0123
 7328TIP3    H143475   0.509   0.787  14.102 -0.2608  0.4142 -0.5348
 7328TIP3    H243476   0.574   0.849  13.980 -1.8511 -2.2657 -2.8400
 7329TIP3   OH243477   6.627   4.616   5.752  0.4066 -0.1749 -0.0795
 7329TIP3    H143478   6.703   4.670   5.775  1.0035 -1.7004  1.8439
 7329TIP3    H243479   6.639   4.536   5.802 -2.4180 -0.5345  0.1991
 7330TIP3   OH243480   0.899   4.698   4.029 -0.0763  0.5036  0.5627
 7330TIP3    H143481   0.819   4.652   4.007 -0.7253  0.1845  3.2211
 7330TIP3    H243482   0.964   4.629   4.043 -0.2730  0.5224  1.6879
 7331TIP3   OH243483   1.672   6.602   2.578  0.3666  0.2630  0.1957
 7331TIP3    H143484   1.590   6.644   2.605  0.4280  0.4447  0.1034
 7331TIP3    H243485   1.684   6.630   2.487  0.5553  0.2749  0.2239
 7332TIP3   OH243486   1.787   5.918  14.098  0.3831 -0.2451 -0.1740
 7332TIP3    H143487   1.699   5.929  14.133 -0.3148 -0.9925 -1.5977
 7332TIP3    H243488   1.816   6.007  14.078 -2.1009 -0.1256 -4.3248
 7333TIP3   OH243489   1.444   2.441   0.396  0.5303  0.0994  0.0075
 7333TIP3    H143490   1.523   2.419   0.347  0.3561 -0.4084 -0.0429
 7333TIP3    H243491   1.373   2.396   0.351 -0.0592  1.9259 -0.9695
 7334TIP3   OH243492   3.518   5.433  13.988 -0.7755 -1.4436  0.4481
 7334TIP3    H143493   3.551   5.401  14.072 -0.4888  1.9006  1.7650
 7334TIP3    H243494   3.439   5.482  14.010 -1.1988 -1.2360 -1.3725
 7335TIP3   OH243495   4.961   0.005  16.937 -0.3046  0.1579 -0.1043
 7335TIP3    H143496   4.865   0.013  16.944 -0.1676  0.8319  1.8411
 7335TIP3    H243497   4.989  -0.010  17.027  1.5273  1.3513 -0.4302
 7336TIP3   OH243498   1.418   3.622  12.424  0.1411  0.1259  0.1384
 7336TIP3    H143499   1.360   3.691  12.456 -0.3650  0.0545 -0.5954
 7336TIP3    H243500   1.361   3.561  12.378  0.8813  0.5753 -1.4843
 7337TIP3   OH243501   2.767   0.981  11.647  0.0551 -0.2887  0.3379
 7337TIP3    H143502   2.764   1.018  11.558 -0.4049 -0.5395  0.2492
 7337TIP3    H243503   2.675   0.966  11.670  0.0838  0.9163  1.3333
 7338TIP3   OH243504   3.360   3.162  11.753 -0.5669 -0.1128  0.4472
 7338TIP3    H143505   3.453   3.181  11.762 -0.5434 -0.6675  1.4504
 7338TIP3    H243506   3.339   3.106  11.828 -2.0940  1.4488  1.2646
 7339TIP3   OH243507   6.308   1.692  16.651  0.3234 -0.1600 -0.9018
 7339TIP3    H143508   6.351   1.742  16.720  0.8780 -1.0248 -0.6024
 7339TIP3    H243509   6.268   1.618  16.696 -0.2511 -0.1450 -1.3715
 7340TIP3   OH243510   6.079   3.221   3.604 -0.7384  0.1751 -0.0708
 7340TIP3    H143511   6.170   3.195   3.620 -0.9537 -0.6904 -0.1910
 7340TIP3    H243512   6.047   3.248   3.690  0.0140  1.8214 -0.2565
 7341TIP3   OH243513   4.158   2.996   3.200 -0.1645  0.1546  0.2368
 7341TIP3    H143514   4.139   3.072   3.145  0.3813  1.2729  1.5372
 7341TIP3    H243515   4.072   2.957   3.218 -0.2767 -1.0615 -2.4430
 7342TIP3   OH243516   4.032   5.006  15.140  0.0233 -0.8873 -0.4127
 7342TIP3    H143517   3.998   5.018  15.229  0.1345 -0.8519 -0.3744
 7342TIP3    H243518   3.988   5.073  15.088 -0.9872 -1.7145 -0.6472
 7343TIP3   OH243519   6.204   1.424  13.863 -1.2490  0.6333  0.4287
 7343TIP3    H143520   6.271   1.481  13.825  0.1102 -0.4478  1.1121
 7343TIP3    H243521   6.223   1.338  13.827 -1.0182 -0.0677  2.1350
 7344TIP3   OH243522   4.908   2.845  11.895  0.4003  0.0513  0.1839
 7344TIP3    H143523   4.962   2.924  11.905  0.1230 -0.0015  3.1629
 7344TIP3    H243524   4.971   2.776  11.877  0.6514  0.8595 -2.4782
 7345TIP3   OH243525   3.586   1.461   3.857  0.0187 -0.7332 -0.5135
 7345TIP3    H143526   3.578   1.376   3.815  1.4293 -0.6886 -0.9254
 7345TIP3    H243527   3.645   1.511   3.800  0.2569  0.0677  0.4043
 7346TIP3   OH243528   4.911   0.581  14.694  0.3148 -0.3137 -0.1559
 7346TIP3    H143529   4.843   0.592  14.761  1.2969  2.4180  0.5330
 7346TIP3    H243530   4.974   0.522  14.734  0.2032  0.1832  0.7835
 7347TIP3   OH243531   2.605   2.086   0.833  0.1990 -0.1272 -0.4990
 7347TIP3    H143532   2.538   2.034   0.878 -0.0826  0.6941  0.0573
 7347TIP3    H243533   2.683   2.030   0.832 -0.6274 -1.3053 -1.6227
 7348TIP3   OH243534   0.381   2.149   5.254  0.0564  0.9021  0.2441
 7348TIP3    H143535   0.322   2.112   5.188  1.6163  1.1137 -1.3725
 7348TIP3    H243536   0.324   2.178   5.324 -1.6779  0.3939 -0.8884
 7349TIP3   OH243537   1.635   3.892  15.532 -0.4099 -0.2799  0.2720
 7349TIP3    H143538   1.602   3.969  15.579  1.6784  0.9486 -0.1399
 7349TIP3    H243539   1.618   3.912  15.440 -0.6326 -0.7243  0.2143
 7350TIP3   OH243540   6.029   1.473   0.035 -0.2984  0.1007 -0.1368
 7350TIP3    H143541   6.045   1.383   0.063  0.3617  0.2386 -0.0594
 7350TIP3    H243542   5.995   1.518   0.113 -1.1937 -0.2201 -0.3309
 7351TIP3   OH243543   6.077   1.191   2.765 -0.3543  0.2524  0.0987
 7351TIP3    H143544   6.021   1.264   2.738  0.2856  0.0753 -1.8157
 7351TIP3    H243545   6.152   1.232   2.808 -1.0218  0.5871  0.9605
 7352TIP3   OH243546   6.109   0.146  10.891  0.2624 -0.8948 -0.4015
 7352TIP3    H143547   6.053   0.146  10.814  3.8704 -1.3007 -3.3248
 7352TIP3    H243548   6.050   0.123  10.963 -3.0426 -2.5773 -3.2880
 7353TIP3   OH243549   4.409   6.545   2.671 -0.4615 -0.1697 -0.0154
 7353TIP3    H143550   4.482   6.497   2.709 -0.0632  0.3385 -0.1291
 7353TIP3    H243551   4.409   6.629   2.717 -0.4580  0.1491 -0.5900
 7354TIP3   OH243552   5.558   6.413  14.722 -0.0403 -0.2094  0.3849
 7354TIP3    H143553   5.630   6.354  14.742 -0.1777  0.5266  3.5301
 7354TIP3    H243554   5.484   6.355  14.705  0.8216 -0.9383 -1.0505
 7355TIP3   OH243555   4.093   2.129  16.854  0.1354  0.2077 -0.2422
 7355TIP3    H143556   4.151   2.203  16.868 -1.5765  2.1601 -2.7071
 7355TIP3    H243557   4.068   2.134  16.762 -2.5624 -1.5509  0.2678
 7356TIP3   OH243558   0.403   3.839  14.454 -0.1135  0.0939 -0.4580
 7356TIP3    H143559   0.370   3.915  14.406  0.6016 -0.2241 -1.4881
 7356TIP3    H243560   0.331   3.812  14.511  0.0095  2.2427  0.8233
 7357TIP3   OH243561   6.657   3.777   1.285 -0.1892 -0.0662 -0.1612
 7357TIP3    H143562   6.728   3.788   1.222 -0.3314  1.7336 -0.0620
 7357TIP3    H243563   6.623   3.689   1.268  1.1700 -0.4392 -1.1204
 7358TIP3   OH243564   2.841   6.453  11.222 -0.1160  0.5243  0.3921
 7358TIP3    H143565   2.829   6.541  11.185 -1.3368  0.9675  1.7455
 7358TIP3    H243566   2.786   6.397  11.168  1.2268  0.4348 -0.9328
 7359TIP3   OH243567   4.920   1.808  14.751  0.4609  0.0552 -0.1005
 7359TIP3    H143568   4.915   1.845  14.839 -0.3359 -2.3685  0.9660
 7359TIP3    H243569   4.989   1.858  14.708  1.0577  1.1432  1.9759
 7360TIP3   OH243570   3.375   3.131  15.094  0.1826  0.1265 -0.2553
 7360TIP3    H143571   3.303   3.099  15.039  1.7880 -0.8788 -1.8913
 7360TIP3    H243572   3.408   3.052  15.138 -0.4957  0.7835  1.5341
 7361TIP3   OH243573   0.150   6.061   3.973 -0.0012 -0.4422  0.0442
 7361TIP3    H143574   0.242   6.085   3.980  0.2263 -1.5274  1.0981
 7361TIP3    H243575   0.115   6.078   4.060 -1.1069  1.0305 -0.6299
 7362TIP3   OH243576   4.722   4.608  16.790 -0.2560  0.3532  0.5033
 7362TIP3    H143577   4.726   4.601  16.695  0.2570 -0.0541  0.5518
 7362TIP3    H243578   4.628   4.605  16.810 -0.3092 -1.2880  0.1231
 7363TIP3   OH243579   4.100   6.057  13.285 -1.0155 -0.1051  0.1078
 7363TIP3    H143580   4.076   5.984  13.342 -1.8502 -0.0785 -0.1927
 7363TIP3    H243581   4.076   6.028  13.197 -1.9755  0.7675  0.0566
 7364TIP3   OH243582   3.818   6.314  14.461 -0.4198  0.8947  0.2190
 7364TIP3    H143583   3.835   6.263  14.540 -1.3916  0.2277  0.0179
 7364TIP3    H243584   3.800   6.403  14.494 -1.1374  0.5527  0.7801
 7365TIP3   OH243585   2.647   3.620   0.743 -0.3035  0.6186 -0.4254
 7365TIP3    H143586   2.562   3.588   0.715 -1.0544  2.2362 -0.1245
 7365TIP3    H243587   2.635   3.645   0.834  1.2324 -1.5454  0.4571
 7366TIP3   OH243588   1.205   0.894   5.461 -0.2330  0.1512 -0.2003
 7366TIP3    H143589   1.224   0.908   5.554 -0.6874 -0.2795 -0.0344
 7366TIP3    H243590   1.138   0.960   5.441 -2.3053 -1.5908  0.5562
 7367TIP3   OH243591   0.323   4.445   0.909 -0.0469  0.1466  0.2925
 7367TIP3    H143592   0.329   4.512   0.977 -0.4236  0.4239  0.0541
 7367TIP3    H243593   0.414   4.421   0.891  0.1463  1.1499 -0.1712
 7368TIP3   OH243594   0.319   1.007   1.127  0.0646 -0.4175  0.6994
 7368TIP3    H143595   0.369   0.973   1.201 -0.6545 -2.0653  0.4755
 7368TIP3    H243596   0.296   1.097   1.152 -0.2315 -0.9671  2.5188
 7369TIP3   OH243597   3.790   5.873   0.029 -0.5090 -0.9542  0.2497
 7369TIP3    H143598   3.747   5.908  -0.049 -0.2022 -0.3318  0.3482
 7369TIP3    H243599   3.849   5.806  -0.004  2.7171  2.0483 -0.6084
 7370TIP3   OH243600   4.416   2.327  13.256  0.0312  0.3753 -0.3554
 7370TIP3    H143601   4.405   2.297  13.166 -2.5586 -1.3027  0.4137
 7370TIP3    H243602   4.395   2.250  13.310  0.7746  1.5253  1.6980
 7371TIP3   OH243603   2.152   1.466  10.720  0.0774  0.2242  0.1463
 7371TIP3    H143604   2.196   1.536  10.768  0.2077 -0.0920  0.4908
 7371TIP3    H243605   2.083   1.510  10.672 -0.4033  0.4851  1.0444
 7372TIP3   OH243606   4.385   6.104   0.698  0.6983 -0.1274 -0.2414
 7372TIP3    H143607   4.327   6.078   0.627  0.5869 -0.4963 -0.0219
 7372TIP3    H243608   4.469   6.125   0.656  0.9906 -1.4727 -0.3718
 7373TIP3   OH243609   6.602   2.597  14.542  0.0404 -0.1976  0.2635
 7373TIP3    H143610   6.577   2.546  14.619  1.7417 -1.2950  0.1424
 7373TIP3    H243611   6.561   2.682  14.555 -0.4789 -0.6690  1.9106
 7374TIP3   OH243612   4.569   3.931  13.327 -0.1150  0.3099 -0.5973
 7374TIP3    H143613   4.623   4.005  13.358 -1.0816  0.3087  1.2593
 7374TIP3    H243614   4.479   3.959  13.342 -0.5400 -0.7474 -1.0937
 7375TIP3   OH243615   6.239   1.854   0.565 -0.5196 -0.3131 -0.3546
 7375TIP3    H143616   6.301   1.862   0.493  0.4615 -1.3852  0.3487
 7375TIP3    H243617   6.264   1.773   0.610 -2.9920 -1.3271 -0.5928
 7376TIP3   OH243618   0.577   4.428  12.453 -0.1756  0.2760 -0.2794
 7376TIP3    H143619   0.569   4.516  12.417  1.9937  0.8930  0.5941
 7376TIP3    H243620   0.577   4.441  12.548 -1.6986 -0.9041 -0.0636
 7377TIP3   OH243621   1.004   3.951  13.405 -0.9473 -1.0364  0.3005
 7377TIP3    H143622   0.998   3.973  13.312  0.2751  1.5806  0.7468
 7377TIP3    H243623   0.937   4.006  13.447  0.6661  0.3048  1.2526
 7378TIP3   OH243624   5.524   4.280   4.659  0.1013 -0.7011 -0.3981
 7378TIP3    H143625   5.450   4.221   4.646  0.2252 -0.6526 -1.4609
 7378TIP3    H243626   5.526   4.297   4.753 -0.1806 -2.0690 -0.1186
 7379TIP3   OH243627   2.911   6.368   4.801 -0.1369 -0.2427 -0.4500
 7379TIP3    H143628   2.961   6.416   4.868 -0.8695 -0.1771  0.0652
 7379TIP3    H243629   2.820   6.387   4.822 -0.3764 -0.2842 -1.4385
 7380TIP3   OH243630   6.399   3.959   1.444 -0.0675 -0.1849 -0.4245
 7380TIP3    H143631   6.454   3.903   1.499 -0.9967 -0.4222  0.2927
 7380TIP3    H243632   6.403   3.919   1.357 -1.0777 -1.6830  0.1699
 7381TIP3   OH243633   2.496   2.911   3.218 -0.3104  0.7593 -0.3709
 7381TIP3    H143634   2.549   2.924   3.139  0.8585 -0.9184  0.0936
 7381TIP3    H243635   2.554   2.935   3.290  0.0169 -1.3972  0.1646
 7382TIP3   OH243636   0.388   1.926  17.171 -0.5052  0.1504 -0.0891
 7382TIP3    H143637   0.350   1.872  17.102 -0.6602  0.2611 -0.0914
 7382TIP3    H243638   0.452   1.981  17.125  1.5326 -1.7922  0.2933
 7383TIP3   OH243639   2.734   3.910   4.834  0.0126  0.1964  0.2702
 7383TIP3    H143640   2.715   3.846   4.765 -0.5880 -1.1260  1.5995
 7383TIP3    H243641   2.736   3.994   4.789  1.1835 -0.7719 -1.6117
 7384TIP3   OH243642   5.924   4.434   3.792  0.3690 -0.0983  0.2326
 7384TIP3    H143643   6.016   4.460   3.795  0.1785  0.6718 -0.2682
 7384TIP3    H243644   5.914   4.372   3.864  0.7904  1.4638  1.7188
 7385TIP3   OH243645   6.577   1.801   0.761  0.6697  0.2393  0.3043
 7385TIP3    H143646   6.554   1.805   0.668 -0.3402 -1.2069  0.4569
 7385TIP3    H243647   6.661   1.755   0.764 -0.0078 -1.0643  0.1633
 7386TIP3   OH243648   6.363   6.002  17.065  0.3021  0.1791 -0.0191
 7386TIP3    H143649   6.284   6.039  17.105 -1.2329 -1.2822 -1.5552
 7386TIP3    H243650   6.350   6.013  16.971  1.7835 -0.3912 -0.3154
 7387TIP3   OH243651   0.408   4.505  11.314  0.3473  0.4755 -0.0200
 7387TIP3    H143652   0.328   4.557  11.304 -0.4158 -0.8648 -1.1753
 7387TIP3    H243653   0.418   4.495  11.408 -1.2103  0.1292  0.1355
 7388TIP3   OH243654   1.255   1.647  15.299 -0.0251  0.2730 -0.3367
 7388TIP3    H143655   1.318   1.610  15.236 -0.2977  0.3819 -0.6739
 7388TIP3    H243656   1.242   1.577  15.363  0.0599  0.0698 -0.5384
 7389TIP3   OH243657   0.976   0.627   4.549 -0.0657  0.5983 -0.0146
 7389TIP3    H143658   0.941   0.716   4.555 -0.3138  0.4536  0.7030
 7389TIP3    H243659   0.931   0.578   4.618  0.4041  0.0260 -0.1041
 7390TIP3   OH243660   2.255   4.218  11.697  0.2033 -0.4030 -0.3248
 7390TIP3    H143661   2.196   4.220  11.772 -0.7416  0.2409 -1.0733
 7390TIP3    H243662   2.259   4.125  11.673  1.0366 -0.7160  0.8990
 7391TIP3   OH243663   5.060   0.477  11.545  0.3355  0.0739  0.1124
 7391TIP3    H143664   5.002   0.511  11.613  0.8422  0.0167  0.5874
 7391TIP3    H243665   5.064   0.547  11.480 -0.9784 -0.2862 -0.3859
 7392TIP3   OH243666   6.533   4.020   1.697  0.3409 -0.6898  0.0802
 7392TIP3    H143667   6.566   3.934   1.669  0.9706 -0.8515  1.2383
 7392TIP3    H243668   6.570   4.081   1.634  2.2908 -0.9649  0.8805
 7393TIP3   OH243669   6.107   6.310  10.928 -0.0270  0.0685 -0.0023
 7393TIP3    H143670   6.043   6.240  10.912  0.2530  0.0501 -1.1446
 7393TIP3    H243671   6.057   6.390  10.913 -0.1639  0.1045  0.6105
 7394TIP3   OH243672   0.244   1.117   4.244  0.1289 -0.1320 -0.2291
 7394TIP3    H143673   0.263   1.174   4.170  0.9928 -0.4272 -0.2412
 7394TIP3    H243674   0.207   1.176   4.310  1.2361  0.4999 -0.1485
 7395TIP3   OH243675   2.450   1.480   0.177  0.0386 -0.0108  0.0006
 7395TIP3    H143676   2.460   1.546   0.246 -0.6886 -0.2399  0.3400
 7395TIP3    H243677   2.477   1.525   0.097 -2.8795  1.6277 -0.2225
 7396TIP3   OH243678   3.732   0.615   5.198  0.1003 -0.2633 -0.1362
 7396TIP3    H143679   3.669   0.662   5.253 -0.2098  0.1734 -0.8499
 7396TIP3    H243680   3.787   0.567   5.260  0.3845  0.9820  0.6004
 7397TIP3   OH243681   2.936   0.775  15.612  0.3415  0.2516  0.1752
 7397TIP3    H143682   2.925   0.764  15.517  1.2538 -0.5051  0.1489
 7397TIP3    H243683   2.965   0.866  15.623  0.5922  0.2297 -0.2998
 7398TIP3   OH243684   5.649   4.133   0.772  0.6926  0.0286  0.2543
 7398TIP3    H143685   5.566   4.086   0.758 -2.1894  4.5043  0.1423
 7398TIP3    H243686   5.648   4.157   0.865  3.8050 -2.7327  1.1705
 7399TIP3   OH243687   6.183   2.197  13.301 -0.1438 -0.2928  0.4651
 7399TIP3    H143688   6.161   2.284  13.268  0.0254 -0.2488  0.4688
 7399TIP3    H243689   6.177   2.204  13.396 -0.3057 -0.3325  0.4576
 7400TIP3   OH243690   4.666   3.392   0.640 -0.4961  0.2103  0.1948
 7400TIP3    H143691   4.740   3.373   0.581 -0.2601  0.0853  0.5274
 7400TIP3    H243692   4.650   3.486   0.627 -0.3944  0.2013 -0.0105
 7401TIP3   OH243693   2.862   4.242  16.221 -0.5665  0.6240  0.2953
 7401TIP3    H143694   2.843   4.307  16.153 -1.3084 -1.3558 -1.4843
 7401TIP3    H243695   2.782   4.237  16.273 -1.6554 -0.9331 -1.4144
 7402TIP3   OH243696   2.358   2.647   0.752 -0.1582 -0.0907  0.6589
 7402TIP3    H143697   2.397   2.687   0.674 -2.7479  0.1978 -0.6128
 7402TIP3    H243698   2.270   2.685   0.756 -0.4755 -0.9370  3.1206
 7403TIP3   OH243699   4.678   4.984  17.662  0.2519  0.4370  0.1884
 7403TIP3    H143700   4.711   4.901  17.694 -0.3814 -0.2647 -0.9172
 7403TIP3    H243701   4.720   4.996  17.577 -1.5688 -0.0276 -0.8315
 7404TIP3   OH243702   4.634   1.350  16.169  0.4587 -0.0326  0.2564
 7404TIP3    H143703   4.712   1.365  16.223  1.0843 -0.7871 -0.4227
 7404TIP3    H243704   4.614   1.257  16.180  1.0646 -0.3946 -1.3962
 7405TIP3   OH243705   4.183   1.543  13.067  0.0831  0.4127 -0.4259
 7405TIP3    H143706   4.236   1.585  13.135  0.2073  0.0125 -0.2700
 7405TIP3    H243707   4.229   1.562  12.985  0.1154  0.6154 -0.3605
 7406TIP3   OH243708   0.771   3.338  14.545  0.3927 -0.0899  0.2311
 7406TIP3    H143709   0.807   3.411  14.496  1.3071 -2.1320 -2.4031
 7406TIP3    H243710   0.677   3.355  14.550  0.6624  1.5003  0.2053
 7407TIP3   OH243711   2.285   2.618   5.923  0.0066  0.0033 -0.3806
 7407TIP3    H143712   2.221   2.655   5.985 -1.1651 -2.0120 -0.3013
 7407TIP3    H243713   2.240   2.620   5.839  0.9534  1.1599 -0.8842
 7408TIP3   OH243714   6.240   4.322   2.350 -0.8586 -0.4502 -0.0235
 7408TIP3    H143715   6.257   4.246   2.405 -1.6687  1.0524  2.4821
 7408TIP3    H243716   6.323   4.370   2.350 -0.9977 -0.2064  0.3138
 7409TIP3   OH243717   5.419   0.227  11.605 -0.2295  0.3126  0.0888
 7409TIP3    H143718   5.373   0.287  11.665 -2.2129 -1.2124  0.2356
 7409TIP3    H243719   5.350   0.167  11.576  1.8455 -2.7886  1.0801
 7410TIP3   OH243720   0.948   2.658   1.189 -0.2291  0.1008  0.1320
 7410TIP3    H143721   0.905   2.742   1.173  0.5650  0.9157  1.9954
 7410TIP3    H243722   0.891   2.613   1.251  0.4003  0.1831  0.7789
 7411TIP3   OH243723   0.058   5.593   2.857  0.0347  0.4471 -0.0632
 7411TIP3    H143724   0.024   5.682   2.858 -0.4224  0.2712  0.5629
 7411TIP3    H243725   0.084   5.577   2.948  0.4598  0.0711 -0.2465
 7412TIP3   OH243726   3.217   3.598   6.468  0.5464  0.0945 -0.3567
 7412TIP3    H143727   3.154   3.528   6.487 -0.8300  1.2257 -0.5542
 7412TIP3    H243728   3.271   3.563   6.397  1.0840 -1.4350  0.7476
 7413TIP3   OH243729   2.316   1.936  17.269  0.5400 -0.1861  0.2690
 7413TIP3    H143730   2.230   1.972  17.291 -0.5165 -0.8116 -2.4241
 7413TIP3    H243731   2.303   1.841  17.274  0.6585 -0.3115 -1.4003
 7414TIP3   OH243732   1.523   3.705   0.276  0.4222  0.0754  0.2204
 7414TIP3    H143733   1.452   3.766   0.298 -0.0831 -0.4275  0.0141
 7414TIP3    H243734   1.599   3.737   0.326  0.0666  0.6480  0.4066
 7415TIP3   OH243735   0.499   6.528   2.040 -0.1604  0.2760  0.0468
 7415TIP3    H143736   0.544   6.611   2.025 -0.2235  0.4464  0.7361
 7415TIP3    H243737   0.415   6.537   1.996  0.5294 -0.1080 -1.3971
 7416TIP3   OH243738   5.652   2.786   3.120 -0.2558  0.0547 -0.2496
 7416TIP3    H143739   5.700   2.720   3.071  0.2109  1.4922 -1.8237
 7416TIP3    H243740   5.586   2.737   3.170 -0.4973 -1.5179 -2.0233
 7417TIP3   OH243741   4.329   0.236   2.091 -0.1299 -0.1452 -0.2707
 7417TIP3    H143742   4.329   0.287   2.172  0.6778  0.7846 -0.8304
 7417TIP3    H243743   4.273   0.286   2.031  1.0794  0.4017 -0.9903
 7418TIP3   OH243744   6.422   3.858   2.480 -0.2765  0.1579 -0.2051
 7418TIP3    H143745   6.348   3.861   2.419 -0.8844  1.6769  0.5693
 7418TIP3    H243746   6.498   3.885   2.427 -0.6091  0.4270 -0.5467
 7419TIP3   OH243747   1.691   4.930   2.360  0.5216 -0.2846 -0.4352
 7419TIP3    H143748   1.599   4.910   2.373  0.5243  0.0783  0.1951
 7419TIP3    H243749   1.738   4.859   2.405  0.5504 -0.3980 -0.6430
 7420TIP3   OH243750   5.899   2.544   1.920 -0.6574 -0.2311 -0.0463
 7420TIP3    H143751   5.807   2.553   1.895 -0.3445  0.3176 -1.0415
 7420TIP3    H243752   5.944   2.615   1.876  0.3149 -0.7165  0.1171
 7421TIP3   OH243753   0.733   5.416   1.656  0.2214  0.8382  0.0234
 7421TIP3    H143754   0.796   5.396   1.586  0.9955  0.7172  0.7424
 7421TIP3    H243755   0.757   5.357   1.727  0.2967  1.8892  0.8846
 7422TIP3   OH243756   0.104   1.951   3.338 -0.7981  0.4692  0.4213
 7422TIP3    H143757   0.041   1.946   3.410 -1.7162  1.2861 -0.3074
 7422TIP3    H243758   0.059   1.912   3.264  0.2779 -0.6998  0.3501
 7423TIP3   OH243759   3.566   1.058  11.998  0.0537  0.0975  0.1392
 7423TIP3    H143760   3.508   1.093  11.930 -1.7673  0.3138  1.7114
 7423TIP3    H243761   3.508   1.042  12.073  1.7322 -1.4521  1.1934
 7424TIP3   OH243762   6.374   5.734  16.508  0.2709 -0.8291 -0.1232
 7424TIP3    H143763   6.412   5.741  16.595  0.2302  0.9700 -0.2304
 7424TIP3    H243764   6.282   5.714  16.523  0.2420 -0.4142  0.2353
 7425TIP3   OH243765   6.363   0.065   5.334 -0.3293 -0.5789  0.4989
 7425TIP3    H143766   6.405   0.093   5.415 -0.6465  1.3741  0.0447
 7425TIP3    H243767   6.435   0.055   5.272 -0.2291 -0.3364  0.5714
 7426TIP3   OH243768   2.430   4.553   6.001 -0.6250  0.3319  0.0009
 7426TIP3    H143769   2.355   4.596   5.959 -0.0394  0.7123 -0.6891
 7426TIP3    H243770   2.484   4.523   5.927  0.2704  0.7257  0.4816
 7427TIP3   OH243771   3.645   0.936   4.800  0.1534 -0.3214 -0.1239
 7427TIP3    H143772   3.552   0.925   4.823 -0.4961  1.9320 -1.4527
 7427TIP3    H243773   3.663   0.864   4.739 -0.8355 -0.4958 -0.2254
 7428TIP3   OH243774   1.831   4.457  12.235  0.4845 -0.1176 -0.4291
 7428TIP3    H143775   1.831   4.429  12.326 -0.8758  1.6092  0.1744
 7428TIP3    H243776   1.741   4.439  12.205  0.6986  0.0397 -1.1830
 7429TIP3   OH243777   2.080   6.294  17.184 -0.2712  0.0632  0.3195
 7429TIP3    H143778   2.040   6.362  17.238 -0.7803 -0.0243  0.0483
 7429TIP3    H243779   2.167   6.328  17.164 -0.0676  0.0996  1.1969
 7430TIP3   OH243780   2.614   6.574  17.064 -0.4735  0.3002  0.4878
 7430TIP3    H143781   2.585   6.508  17.000 -1.2268 -2.1704  3.1522
 7430TIP3    H243782   2.703   6.547  17.087  0.9008  2.8003 -1.3470
 7431TIP3   OH243783   1.937   1.760   0.484 -0.5228 -0.0912 -1.3202
 7431TIP3    H143784   1.940   1.787   0.392  1.6529 -0.3842 -1.3944
 7431TIP3    H243785   1.955   1.666   0.482  0.6157  0.0937 -0.5494
 7432TIP3   OH243786   1.238   1.570  10.904  0.1945 -0.5114 -0.2826
 7432TIP3    H143787   1.247   1.479  10.875 -0.4425 -0.6876  0.0565
 7432TIP3    H243788   1.151   1.574  10.942 -0.4316  0.6779 -1.7738
 7433TIP3   OH243789   0.614   0.434   4.504  0.7359  0.0855 -0.4220
 7433TIP3    H143790   0.649   0.520   4.527 -2.0917  1.3868 -0.6611
 7433TIP3    H243791   0.637   0.423   4.412  0.7068  0.8184 -0.5256
 7434TIP3   OH243792   2.718   4.420   2.948  0.0784  0.9544  0.7129
 7434TIP3    H143793   2.790   4.416   3.011  0.9132  0.5508 -0.2395
 7434TIP3    H243794   2.754   4.467   2.873 -0.4117  0.1127 -0.0786
 7435TIP3   OH243795   1.756   3.794  13.886 -0.1677  0.2517 -0.2918
 7435TIP3    H143796   1.675   3.770  13.931  0.5231  0.1941  0.9822
 7435TIP3    H243797   1.740   3.882  13.852 -0.6923  0.3333  0.1460
 7436TIP3   OH243798   2.175   1.735   6.638 -0.1421 -0.1659 -0.2476
 7436TIP3    H143799   2.268   1.714   6.652 -0.3126 -1.3267 -0.7968
 7436TIP3    H243800   2.172   1.831   6.640  0.7737 -0.1198  1.6390
 7437TIP3   OH243801   4.573   1.882  16.681 -0.6254 -0.0721  0.1288
 7437TIP3    H143802   4.605   1.971  16.696 -0.9062 -0.0907  0.8448
 7437TIP3    H243803   4.527   1.888  16.597 -0.8051  0.4991  0.2647
 7438TIP3   OH243804   0.179   6.087   4.447  0.1786 -0.1879 -0.1488
 7438TIP3    H143805   0.141   6.129   4.370 -0.4718  1.8412  1.1823
 7438TIP3    H243806   0.244   6.026   4.413  0.3361  1.0914 -2.2633
 7439TIP3   OH243807   3.245   3.780   3.921 -0.3051  0.5135 -0.0713
 7439TIP3    H143808   3.299   3.834   3.864  0.1587  0.3558  0.2193
 7439TIP3    H243809   3.180   3.841   3.956  0.6172  1.0353  0.7731
 7440TIP3   OH243810   1.875   2.054  14.546  0.0628 -0.0846  0.3746
 7440TIP3    H143811   1.902   1.977  14.496 -1.7090 -0.0593 -0.6828
 7440TIP3    H243812   1.784   2.038  14.569  0.5148  0.3588  2.8321
 7441TIP3   OH243813   5.007   4.770  15.414  0.1019  0.3748  0.1515
 7441TIP3    H143814   5.000   4.752  15.508  0.2636  0.8641  0.2622
 7441TIP3    H243815   4.943   4.712  15.373 -1.2976  1.4639  0.7195
 7442TIP3   OH243816   5.358   4.810   1.446 -0.1256  0.0469  0.2525
 7442TIP3    H143817   5.274   4.765   1.450  1.4577 -3.1510  0.9767
 7442TIP3    H243818   5.376   4.820   1.352 -0.4962 -0.9333  0.0733
 7443TIP3   OH243819   5.642   2.113   3.493 -0.0794  0.5578  0.3277
 7443TIP3    H143820   5.722   2.108   3.441  0.1958 -3.2242  0.7929
 7443TIP3    H243821   5.673   2.104   3.584 -0.9134  1.6869  0.7440
 7444TIP3   OH243822   5.410   6.709  14.071 -0.4209  0.2095 -0.5375
 7444TIP3    H143823   5.484   6.768  14.058  0.3072 -0.3341  0.9651
 7444TIP3    H243824   5.391   6.715  14.164 -1.1575 -0.9744 -0.5989
 7445TIP3   OH243825   3.568   1.406   4.263  0.4210 -0.3635 -0.5351
 7445TIP3    H143826   3.483   1.450   4.260 -0.0752 -1.0465  1.7323
 7445TIP3    H243827   3.568   1.349   4.187 -0.1879  1.2579 -1.8144
 7446TIP3   OH243828   5.921   1.407  11.891  0.1082  0.2335 -0.5281
 7446TIP3    H143829   5.890   1.345  11.825  1.4731 -1.5941  0.4415
 7446TIP3    H243830   5.845   1.426  11.945 -0.5223  0.0446 -1.3416
 7447TIP3   OH243831   5.088   0.714  15.690 -0.3753 -0.4666 -0.5615
 7447TIP3    H143832   5.035   0.719  15.770  1.2508 -0.5343  0.5711
 7447TIP3    H243833   5.037   0.660  15.630 -0.5971 -2.5078  1.3259
 7448TIP3   OH243834   6.290   4.753  17.450 -0.1745  0.1840 -0.0357
 7448TIP3    H143835   6.209   4.759  17.500  0.9437  2.8918  1.6779
 7448TIP3    H243836   6.268   4.791  17.364 -0.8566  0.3036  0.1826
 7449TIP3   OH243837   4.037   5.528   0.377  0.3164  0.5517  0.5263
 7449TIP3    H143838   4.053   5.477   0.298 -1.4168 -0.8490  1.0034
 7449TIP3    H243839   3.951   5.569   0.362 -0.5257 -0.5436  2.0151
 7450TIP3   OH243840   3.976   6.090  15.212 -0.0547 -0.0784 -0.1422
 7450TIP3    H143841   4.004   6.001  15.192 -0.8074 -0.9105  2.1291
 7450TIP3    H243842   3.880   6.086  15.208 -0.1259  0.3845  0.7659
 7451TIP3   OH243843   2.656   4.646  15.671 -0.2093 -0.2244  0.1458
 7451TIP3    H143844   2.584   4.688  15.624  0.4454  0.6728 -0.0976
 7451TIP3    H243845   2.718   4.717  15.687  0.7913 -1.0393  0.0075
 7452TIP3   OH243846   1.625   0.828  11.077  0.0572 -0.6519  0.4065
 7452TIP3    H143847   1.715   0.799  11.064  0.4441  1.0858 -1.3028
 7452TIP3    H243848   1.594   0.849  10.989 -2.0852 -1.3394  0.9372
 7453TIP3   OH243849   4.574   0.507   3.157 -0.2494  0.0143 -0.1981
 7453TIP3    H143850   4.638   0.470   3.218  0.8707  1.6201 -0.3619
 7453TIP3    H243851   4.501   0.533   3.213  1.2899  2.6557  0.7375
 7454TIP3   OH243852   6.544   1.632   3.165  0.0620 -0.4885  0.3235
 7454TIP3    H143853   6.449   1.623   3.157 -0.1151  0.4270  1.1161
 7454TIP3    H243854   6.556   1.724   3.190  1.1065 -0.8133  1.0421
 7455TIP3   OH243855   0.030   0.104  12.746  0.4068  0.9263  0.4134
 7455TIP3    H143856  -0.025   0.056  12.808 -1.4563  2.2124 -0.1637
 7455TIP3    H243857   0.114   0.115  12.792 -0.3575  0.3728  2.0129
 7456TIP3   OH243858   0.592   0.553   6.303 -0.1135 -0.1776  0.1109
 7456TIP3    H143859   0.679   0.568   6.339  0.3327  1.8527 -1.6128
 7456TIP3    H243860   0.538   0.622   6.341 -0.8139 -0.9604  0.5745
 7457TIP3   OH243861   6.148   2.029  13.547  0.2428 -0.2586  0.1360
 7457TIP3    H143862   6.166   2.123  13.553 -0.7665  0.0711 -1.5200
 7457TIP3    H243863   6.085   2.013  13.618  1.8585 -0.1256  1.6838
 7458TIP3   OH243864   4.350   6.614  16.054  0.2581  0.7864 -0.3480
 7458TIP3    H143865   4.414   6.621  16.125  0.3128 -1.3202 -0.1417
 7458TIP3    H243866   4.273   6.661  16.087 -0.2581 -1.3816  1.8212
 7459TIP3   OH243867   4.322   6.514  14.785 -0.1823  0.2522 -0.2525
 7459TIP3    H143868   4.247   6.515  14.726 -0.8979  0.5896  0.6493
 7459TIP3    H243869   4.286   6.487  14.869  0.2684  2.5895  0.7660
 7460TIP3   OH243870   1.248   0.322   4.603 -0.1962  0.2819 -0.0446
 7460TIP3    H143871   1.282   0.242   4.563 -0.9939 -0.7588  1.2333
 7460TIP3    H243872   1.175   0.347   4.547 -0.3809 -0.2957 -0.0726
 7461TIP3   OH243873   1.784   0.453  17.252  0.3361 -0.0816 -0.0641
 7461TIP3    H143874   1.796   0.444  17.347 -0.8189 -0.3041  0.0788
 7461TIP3    H243875   1.740   0.537  17.241 -0.4838 -0.5314 -0.3022
 7462TIP3   OH243876   4.684   4.961   4.455 -0.1193 -0.1604  0.1853
 7462TIP3    H143877   4.766   4.977   4.409 -1.6241  0.3502 -2.5093
 7462TIP3    H243878   4.675   4.866   4.457  0.6395 -0.2272  0.7542
 7463TIP3   OH243879   0.831   3.036   4.439  0.1348 -0.2810  0.0679
 7463TIP3    H143880   0.794   3.078   4.517 -0.6113  0.5549 -0.7039
 7463TIP3    H243881   0.831   2.943   4.459  1.4003  0.0173  1.6617
 7464TIP3   OH243882   3.691   1.554   2.029 -0.0911  0.2112  0.0802
 7464TIP3    H143883   3.650   1.588   2.109  0.2631 -2.2292  1.3910
 7464TIP3    H243884   3.619   1.514   1.980  0.0216 -0.1430  0.2034
 7465TIP3   OH243885   1.595   0.416  11.686  0.0116 -0.2734 -0.3225
 7465TIP3    H143886   1.654   0.385  11.755  0.5662 -1.1944 -1.1707
 7465TIP3    H243887   1.650   0.472  11.631 -0.8098  1.7601  0.8012
 7466TIP3   OH243888   4.156   3.125  13.163 -0.0615  0.4063 -0.3461
 7466TIP3    H143889   4.242   3.132  13.204 -0.0291  0.7602 -0.4690
 7466TIP3    H243890   4.120   3.043  13.196 -0.2097  0.8855  0.7166
 7467TIP3   OH243891   5.100   4.146   6.358 -0.0367 -0.3693 -0.1251
 7467TIP3    H143892   5.178   4.165   6.410  0.2057 -0.9099 -0.2842
 7467TIP3    H243893   5.035   4.116   6.422  0.5787 -2.0076 -0.2279
 7468TIP3   OH243894   0.010   3.260  16.870 -0.7566  0.2356 -0.5442
 7468TIP3    H143895  -0.004   3.285  16.961 -1.6751 -0.1417 -0.5768
 7468TIP3    H243896  -0.020   3.169  16.865  0.6504 -0.2435 -0.8935
 7469TIP3   OH243897   3.245   2.200  16.890  0.1325 -0.4666  0.1733
 7469TIP3    H143898   3.204   2.279  16.855 -0.1252 -0.2631  0.9114
 7469TIP3    H243899   3.261   2.144  16.814 -1.2597 -0.4359 -0.1575
 7470TIP3   OH243900   0.655   4.453  17.196  0.2176 -0.1059  0.3115
 7470TIP3    H143901   0.572   4.447  17.149 -0.5939 -0.4310  1.7249
 7470TIP3    H243902   0.711   4.506  17.140 -1.4654  1.4830  0.0608
 7471TIP3   OH243903   4.022   0.051   4.260 -0.0856 -0.0401  0.8236
 7471TIP3    H143904   3.983   0.137   4.274 -0.1961 -0.1611  1.2733
 7471TIP3    H243905   3.949  -0.010   4.268 -0.9386  0.0541 -3.7242
 7472TIP3   OH243906   4.591   5.180  14.092 -0.2012 -0.1633  0.3360
 7472TIP3    H143907   4.637   5.193  14.010  0.5689  0.9903  0.9266
 7472TIP3    H243908   4.548   5.263  14.109  0.6372  0.0317  1.6872
 7473TIP3   OH243909   4.055   5.741  14.107  0.7029  0.5541  0.7675
 7473TIP3    H143910   4.069   5.829  14.074 -0.6588  0.2705 -0.6984
 7473TIP3    H243911   3.983   5.750  14.170  0.0652  0.4145  0.0785
 7474TIP3   OH243912   5.665   1.414  16.456 -0.5226 -0.2391 -0.0658
 7474TIP3    H143913   5.740   1.413  16.397 -0.5255  0.4647 -0.0872
 7474TIP3    H243914   5.589   1.419  16.398 -0.5122  0.8198 -0.0128
 7475TIP3   OH243915   1.909   6.573   3.425  0.0872  0.0609  0.1768
 7475TIP3    H143916   2.001   6.556   3.446 -0.3370 -0.8600  1.4037
 7475TIP3    H243917   1.870   6.486   3.417 -0.9844  0.4318  1.1376
 7476TIP3   OH243918   4.999   2.137   2.392 -0.0323  0.0142  0.1751
 7476TIP3    H143919   4.981   2.147   2.298 -0.2585  1.5896  0.3558
 7476TIP3    H243920   4.928   2.184   2.435  0.1884 -0.5192  1.1396
 7477TIP3   OH243921   4.855   0.210   3.770  0.1613 -0.1418  0.2317
 7477TIP3    H143922   4.901   0.135   3.807  0.2051 -0.3263 -0.1935
 7477TIP3    H243923   4.763   0.194   3.793 -0.0841 -1.2490 -1.3726
 7478TIP3   OH243924   5.575   3.425   5.151 -0.0481 -0.3782  0.2292
 7478TIP3    H143925   5.521   3.504   5.151 -2.8271 -2.1264  0.7363
 7478TIP3    H243926   5.582   3.401   5.244  0.4942 -0.9029  0.0581
 7479TIP3   OH243927   0.407   3.783  11.210  0.3864 -0.2737 -0.0711
 7479TIP3    H143928   0.324   3.759  11.168  1.1422 -2.1855 -0.6159
 7479TIP3    H243929   0.450   3.841  11.147 -0.3480  0.4004  0.0361
 7480TIP3   OH243930   3.760   3.933  11.454 -0.0448  0.1721  0.0142
 7480TIP3    H143931   3.806   3.914  11.373  1.5631  0.2968  0.8437
 7480TIP3    H243932   3.684   3.874  11.454 -0.1944  0.3350 -1.6500
 7481TIP3   OH243933   5.775   1.324  14.361  0.2091 -0.7016 -0.1031
 7481TIP3    H143934   5.754   1.377  14.438  2.8778 -0.0337  0.2710
 7481TIP3    H243935   5.803   1.387  14.295  0.8205 -1.4506 -0.5863
 7482TIP3   OH243936   0.529   3.229   2.429  0.0356  0.1847  0.0536
 7482TIP3    H143937   0.451   3.255   2.478 -0.4404  0.6060 -0.8960
 7482TIP3    H243938   0.508   3.142   2.394  1.0862 -0.9546  2.0682
 7483TIP3   OH243939   6.657   1.844   6.645  0.3061 -0.0713  0.6221
 7483TIP3    H143940   6.745   1.815   6.669  0.5727  0.8180  0.7580
 7483TIP3    H243941   6.600   1.769   6.665  1.0227 -0.6295  0.5816
 7484TIP3   OH243942   4.655   1.011   2.963 -0.0024  0.1283 -0.1927
 7484TIP3    H143943   4.722   1.079   2.951  1.2913 -1.2248 -1.0693
 7484TIP3    H243944   4.640   1.009   3.058  2.3691 -0.5490  0.2368
 7485TIP3   OH243945   2.399   4.777   1.759 -0.2468  0.0591 -0.3098
 7485TIP3    H143946   2.405   4.693   1.713 -0.6119 -0.0084 -0.2352
 7485TIP3    H243947   2.413   4.843   1.690 -1.3646 -0.0242 -0.6302
 7486TIP3   OH243948   0.944   0.935   5.769 -0.7892  0.2785 -0.4971
 7486TIP3    H143949   1.039   0.940   5.761 -0.6197  2.3198  1.4665
 7486TIP3    H243950   0.920   0.849   5.735  1.8734 -0.6655 -0.1756
 7487TIP3   OH243951   0.859   1.969   0.771 -0.3582  0.0452 -0.1818
 7487TIP3    H143952   0.765   1.952   0.779 -0.4217  0.3844 -0.1969
 7487TIP3    H243953   0.891   1.971   0.861 -0.4145  0.2102 -0.1661
 7488TIP3   OH243954   4.968   3.573   3.830  0.2098  0.6037  0.4760
 7488TIP3    H143955   4.878   3.542   3.832  0.0165  1.1286  0.0458
 7488TIP3    H243956   4.992   3.583   3.923 -0.4308  1.1857  0.5864
 7489TIP3   OH243957   3.997   0.706   0.020 -0.3877 -0.1440 -0.0564
 7489TIP3    H143958   3.980   0.753   0.102  1.2150  1.5780 -0.6408
 7489TIP3    H243959   4.003   0.775  -0.046 -0.0746 -1.3719 -1.3654
 7490TIP3   OH243960   5.126   3.850  13.264  0.4597  0.2099  0.4601
 7490TIP3    H143961   5.081   3.859  13.348  1.4108 -2.1423  1.3032
 7490TIP3    H243962   5.061   3.877  13.199 -1.8884 -2.0830  1.6754
 7491TIP3   OH243963   5.971   1.690   4.837 -0.5752  0.0596  0.2957
 7491TIP3    H143964   6.018   1.718   4.916 -0.1076  1.8592 -0.5633
 7491TIP3    H243965   6.034   1.638   4.789 -1.1262 -1.7601  1.4453
 7492TIP3   OH243966   0.243   6.066   1.324 -0.6999 -0.1969  0.7398
 7492TIP3    H143967   0.263   6.138   1.263 -3.6875 -0.1678 -0.3622
 7492TIP3    H243968   0.326   6.048   1.367  0.7271  2.2444 -0.7391
 7493TIP3   OH243969   3.598   0.011  11.814 -0.2281 -0.3227  0.7206
 7493TIP3    H143970   3.632   0.090  11.774  1.8002 -0.9496  1.0858
 7493TIP3    H243971   3.524  -0.015  11.759  0.2018  0.8296 -0.4296
 7494TIP3   OH243972   0.104   6.555  13.234 -0.2980  0.1654  0.1434
 7494TIP3    H143973   0.081   6.585  13.146 -0.2405 -1.2455 -0.3796
 7494TIP3    H243974   0.021   6.524  13.271 -0.0392 -0.7918 -0.0574
 7495TIP3   OH243975   6.225   5.014   3.537  0.0510  0.3946  1.0610
 7495TIP3    H143976   6.231   5.087   3.476  0.3764  0.4626  1.1733
 7495TIP3    H243977   6.305   4.964   3.523  0.3693  0.6872  1.7740
 7496TIP3   OH243978   4.907   5.963  16.209 -0.4818 -0.1242 -0.0692
 7496TIP3    H143979   4.961   5.916  16.145  1.1611 -0.0582  1.1888
 7496TIP3    H243980   4.882   5.896  16.273  0.3805  0.3516  0.7844
 7497TIP3   OH243981   5.796   4.222   3.130 -0.5429  0.3469  0.1209
 7497TIP3    H143982   5.867   4.245   3.071 -1.4658  1.1736 -0.6929
 7497TIP3    H243983   5.786   4.127   3.120  0.1582  0.2917 -0.0724
 7498TIP3   OH243984   5.014   1.506   3.522  0.2314  0.5105 -0.9634
 7498TIP3    H143985   5.090   1.563   3.508  0.9448 -0.5694 -1.7093
 7498TIP3    H243986   4.962   1.515   3.442  0.3689  0.1053 -1.1032
 7499TIP3   OH243987   1.963   4.599  12.063 -0.1344  0.2419 -0.1138
 7499TIP3    H143988   1.917   4.538  12.120 -0.1691 -0.9477 -1.3786
 7499TIP3    H243989   2.013   4.654  12.123 -1.0971 -0.1861  1.1243
 7500TIP3   OH243990   6.210   2.005  12.843  0.1243  0.0056  0.1730
 7500TIP3    H143991   6.152   1.931  12.856 -0.0238  0.0246 -0.3312
 7500TIP3    H243992   6.186   2.068  12.911 -0.6209  0.1152 -0.1803
 7501TIP3   OH243993   6.377   4.685  16.975  0.0991 -0.2776 -0.1556
 7501TIP3    H143994   6.352   4.766  16.929 -0.8462 -0.4993 -0.0343
 7501TIP3    H243995   6.403   4.625  16.905 -0.2979 -0.2508 -0.3261
 7502TIP3   OH243996   1.832   4.906  13.976  0.5047  0.4167  0.1829
 7502TIP3    H143997   1.816   4.829  13.921  2.5226  1.2075 -1.6449
 7502TIP3    H243998   1.746   4.927  14.012 -0.3221 -1.9649 -0.2040
 7503TIP3   OH243999   4.448   2.618  13.899 -0.3562 -0.1293 -0.2376
 7503TIP3    H144000   4.437   2.693  13.958  0.8759  0.1758 -0.3574
 7503TIP3    H244001   4.467   2.657  13.813  0.3503 -0.5614 -0.2914
 7504TIP3   OH244002   3.265   3.937  11.329 -0.6012 -0.3521 -0.4296
 7504TIP3    H144003   3.338   3.961  11.387  0.3576 -2.6087 -0.6008
 7504TIP3    H244004   3.201   3.896  11.387 -0.7090 -0.4486 -0.6152
 7505TIP3   OH244005   3.213   4.836  14.740 -0.0037 -0.2624  0.1991
 7505TIP3    H144006   3.212   4.914  14.796  0.6838  0.5696 -0.9016
 7505TIP3    H244007   3.249   4.767  14.796 -0.6759  0.1832  1.2088
 7506TIP3   OH244008   2.038   4.128   3.514  0.0791  0.2427  0.1708
 7506TIP3    H144009   2.013   4.171   3.596  0.7505  0.1589  0.4262
 7506TIP3    H244010   2.120   4.170   3.490  0.0211  0.0723 -0.3180
 7507TIP3   OH244011   3.987   4.265   6.224 -0.1860  0.0833  0.4744
 7507TIP3    H144012   4.023   4.279   6.312 -0.5536 -0.0805  0.6511
 7507TIP3    H244013   4.019   4.340   6.173  0.8901 -0.3505  0.4723
 7508TIP3   OH244014   4.190   6.261  11.604  0.2566 -0.0203 -0.4746
 7508TIP3    H144015   4.239   6.213  11.672  1.4074  0.2939 -1.0593
 7508TIP3    H244016   4.099   6.255  11.632  0.3445 -2.5002 -0.4725
 7509TIP3   OH244017   3.031   2.237   2.533 -0.0731 -0.2064  0.0313
 7509TIP3    H144018   3.006   2.330   2.534 -2.1634 -0.6888 -1.1334
 7509TIP3    H244019   3.094   2.230   2.462  0.5207  0.3964  0.4847
 7510TIP3   OH244020   6.035   5.564  13.337  0.6776 -0.0320 -0.7614
 7510TIP3    H144021   5.983   5.512  13.398  0.5916  1.1325  0.1965
 7510TIP3    H244022   6.116   5.583  13.385  0.5513  1.0129 -0.9396
 7511TIP3   OH244023   5.177   0.277   4.437  0.1140 -0.1963  0.1620
 7511TIP3    H144024   5.112   0.255   4.504  0.6838  0.0382  0.8165
 7511TIP3    H244025   5.130   0.274   4.354 -0.6030 -0.5284  0.5775
 7512TIP3   OH244026   0.940   3.681  12.097 -0.2331 -0.5699 -0.0607
 7512TIP3    H144027   0.874   3.619  12.068 -1.0829  0.8704 -1.3350
 7512TIP3    H244028   1.016   3.663  12.042  0.2321 -1.7105  0.8873
 7513TIP3   OH244029   2.361   2.060  11.315  0.0319  0.4411  0.2169
 7513TIP3    H144030   2.352   1.965  11.314  2.0250  0.2160  0.8187
 7513TIP3    H244031   2.272   2.092  11.297 -0.4123 -1.5037 -1.4478
 7514TIP3   OH244032   6.309   4.621  11.383 -0.6438  0.2983 -0.8636
 7514TIP3    H144033   6.360   4.619  11.303 -0.5435  0.3674 -0.8023
 7514TIP3    H244034   6.229   4.668  11.360 -0.1962  1.1653 -0.6859
 7515TIP3   OH244035   3.449   1.832  14.596  0.2897  0.1971 -0.0635
 7515TIP3    H144036   3.426   1.786  14.515  0.2677 -0.1652  0.1470
 7515TIP3    H244037   3.368   1.876  14.623  0.1572 -0.1075  0.0403
 7516TIP3   OH244038   4.812   5.656   1.506 -0.0957  0.3790 -0.5922
 7516TIP3    H144039   4.860   5.667   1.588 -1.0781 -1.0204  0.2108
 7516TIP3    H244040   4.849   5.577   1.466  0.0122  0.7509 -1.2494
 7517TIP3   OH244041   0.033   0.280   2.290  0.3400 -0.2771 -0.0666
 7517TIP3    H144042  -0.014   0.315   2.366 -0.4728  0.5455 -0.9133
 7517TIP3    H244043   0.120   0.259   2.323  0.0029  0.0547  1.0862
 7518TIP3   OH244044   2.742   4.315  11.962  0.0626 -0.0864  0.5531
 7518TIP3    H144045   2.724   4.408  11.950  1.8080  0.0547 -1.4719
 7518TIP3    H244046   2.675   4.286  12.024 -0.5094  2.5016  1.2827
 7519TIP3   OH244047   6.711   5.166  15.764  0.3285 -0.3024 -0.9471
 7519TIP3    H144048   6.632   5.156  15.712  0.6362 -2.8673 -1.0142
 7519TIP3    H244049   6.780   5.128  15.711  1.4661  0.9594 -0.4459
 7520TIP3   OH244050   4.717   0.953   3.567 -0.6221 -0.2019  0.1151
 7520TIP3    H144051   4.781   1.011   3.525 -0.9578  0.3220  0.3083
 7520TIP3    H244052   4.678   1.007   3.636 -0.2925 -0.9582  0.9055
 7521TIP3   OH244053   3.037   1.906   3.199 -0.0943 -0.3445  0.3307
 7521TIP3    H144054   3.061   1.991   3.235 -1.8016  0.1347  0.4367
 7521TIP3    H244055   3.011   1.925   3.109 -1.1611 -0.6112  0.5649
 7522TIP3   OH244056   4.680   1.995  14.388 -0.0412  0.6738 -0.1075
 7522TIP3    H144057   4.761   2.035  14.357  0.4457 -0.6374 -0.5956
 7522TIP3    H244058   4.691   1.902  14.370 -1.7999  0.5106 -0.5120
 7523TIP3   OH244059   2.494   3.473  12.663 -0.4069  0.4197 -0.5237
 7523TIP3    H144060   2.472   3.398  12.608  1.1604  0.5969 -1.4461
 7523TIP3    H244061   2.583   3.497  12.637 -0.1148  1.3412  1.1863
 7524TIP3   OH244062   0.861   0.798  12.626  0.6719 -0.3095 -0.1608
 7524TIP3    H144063   0.829   0.886  12.645  1.6809 -0.5193  3.0838
 7524TIP3    H244064   0.950   0.811  12.595  0.6916 -0.1841 -0.0505
 7525TIP3   OH244065   5.130   0.724   3.591 -0.4919  0.2299 -0.4441
 7525TIP3    H144066   5.102   0.636   3.566  1.0209 -1.0793  2.0423
 7525TIP3    H244067   5.049   0.769   3.616 -1.0042 -1.7932  1.9215
 7526TIP3   OH244068   0.582   1.721  16.341 -0.2478 -0.2965  0.1083
 7526TIP3    H144069   0.592   1.674  16.258 -1.8500  0.6942 -0.7055
 7526TIP3    H244070   0.500   1.769  16.331  0.1204  0.7743  1.8399
 7527TIP3   OH244071   3.877   3.814  11.219  0.3155  0.3639 -0.1447
 7527TIP3    H144072   3.810   3.798  11.153 -1.0780  0.0689  1.2625
 7527TIP3    H244073   3.947   3.752  11.198 -0.9378 -1.0710 -0.2421
 7528TIP3   OH244074   4.563   0.227  11.984  0.0272  0.6687  0.6672
 7528TIP3    H144075   4.626   0.244  12.054  2.9406 -1.2854 -1.2684
 7528TIP3    H244076   4.527   0.313  11.963  2.6273  2.0269  1.3987
 7529TIP3   OH244077   1.271   5.482  15.432  0.1092 -0.6181  1.3864
 7529TIP3    H144078   1.265   5.539  15.355  1.7777 -1.8730  0.2537
 7529TIP3    H244079   1.339   5.522  15.486  0.2407 -0.7312  1.3059
 7530TIP3   OH244080   4.156   5.940   3.403 -0.4503 -0.1264 -1.0194
 7530TIP3    H144081   4.110   6.006   3.454 -0.6112 -2.3490  1.9925
 7530TIP3    H244082   4.215   5.990   3.347 -0.9134  2.5689  0.6979
 7531TIP3   OH244083   2.717   6.358  15.380  0.1489  0.0080  0.1460
 7531TIP3    H144084   2.669   6.398  15.453 -2.1649  0.6845 -1.6171
 7531TIP3    H244085   2.682   6.269  15.374  3.6800 -1.7841  2.6314
 7532TIP3   OH244086   0.498   6.167  13.229 -0.3275  0.3830 -0.2439
 7532TIP3    H144087   0.443   6.225  13.176  1.5736  1.0062 -1.6602
 7532TIP3    H244088   0.557   6.126  13.166  1.0168 -0.0296  1.2261
 7533TIP3   OH244089   3.262   6.167   2.209 -0.0513 -0.2625  0.6094
 7533TIP3    H144090   3.216   6.132   2.133 -0.7197  1.4943  0.1469
 7533TIP3    H244091   3.193   6.180   2.275  0.4010 -1.0625  1.2583
 7534TIP3   OH244092   1.596   1.699   0.829 -0.4063  0.2477 -0.4265
 7534TIP3    H144093   1.533   1.636   0.865  0.5553 -0.6594 -0.2778
 7534TIP3    H244094   1.624   1.751   0.905  0.2960 -0.4912 -0.1675
 7535TIP3   OH244095   4.340   5.511   3.972 -0.0591 -0.0629 -1.0218
 7535TIP3    H144096   4.364   5.584   4.029 -0.6619 -1.8960  1.8084
 7535TIP3    H244097   4.277   5.548   3.910 -1.9347  1.4731  1.6054
 7536TIP3   OH244098   2.728   6.398   0.565 -0.4635  0.3636  0.1427
 7536TIP3    H144099   2.760   6.393   0.655 -1.4964 -1.7204  0.4579
 7536TIP3    H244100   2.750   6.312   0.528 -3.3526 -0.2521 -0.3638
 7537TIP3   OH244101   5.797   5.868   6.021  0.1345  0.5514  0.0826
 7537TIP3    H144102   5.792   5.807   5.948  0.5694 -1.0662  1.3500
 7537TIP3    H244103   5.888   5.900   6.019  0.1275  0.5601 -0.1096
 7538TIP3   OH244104   6.444   3.957  13.175  0.2084 -0.0708 -0.5074
 7538TIP3    H144105   6.433   3.892  13.244 -0.7260 -1.2572 -1.7074
 7538TIP3    H244106   6.535   3.984  13.181  0.2320 -0.4196  0.9366
 7539TIP3   OH244107   2.863   2.461  12.766  0.0384 -0.4583  0.2891
 7539TIP3    H144108   2.894   2.552  12.766  3.3683 -1.4121 -2.4033
 7539TIP3    H244109   2.911   2.419  12.837 -1.6604 -0.1593  1.6741
 7540TIP3   OH244110   4.658   0.852  12.681 -0.0962 -0.3919  0.6325
 7540TIP3    H144111   4.644   0.768  12.637 -0.2048  0.1745 -0.4525
 7540TIP3    H244112   4.631   0.918  12.617  2.2858  0.5660  0.4963
 7541TIP3   OH244113   4.807   1.405  12.028 -0.1393 -0.1119  0.2775
 7541TIP3    H144114   4.712   1.404  12.034 -0.1033 -0.3291  0.8628
 7541TIP3    H244115   4.837   1.444  12.110  0.2025  3.3123 -1.2920
 7542TIP3   OH244116   5.157   3.161   4.185  0.3243 -0.3677  0.3749
 7542TIP3    H144117   5.095   3.231   4.204 -0.5931 -1.6080  2.2735
 7542TIP3    H244118   5.162   3.111   4.266  6.0377  1.2483  1.4861
 7543TIP3   OH244119   2.898   6.456  16.181  0.3446 -0.5835  0.9087
 7543TIP3    H144120   2.873   6.458  16.273 -1.9821  1.9789  0.3658
 7543TIP3    H244121   2.844   6.386  16.143 -0.1797 -0.3014  1.1349
 7544TIP3   OH244122   0.058   2.899   1.053 -0.3537  0.0984 -0.0385
 7544TIP3    H144123   0.124   2.846   1.097  0.7139  1.0514 -0.4347
 7544TIP3    H244124  -0.008   2.915   1.120 -0.3438 -1.1158  0.2812
 7545TIP3   OH244125   2.133   3.661  17.406  0.4252  0.0839  0.0695
 7545TIP3    H144126   2.199   3.621  17.463  0.5502 -0.6901 -0.6022
 7545TIP3    H244127   2.165   3.750  17.392 -0.3879  0.8052  2.4041
 7546TIP3   OH244128   3.712   3.964  13.286 -0.7960  0.3994  0.2546
 7546TIP3    H144129   3.766   4.022  13.341 -0.5237  0.0518  0.3550
 7546TIP3    H244130   3.654   3.920  13.348  0.1208 -0.6682  0.3932
 7547TIP3   OH244131   0.088   5.280  14.257 -0.2647 -0.3189 -0.5831
 7547TIP3    H144132   0.093   5.217  14.329 -2.0154  0.0206 -0.1060
 7547TIP3    H244133   0.151   5.249  14.192  0.1012 -1.6053  0.3585
 7548TIP3   OH244134   0.583   4.610  16.440 -0.5671  0.3214  0.8058
 7548TIP3    H144135   0.520   4.614  16.368 -1.9235 -1.4760  1.8270
 7548TIP3    H244136   0.571   4.523  16.478  1.2978  0.5980  2.1651
 7549TIP3   OH244137   3.715   1.928  15.769  0.1568 -0.5620  0.7793
 7549TIP3    H144138   3.744   1.898  15.855 -0.1730 -0.3121  0.9806
 7549TIP3    H244139   3.658   1.858  15.737 -0.7350 -0.0902  1.3143
 7550TIP3   OH244140   0.330   4.858  14.442  0.1791 -0.1312 -0.1544
 7550TIP3    H144141   0.317   4.774  14.399  1.3273 -0.3561 -0.0743
 7550TIP3    H244142   0.261   4.914  14.405  0.7651 -0.4705 -1.8772
 7551TIP3   OH244143   2.675   6.168  13.703  0.0510 -0.3955 -0.3891
 7551TIP3    H144144   2.633   6.113  13.769  0.7610  0.9923  1.2970
 7551TIP3    H244145   2.757   6.196  13.744  0.9072 -0.1340 -2.1995
 7552TIP3   OH244146   4.759   5.280  12.239  0.2216  0.4021 -0.0176
 7552TIP3    H144147   4.739   5.188  12.220  3.1117 -0.6405  1.4170
 7552TIP3    H244148   4.728   5.327  12.162 -0.7342 -1.8272 -1.1095
 7553TIP3   OH244149   5.649   4.917   6.365  0.5973 -0.2232  0.1802
 7553TIP3    H144150   5.578   4.976   6.340  0.2498  0.8150  3.2113
 7553TIP3    H244151   5.713   4.925   6.295 -0.7459  1.5098 -0.9119
 7554TIP3   OH244152   6.407   1.859  16.845 -1.1330 -0.4036  0.1854
 7554TIP3    H144153   6.345   1.816  16.904  0.5016 -1.5548  1.1497
 7554TIP3    H244154   6.472   1.899  16.903 -0.6483  0.2866 -0.8009
 7555TIP3   OH244155   3.714   6.564  12.485  0.5266 -0.2099  0.0127
 7555TIP3    H144156   3.627   6.581  12.450  1.5022  0.4179 -2.2465
 7555TIP3    H244157   3.722   6.468  12.483 -0.3949 -0.3368  1.0926
 7556TIP3   OH244158   1.111   2.677  11.297 -0.0878  0.0863 -0.0632
 7556TIP3    H144159   1.203   2.650  11.296  0.2313  1.1262 -0.0168
 7556TIP3    H244160   1.084   2.672  11.205 -0.6622 -2.3361  0.1635
 7557TIP3   OH244161   0.200   1.237   5.674  0.2623 -0.0970  0.0864
 7557TIP3    H144162   0.278   1.246   5.730  0.3986 -0.7243  0.0034
 7557TIP3    H244163   0.217   1.295   5.600  1.3059 -1.2859 -0.6408
 7558TIP3   OH244164   1.369   1.243  16.155  0.4672 -0.3396 -0.1882
 7558TIP3    H144165   1.410   1.309  16.100  0.5238 -0.1649  0.0615
 7558TIP3    H244166   1.275   1.254  16.139  0.4461  0.1883  0.2887
 7559TIP3   OH244167   1.058   2.932  15.229  0.2440 -0.1351 -0.1429
 7559TIP3    H144168   1.081   2.911  15.138  1.0067  0.7162 -0.1588
 7559TIP3    H244169   1.068   3.027  15.235  2.3687 -0.3700  1.3821
 7560TIP3   OH244170   3.430   4.537  13.320 -0.2821  0.2010 -0.3801
 7560TIP3    H144171   3.356   4.477  13.312 -0.3768  0.2444  0.1252
 7560TIP3    H244172   3.395   4.622  13.293 -0.6062  0.3557  0.5045
 7561TIP3   OH244173   2.567   1.337   5.757 -0.2524  0.1255 -0.2534
 7561TIP3    H144174   2.655   1.328   5.723  0.2959 -0.4186  1.2236
 7561TIP3    H244175   2.553   1.432   5.763  0.3805  0.2171 -0.1433
 7562TIP3   OH244176   6.250   5.876   0.356  0.7125  0.1883 -0.0458
 7562TIP3    H144177   6.228   5.963   0.389  1.1366 -0.4908  2.2545
 7562TIP3    H244178   6.177   5.821   0.385  1.4650 -0.5830  0.4283
 7563TIP3   OH244179   4.336   3.264   3.307 -0.2510  0.8029  0.0242
 7563TIP3    H144180   4.326   3.187   3.252  0.1811  0.2079  0.7578
 7563TIP3    H244181   4.378   3.232   3.387  1.8483  2.1318 -0.4677
 7564TIP3   OH244182   1.318   1.448  16.586 -0.0735  0.2330  0.5513
 7564TIP3    H144183   1.324   1.355  16.610 -2.7902 -0.5422 -1.2237
 7564TIP3    H244184   1.381   1.459  16.515 -0.7469 -0.6840 -0.2179
 7565TIP3   OH244185   2.912   0.763  15.314  0.3101  0.2176 -0.3182
 7565TIP3    H144186   2.831   0.786  15.267  0.0494 -0.1465 -0.0581
 7565TIP3    H244187   2.975   0.829  15.287  0.0019  0.3466 -0.7429
 7566TIP3   OH244188   2.600   4.492  11.524 -0.1077  0.0670  0.4378
 7566TIP3    H144189   2.658   4.422  11.494  0.7884  0.9252  0.0963
 7566TIP3    H244190   2.652   4.537  11.591 -0.9459 -0.0098  1.1602
 7567TIP3   OH244191   1.181   5.958   2.283  0.0126 -0.4543  0.0922
 7567TIP3    H144192   1.110   5.989   2.227  0.7827  1.3365  0.0380
 7567TIP3    H244193   1.257   5.954   2.225  0.2563 -1.1412  0.4416
 7568TIP3   OH244194   1.240   5.937   5.988  0.7648 -0.0578 -0.0939
 7568TIP3    H144195   1.267   5.887   6.065  0.2282 -2.0659 -1.1480
 7568TIP3    H244196   1.169   5.993   6.020  0.3560 -1.0606  0.8188
 7569TIP3   OH244197   4.745   1.068  14.056 -0.2166 -0.0294 -0.0625
 7569TIP3    H144198   4.651   1.068  14.073 -0.5641 -1.7208 -1.7341
 7569TIP3    H244199   4.779   0.996  14.109  0.0382  0.0916 -0.0601
 7570TIP3   OH244200   3.852   2.278  17.357 -0.0461  0.6699  0.5404
 7570TIP3    H144201   3.943   2.260  17.334 -0.1833 -1.2843  1.3518
 7570TIP3    H244202   3.858   2.345  17.425  0.7741  0.6733  0.4812
 7571TIP3   OH244203   3.142   6.022  16.434 -0.4939  0.1604  0.3111
 7571TIP3    H144204   3.156   5.947  16.377  0.4222  0.1592  0.5133
 7571TIP3    H244205   3.047   6.033  16.438 -0.5947 -0.3310 -0.5633
 7572TIP3   OH244206   5.420   2.475   1.873 -0.3970  0.0120 -0.2776
 7572TIP3    H144207   5.350   2.416   1.903 -1.0806  0.5794 -0.7338
 7572TIP3    H244208   5.375   2.540   1.819  0.0499  2.0368  1.6573
 7573TIP3   OH244209   3.313   5.607  16.569 -0.1495 -0.2109  0.1764
 7573TIP3    H144210   3.316   5.703  16.570 -1.9838 -0.1115 -0.2771
 7573TIP3    H244211   3.278   5.585  16.482  0.6185 -1.3175  0.1270
 7574TIP3   OH244212   4.061   4.803   5.946 -0.8087 -0.7125  0.6748
 7574TIP3    H144213   3.973   4.831   5.970 -0.5788  0.2778  0.4186
 7574TIP3    H244214   4.095   4.875   5.893 -0.9990 -2.4456 -1.9535
 7575TIP3   OH244215   1.133   0.114   2.709  0.3542  0.0952 -0.2641
 7575TIP3    H144216   1.163   0.181   2.770  0.7286  0.2384 -0.6000
 7575TIP3    H244217   1.164   0.144   2.623  0.4014 -0.4299 -0.4360
 7576TIP3   OH244218   0.821   2.863  14.709 -0.6820  0.1563  0.2619
 7576TIP3    H144219   0.765   2.862  14.786  2.4565 -0.5310  2.7551
 7576TIP3    H244220   0.835   2.956  14.690  0.1559  0.4210  1.9413
 7577TIP3   OH244221   4.358   1.957   4.517  0.5328  0.5652  0.5553
 7577TIP3    H144222   4.411   1.985   4.591  1.1837  0.2908  0.1995
 7577TIP3    H244223   4.356   2.033   4.458  0.1647  0.7218  0.7642
 7578TIP3   OH244224   6.014   6.430   0.196 -0.0125 -1.3764  0.0331
 7578TIP3    H144225   5.985   6.339   0.197  0.0531 -1.4010 -0.1745
 7578TIP3    H244226   5.978   6.466   0.115  1.3858 -1.7019 -0.7727
 7579TIP3   OH244227   4.252   3.418  17.162 -0.2943 -0.4259  0.0645
 7579TIP3    H144228   4.265   3.382  17.250  0.9726  0.4097  0.2481
 7579TIP3    H244229   4.159   3.441  17.160 -0.4258 -0.7808  1.0535
 7580TIP3   OH244230   3.151   5.793   2.436  0.4901  0.1210 -0.2278
 7580TIP3    H144231   3.103   5.826   2.512 -1.4105  0.0659 -1.3605
 7580TIP3    H244232   3.165   5.700   2.457 -1.4517 -0.3015 -0.5784
 7581TIP3   OH244233   0.649   4.883   1.325 -0.1892  0.3739 -0.0518
 7581TIP3    H144234   0.646   4.978   1.315 -1.7295  0.4014  0.4730
 7581TIP3    H244235   0.559   4.858   1.343  0.1940 -1.1996 -0.2060
 7582TIP3   OH244236   5.378   0.217   2.533 -0.1206 -0.1866  0.3829
 7582TIP3    H144237   5.317   0.243   2.464 -1.5210 -0.7069  1.3521
 7582TIP3    H244238   5.405   0.128   2.509 -1.5189 -0.8303  1.0341
 7583TIP3   OH244239   3.002   3.060  12.307 -0.2538  0.5869  0.1873
 7583TIP3    H144240   3.089   3.091  12.282  0.6333 -0.9889  1.1116
 7583TIP3    H244241   2.968   3.019  12.228  1.6471 -2.5074  0.8024
 7584TIP3   OH244242   1.635   4.566  13.463 -0.7669  0.2039  0.5113
 7584TIP3    H144243   1.627   4.472  13.447 -2.1037  0.2705  0.6988
 7584TIP3    H244244   1.687   4.572  13.544 -0.5356 -0.3598  0.4094
 7585TIP3   OH244245   6.705   0.875   1.788 -0.5327 -0.1699 -0.3724
 7585TIP3    H144246   6.739   0.963   1.805  0.2423 -0.8154  1.7453
 7585TIP3    H244247   6.702   0.868   1.693  1.9321  1.1790 -0.6146
 7586TIP3   OH244248   3.000   4.560  13.623 -0.0650  0.1615  0.1564
 7586TIP3    H144249   3.081   4.609  13.609  0.5527 -0.4288  1.5693
 7586TIP3    H244250   2.933   4.628  13.638  0.7285  0.6022  1.8499
 7587TIP3   OH244251   1.645   5.458  16.237  0.2870 -0.1327 -0.0190
 7587TIP3    H144252   1.717   5.461  16.300  0.8123  0.3339 -0.6247
 7587TIP3    H244253   1.681   5.412  16.161 -0.0526  0.0978 -0.3225
 7588TIP3   OH244254   2.581   5.385   4.493  0.1442 -0.3777  0.2943
 7588TIP3    H144255   2.510   5.441   4.461 -0.1088 -0.8694 -0.0137
 7588TIP3    H244256   2.660   5.425   4.458 -0.0708 -0.4641 -0.2974
 7589TIP3   OH244257   4.238   0.836  15.339 -0.1032  0.4976  0.5743
 7589TIP3    H144258   4.236   0.922  15.297 -1.7859  0.7603  1.1111
 7589TIP3    H244259   4.219   0.775  15.268 -2.2028  0.8825  0.7317
 7590TIP3   OH244260   3.486   2.647  14.274  0.5104  0.0641 -0.1279
 7590TIP3    H144261   3.403   2.614  14.242 -0.5591  2.0007  0.4710
 7590TIP3    H244262   3.511   2.586  14.343 -0.4739 -0.4829 -0.2409
 7591TIP3   OH244263   2.232   1.349   2.930  0.0748 -0.0057  0.2912
 7591TIP3    H144264   2.160   1.326   2.871  1.6456 -0.9661 -1.3687
 7591TIP3    H244265   2.202   1.322   3.017 -1.0935 -1.5124 -0.5342
 7592TIP3   OH244266   5.252   4.274   6.069 -0.2074 -0.0906 -0.6073
 7592TIP3    H144267   5.261   4.305   5.979  0.8143  0.2246 -0.4151
 7592TIP3    H244268   5.200   4.194   6.062 -0.1548 -0.0568 -1.4710
 7593TIP3   OH244269   3.408   0.876   4.144 -0.5223  0.1714  0.9169
 7593TIP3    H144270   3.460   0.911   4.216 -0.7602  0.4654  0.9451
 7593TIP3    H244271   3.336   0.938   4.133 -0.6619 -0.0371  0.6323
 7594TIP3   OH244272   6.097   5.923  14.764  0.2746 -0.1763  0.6506
 7594TIP3    H144273   6.185   5.886  14.773  1.0770  1.9050  2.3083
 7594TIP3    H244274   6.049   5.888  14.839 -0.6053 -1.8594 -0.6248
 7595TIP3   OH244275   2.818   5.378  14.037  0.3600  0.3512 -0.0811
 7595TIP3    H144276   2.913   5.373  14.052  0.7030  0.4742 -1.9515
 7595TIP3    H244277   2.804   5.466  14.002 -0.5493  0.5476  0.7513
 7596TIP3   OH244278   5.901   2.022   5.976 -0.4456 -0.1077  0.1156
 7596TIP3    H144279   5.834   1.964   6.012  0.0567 -0.5845  0.2985
 7596TIP3    H244280   5.950   2.053   6.052  0.2722 -0.6853 -0.0937
 7597TIP3   OH244281   3.040   3.548   0.389  0.0825 -0.1924 -0.0834
 7597TIP3    H144282   2.972   3.595   0.437 -0.3998 -0.8894 -0.0702
 7597TIP3    H244283   3.122   3.581   0.427 -0.2771 -0.5904  1.0980
 7598TIP3   OH244284   2.029   6.432   5.769  0.1011 -1.0607  0.1857
 7598TIP3    H144285   2.062   6.356   5.817  0.0989 -2.0087 -1.2279
 7598TIP3    H244286   1.939   6.407   5.745  0.0786 -0.5894 -0.2420
 7599TIP3   OH244287   1.523   2.137   1.009  0.6381 -0.6565 -0.1947
 7599TIP3    H144288   1.456   2.069   1.005  0.6293 -0.6214 -0.7602
 7599TIP3    H244289   1.476   2.218   0.992  0.7631 -0.5894 -0.2223
 7600TIP3   OH244290   0.308   5.727  16.131  0.3017  0.3649  0.4512
 7600TIP3    H144291   0.309   5.637  16.164  0.8142  0.1463 -0.1309
 7600TIP3    H244292   0.372   5.727  16.059 -0.8922  0.7836 -0.6502
 7601TIP3   OH244293   1.510   5.212  14.668 -0.1200 -0.0661  0.2099
 7601TIP3    H144294   1.592   5.241  14.709 -0.0968 -0.0880  0.1789
 7601TIP3    H244295   1.459   5.292  14.660 -0.9216 -0.3322  2.0577
 7602TIP3   OH244296   6.589   5.524   1.793  0.0635 -0.6181  0.0970
 7602TIP3    H144297   6.632   5.603   1.761 -1.6882 -0.1259 -1.2042
 7602TIP3    H244298   6.647   5.453   1.767  0.7128  0.1093 -0.4835
 7603TIP3   OH244299   1.189   2.064  17.059  0.0710  0.1606 -0.0612
 7603TIP3    H144300   1.262   2.110  17.017 -1.8732  0.9619 -2.9221
 7603TIP3    H244301   1.212   1.971  17.053  0.8280  0.3953 -1.1066
 7604TIP3   OH244302   3.050   0.861  13.910  0.3148 -0.7772  0.0820
 7604TIP3    H144303   3.061   0.949  13.874 -1.2799 -0.1821  0.9639
 7604TIP3    H244304   3.115   0.856  13.979  0.7835 -0.4957 -0.3305
 7605TIP3   OH244305   1.474   5.838   4.609  0.1213 -0.5615  0.1524
 7605TIP3    H144306   1.471   5.756   4.559  0.5908  0.5557 -1.8298
 7605TIP3    H244307   1.383   5.851   4.638  0.0934 -1.8938  0.7481
 7606TIP3   OH244308   1.021   2.501  11.796 -0.5228  0.6388 -0.3660
 7606TIP3    H144309   1.107   2.516  11.757  0.4837  0.1848  1.5531
 7606TIP3    H244310   0.969   2.461  11.726  0.2118  2.5769 -2.1240
 7607TIP3   OH244311   5.660   3.565  12.799  0.3100  0.2402 -0.1841
 7607TIP3    H144312   5.742   3.571  12.849  0.3857 -1.6999 -0.0039
 7607TIP3    H244313   5.633   3.656  12.786  0.5796  0.8725  2.9104
 7608TIP3   OH244314   4.636   5.904   5.342 -0.3744 -0.7879 -0.3581
 7608TIP3    H144315   4.601   5.819   5.368 -0.4629 -1.0764 -1.3851
 7608TIP3    H244316   4.700   5.884   5.273 -0.4558 -0.0197 -0.6642
 7609TIP3   OH244317   1.307   5.848  12.183  0.3136  0.2608 -0.2895
 7609TIP3    H144318   1.294   5.872  12.091  1.3350  0.0628 -0.4978
 7609TIP3    H244319   1.366   5.773  12.179 -0.9053 -0.7894  0.4642
 7610TIP3   OH244320   1.475   2.453  11.734 -0.0490  0.1120  0.2483
 7610TIP3    H144321   1.429   2.393  11.793 -0.7184 -0.7797 -1.1421
 7610TIP3    H244322   1.545   2.490  11.788  0.4935 -2.0499  1.1323
 7611TIP3   OH244323   2.207   6.623   5.068  0.4780  0.5722  0.0216
 7611TIP3    H144324   2.168   6.705   5.039 -0.7417  0.1267  0.3478
 7611TIP3    H244325   2.153   6.555   5.028  0.4077 -0.0527  1.1401
 7612TIP3   OH244326   4.633   0.962   4.101  0.4251 -0.9252  0.6561
 7612TIP3    H144327   4.602   0.871   4.102  3.7569 -2.2319 -0.5687
 7612TIP3    H244328   4.707   0.963   4.162  2.0877  0.2092 -1.2303
 7613TIP3   OH244329   1.478   6.018   5.764  0.0928  0.1233  0.0852
 7613TIP3    H144330   1.432   6.092   5.724  1.3407  0.8127 -0.1559
 7613TIP3    H244331   1.414   5.979   5.823 -1.6350 -0.5530 -2.0831
 7614TIP3   OH244332   1.718   5.002  10.872  0.7581 -0.0426  0.4046
 7614TIP3    H144333   1.678   4.935  10.816  1.5760 -0.9920  0.9187
 7614TIP3    H244334   1.657   5.075  10.869 -0.0362 -0.7077 -0.3877
 7615TIP3   OH244335   5.969   5.645  16.211 -0.8285  0.2423 -0.4457
 7615TIP3    H144336   6.015   5.722  16.179 -2.0386  1.3056  0.2512
 7615TIP3    H244337   6.030   5.604  16.273 -0.7673  1.5602  0.3942
 7616TIP3   OH244338   0.194   3.798   4.521  0.0641 -0.0538 -0.5759
 7616TIP3    H144339   0.218   3.718   4.567  0.0389  0.5974  0.5905
 7616TIP3    H244340   0.118   3.831   4.568  0.6080  1.1276 -0.4950
 7617TIP3   OH244341   0.484   5.370  15.435 -0.3800 -0.2525 -0.1308
 7617TIP3    H144342   0.414   5.341  15.493 -0.6292 -0.2570 -0.4317
 7617TIP3    H244343   0.463   5.461  15.415 -0.5434 -0.3871 -0.5798
 7618TIP3   OH244344   1.717   3.828   0.424  0.9686 -0.5168 -0.5875
 7618TIP3    H144345   1.724   3.793   0.513  0.9989 -1.2115 -0.8590
 7618TIP3    H244346   1.802   3.869   0.407  1.2489 -1.1005 -0.5974
 7619TIP3   OH244347   6.568   0.745  14.473 -0.1767  0.1259 -0.6117
 7619TIP3    H144348   6.542   0.668  14.422 -0.3533  0.4165 -0.9670
 7619TIP3    H244349   6.510   0.815  14.443  0.4610  0.5797 -0.8155
 7620TIP3   OH244350   2.762   5.382   0.152 -0.8342  0.4381 -0.1028
 7620TIP3    H144351   2.683   5.400   0.101  0.3812  0.2921 -2.1335
 7620TIP3    H244352   2.750   5.292   0.184 -0.9658 -0.0637 -1.4796
 7621TIP3   OH244353   4.032   0.633   2.951 -0.3619 -0.1189 -0.1474
 7621TIP3    H144354   4.036   0.709   2.894  0.7822  0.4484  0.6542
 7621TIP3    H244355   4.046   0.667   3.039 -2.7000 -0.8984  0.6116
 7622TIP3   OH244356   6.588   3.490   1.324  0.1304 -0.2597 -0.1744
 7622TIP3    H144357   6.634   3.484   1.240  0.3575  0.9100 -0.1531
 7622TIP3    H244358   6.505   3.533   1.303 -0.3555 -1.0906  0.0143
 7623TIP3   OH244359   1.803   6.275  17.102  0.2361 -1.0562 -0.0287
 7623TIP3    H144360   1.898   6.265  17.104  0.5558  1.3291  0.8043
 7623TIP3    H244361   1.777   6.277  17.194 -0.3268  0.2045 -0.1901
 7624TIP3   OH244362   0.927   0.002   4.600  0.1761 -0.3515  0.1459
 7624TIP3    H144363   0.847   0.046   4.570  0.5067  1.0869  1.3181
 7624TIP3    H244364   0.963  -0.038   4.520 -0.2562  1.3158 -0.9361
 7625TIP3   OH244365   2.470   3.235  14.427  0.2194  0.5831  0.7302
 7625TIP3    H144366   2.412   3.203  14.496  0.5231 -1.3052  0.1514
 7625TIP3    H244367   2.431   3.319  14.401 -2.5484 -0.7612  0.1096
 7626TIP3   OH244368   6.158   1.545  11.650 -0.0541 -0.1602 -0.5296
 7626TIP3    H144369   6.086   1.599  11.617 -1.2793 -0.6939  1.1500
 7626TIP3    H244370   6.163   1.472  11.589 -0.6945  0.0686 -0.8656
 7627TIP3   OH244371   0.092   3.814   3.589 -0.1531  0.0959 -0.4743
 7627TIP3    H144372   0.069   3.899   3.553  0.1420  0.7640  0.8543
 7627TIP3    H244373   0.063   3.751   3.523 -2.6207  1.0653 -0.4042
 7628TIP3   OH244374   2.734   1.063  16.480  0.8119  0.3387 -0.4576
 7628TIP3    H144375   2.796   1.103  16.419  1.7499 -1.4061 -0.7118
 7628TIP3    H244376   2.789   1.022  16.546 -0.1366  0.1898  0.2643
 7629TIP3   OH244377   2.590   1.446   3.681 -0.1447 -0.0686  0.0531
 7629TIP3    H144378   2.607   1.512   3.748 -0.0900  0.1965 -0.2161
 7629TIP3    H244379   2.496   1.429   3.688 -0.6061  1.6252 -1.2814
 7630TIP3   OH244380   3.740   3.366   4.641  0.4909 -0.3696  0.1604
 7630TIP3    H144381   3.744   3.449   4.688  0.0543 -0.5569  0.5352
 7630TIP3    H244382   3.653   3.331   4.662  0.3370 -0.5123 -0.6831
 7631TIP3   OH244383   4.344   5.276  16.642 -0.4840 -0.1092  0.1272
 7631TIP3    H144384   4.298   5.192  16.644 -2.8617  1.1097  1.1877
 7631TIP3    H244385   4.382   5.285  16.730  2.2392 -1.2574 -0.8426
 7632TIP3   OH244386   6.705   1.600  12.936  0.0381 -0.3730  0.4933
 7632TIP3    H144387   6.705   1.625  13.028  0.9208 -1.2632  0.7530
 7632TIP3    H244388   6.797   1.588  12.914 -0.2515 -1.8841 -0.0140
 7633TIP3   OH244389   4.823   6.338   0.492 -0.4693  0.0860  0.3550
 7633TIP3    H144390   4.838   6.310   0.402  3.0141  2.3631  0.0649
 7633TIP3    H244391   4.895   6.301   0.542 -1.5506  0.0625  1.9929
 7634TIP3   OH244392   1.753   2.862   3.977  0.1318 -0.4976  0.2784
 7634TIP3    H144393   1.778   2.912   3.900  2.0843 -1.4694  0.2003
 7634TIP3    H244394   1.664   2.891   3.998  0.3084  1.2120 -1.1424
 7635TIP3   OH244395   4.087   4.858  15.420  0.2919 -0.1174  0.2221
 7635TIP3    H144396   4.016   4.905  15.463 -0.9633 -1.0461 -0.7244
 7635TIP3    H244397   4.146   4.926  15.389 -0.6392  0.7459  0.2862
 7636TIP3   OH244398   3.537   4.087   2.910 -0.1434 -0.1056  0.1390
 7636TIP3    H144399   3.616   4.135   2.884 -0.2603  0.0528  0.0781
 7636TIP3    H244400   3.484   4.152   2.957 -0.5675 -0.0168 -0.4550
 7637TIP3   OH244401   3.865   6.591  14.994  0.3378 -0.0889 -0.5038
 7637TIP3    H144402   3.803   6.661  15.011  1.0130  0.5588 -0.6675
 7637TIP3    H244403   3.907   6.575  15.079 -1.1583 -1.6429 -0.0044
 7638TIP3   OH244404   1.139   5.710   1.824  0.2493 -0.4089  0.1091
 7638TIP3    H144405   1.200   5.649   1.782 -0.6710 -0.9053 -0.5310
 7638TIP3    H244406   1.150   5.694   1.918  0.7704 -0.8190 -0.0165
 7639TIP3   OH244407   1.910   4.781  15.034  0.1073  0.5797 -0.2171
 7639TIP3    H144408   1.968   4.825  14.973 -1.9265  1.2606 -1.7489
 7639TIP3    H244409   1.912   4.835  15.113  0.6577  1.2188 -0.6633
 7640TIP3   OH244410   1.809   2.441   1.208  0.4645 -0.0110 -0.0981
 7640TIP3    H144411   1.867   2.511   1.237  1.6387 -1.0322  0.1449
 7640TIP3    H244412   1.866   2.364   1.204 -0.4680 -0.6674 -1.6736
 7641TIP3   OH244413   1.562   1.812  15.876 -0.2962 -0.2657 -0.3313
 7641TIP3    H144414   1.635   1.772  15.828  1.5397  1.6812  0.6797
 7641TIP3    H244415   1.539   1.747  15.943  1.9311 -0.1525  0.6357
 7642TIP3   OH244416   6.670   4.422  17.587  0.4801  0.1683 -0.6535
 7642TIP3    H144417   6.628   4.360  17.527  0.4841 -0.4163 -0.0568
 7642TIP3    H244418   6.716   4.367  17.650  0.4120  0.7849 -0.0600
 7643TIP3   OH244419   2.626   0.307  12.554  0.1360 -0.2569  0.1252
 7643TIP3    H144420   2.638   0.340  12.643  1.6757  1.5364 -0.6823
 7643TIP3    H244421   2.622   0.386  12.499  0.6244 -1.3386 -1.5465
 7644TIP3   OH244422   4.298   4.907  11.699 -0.0022 -1.2765 -0.4064
 7644TIP3    H144423   4.240   4.870  11.632 -1.6660  0.9378 -0.3114
 7644TIP3    H244424   4.239   4.929  11.771  1.1008  0.1793  0.0885
 7645TIP3   OH244425   1.726   6.299  11.495  0.2447 -0.2280 -0.4681
 7645TIP3    H144426   1.717   6.386  11.533 -1.8332  0.2520 -1.8705
 7645TIP3    H244427   1.641   6.281  11.455  0.9372 -2.4878 -1.1075
 7646TIP3   OH244428   2.460   1.535  11.403  0.0670 -1.1242 -0.2717
 7646TIP3    H144429   2.453   1.541  11.308  0.5513 -0.1973 -0.2659
 7646TIP3    H244430   2.507   1.453  11.419  2.1813 -0.1241 -0.9685
 7647TIP3   OH244431   2.481   2.794   1.485 -0.0289 -0.1144 -0.4778
 7647TIP3    H144432   2.455   2.875   1.529  1.5304  0.9015 -1.3351
 7647TIP3    H244433   2.414   2.730   1.510 -0.2403  0.9101  1.7891
 7648TIP3   OH244434   0.145   1.114  12.253 -0.3108  0.2337  0.1529
 7648TIP3    H144435   0.086   1.132  12.326  0.6914 -0.1325  1.0800
 7648TIP3    H244436   0.233   1.131  12.288  0.3603 -1.9919 -0.2902
 7649TIP3   OH244437   1.268   1.190  15.542  0.3225 -0.1609  0.7483
 7649TIP3    H144438   1.221   1.261  15.585 -0.0622  0.5869 -0.8490
 7649TIP3    H244439   1.305   1.230  15.463 -0.5314 -1.8908 -0.5863
 7650TIP3   OH244440   2.377   4.407   0.224  1.0585 -0.0221 -0.4045
 7650TIP3    H144441   2.375   4.403   0.128 -0.0803 -1.5279 -0.3585
 7650TIP3    H244442   2.287   4.392   0.251  1.2197  1.1514  0.9119
 7651TIP3   OH244443   3.238   4.409  13.944 -0.0252  0.0942 -0.4668
 7651TIP3    H144444   3.148   4.385  13.967 -0.3976  2.6191  1.1269
 7651TIP3    H244445   3.289   4.391  14.024  0.6230 -0.0840 -0.9118
 7652TIP3   OH244446   6.682   5.933  12.877  0.3820  0.1981  0.0045
 7652TIP3    H144447   6.734   5.893  12.946  0.2807 -1.4904 -0.8564
 7652TIP3    H244448   6.593   5.906  12.895 -0.0923  2.1367  0.8152
 7653TIP3   OH244449   2.903   5.927  16.730 -0.0476 -0.6150 -0.1240
 7653TIP3    H144450   2.840   5.998  16.740 -0.7569 -1.2614  0.0380
 7653TIP3    H244451   2.861   5.864  16.672  1.5791  0.2285 -2.3633
 7654TIP3   OH244452   6.063   3.866   4.906  0.5214  0.1669 -0.0766
 7654TIP3    H144453   6.119   3.788   4.918  0.4635 -0.2337 -2.0183
 7654TIP3    H244454   6.025   3.854   4.819 -2.3467  0.6215  1.0194
 7655TIP3   OH244455   4.425   6.379   0.396 -0.0388  0.3130  0.0227
 7655TIP3    H144456   4.500   6.325   0.374 -0.3140 -0.1824  0.2800
 7655TIP3    H244457   4.350   6.332   0.360 -0.4476 -0.2532  1.5262
 7656TIP3   OH244458   4.653   4.152  13.086 -0.2127 -0.3355 -0.0259
 7656TIP3    H144459   4.631   4.139  12.994 -1.9433  0.6437  0.2143
 7656TIP3    H244460   4.591   4.217  13.117  0.7490 -0.1734  1.6907
 7657TIP3   OH244461   0.597   5.533   6.377  0.0935 -0.2142 -0.1400
 7657TIP3    H144462   0.609   5.540   6.472 -2.6982 -0.3062  0.3109
 7657TIP3    H244463   0.518   5.584   6.359 -0.0195 -1.0322 -2.2865
 7658TIP3   OH244464   3.242   6.615  15.634 -0.2459 -0.2833  0.1426
 7658TIP3    H144465   3.172   6.552  15.654 -0.7120 -0.6238 -2.2485
 7658TIP3    H244466   3.197   6.689  15.594  0.6631 -0.2702 -0.9275
 7659TIP3   OH244467   6.042   1.978   5.746 -0.9160  0.0438 -0.1731
 7659TIP3    H144468   6.021   2.056   5.695 -0.6924  0.2297  0.0190
 7659TIP3    H244469   5.990   1.987   5.826 -4.1631 -2.0090 -1.8433
 7660TIP3   OH244470   4.631   6.186   0.631  0.0743 -0.5877 -0.0499
 7660TIP3    H144471   4.633   6.220   0.720  1.1741  0.0155 -0.2815
 7660TIP3    H244472   4.674   6.254   0.579 -1.7543 -0.2981 -1.2706
 7661TIP3   OH244473   6.582   5.809   0.278 -0.2126 -0.1086 -0.3699
 7661TIP3    H144474   6.612   5.857   0.356 -0.3474  0.3967 -0.6272
 7661TIP3    H244475   6.518   5.868   0.237  3.3963  1.9663 -3.6534
 7662TIP3   OH244476   2.594   1.695  14.865 -0.0487 -0.4429 -0.0144
 7662TIP3    H144477   2.613   1.760  14.933 -0.7188  0.9745 -1.1205
 7662TIP3    H244478   2.618   1.739  14.783 -0.3038 -1.6898 -0.7766
 7663TIP3   OH244479   1.388   4.705   4.987  0.3133 -0.1219  0.1955
 7663TIP3    H144480   1.408   4.694   5.079 -0.0728 -3.8707 -0.0245
 7663TIP3    H244481   1.341   4.788   4.982  1.8763  1.0723  3.0109
 7664TIP3   OH244482   5.459   4.170   4.257  0.8587 -0.1092  0.1543
 7664TIP3    H144483   5.485   4.261   4.242  1.9869 -0.3540  0.5020
 7664TIP3    H244484   5.503   4.121   4.187  0.5402 -0.4282  0.1753
 7665TIP3   OH244485   4.596   2.863  12.345 -0.6326 -0.7467 -0.2591
 7665TIP3    H144486   4.566   2.848  12.255 -0.3200  1.3104 -0.7518
 7665TIP3    H244487   4.546   2.939  12.374 -0.5089 -1.2054  1.2311
 7666TIP3   OH244488   6.045   3.428  13.465 -0.2883  0.3395 -1.0563
 7666TIP3    H144489   6.079   3.441  13.377  1.9217  1.8885 -0.0719
 7666TIP3    H244490   6.007   3.513  13.488  0.9707  0.6192  0.1540
 7667TIP3   OH244491   1.515   2.273  11.387  0.0419 -0.3572  0.0380
 7667TIP3    H144492   1.458   2.343  11.418 -1.5276 -1.7279  0.4264
 7667TIP3    H244493   1.546   2.229  11.467 -0.8072 -1.4525 -0.2050
 7668TIP3   OH244494   4.703   4.790  15.890  0.1838  0.2087 -0.6530
 7668TIP3    H144495   4.624   4.842  15.878 -0.6210 -0.5297  1.0446
 7668TIP3    H244496   4.759   4.844  15.946 -0.0230 -0.1027 -0.1312
 7669TIP3   OH244497   4.714   0.569  15.453 -0.3202 -0.0041  0.4245
 7669TIP3    H144498   4.682   0.479  15.449 -0.0173 -0.2360  2.4948
 7669TIP3    H244499   4.636   0.624  15.445 -0.6109 -0.4526  0.1661
 7670TIP3   OH244500   4.987   2.235  15.032 -0.0172 -0.3305 -0.3688
 7670TIP3    H144501   4.989   2.140  15.022  1.3991 -0.7193  2.5154
 7670TIP3    H244502   4.896   2.259  15.018 -0.3045 -2.0040 -1.6920
 7671TIP3   OH244503   6.072   2.559   4.469 -0.0331  0.0916 -0.0845
 7671TIP3    H144504   6.109   2.572   4.382  0.1168 -1.1561 -0.2201
 7671TIP3    H244505   6.004   2.626   4.476 -1.0060 -0.6845 -1.7154
 7672TIP3   OH244506   4.824   3.392   1.284  0.1451  0.8920 -0.6974
 7672TIP3    H144507   4.767   3.458   1.243 -2.4331 -0.2969  0.7805
 7672TIP3    H244508   4.778   3.365   1.363  2.1397 -1.1806 -0.1273
 7673TIP3   OH244509   2.052   5.690   0.161 -0.2047  0.2974  0.5041
 7673TIP3    H144510   2.043   5.719   0.070 -0.1453  1.1680  0.7677
 7673TIP3    H244511   1.978   5.631   0.175 -0.2885  0.2578 -0.0630
 7674TIP3   OH244512   2.405   3.027  17.612 -0.7121 -0.0435  0.2869
 7674TIP3    H144513   2.472   3.093  17.592 -2.0370  0.8847 -1.3147
 7674TIP3    H244514   2.385   2.987  17.527 -1.4291 -1.0524  0.9162
 7675TIP3   OH244515   3.434   5.635   4.194  0.4527 -0.0358  0.0841
 7675TIP3    H144516   3.511   5.680   4.158 -0.4289  1.9354  0.5521
 7675TIP3    H244517   3.468   5.551   4.226  2.0403 -0.0131 -1.4227
 7676TIP3   OH244518   6.345   5.017   5.058  0.6018  0.0940  0.5231
 7676TIP3    H144519   6.325   5.107   5.085  0.3763  0.2745 -0.2369
 7676TIP3    H244520   6.260   4.973   5.061  0.6731 -0.0328  0.6627
 7677TIP3   OH244521   4.921   2.014   4.049  0.0206  0.7604 -0.1063
 7677TIP3    H144522   4.911   2.036   3.956  1.6064 -0.7792 -0.7140
 7677TIP3    H244523   4.944   2.096   4.091  2.1075  1.0550 -1.6278
 7678TIP3   OH244524   0.987   0.682   5.655  0.0099 -0.2029 -0.4709
 7678TIP3    H144525   1.063   0.653   5.604 -0.7378 -1.8981 -0.7127
 7678TIP3    H244526   0.966   0.607   5.711  0.0541  1.1661  1.4800
 7679TIP3   OH244527   3.783   3.700   0.920  0.0920  0.1578 -0.1896
 7679TIP3    H144528   3.735   3.782   0.912 -1.5433 -0.7995 -0.6528
 7679TIP3    H244529   3.745   3.643   0.853  0.3932 -1.3418  0.8635
 7680TIP3   OH244530   5.346   3.136  13.238  0.0883  0.5444 -0.2453
 7680TIP3    H144531   5.415   3.163  13.178  2.4467  1.2206  2.5331
 7680TIP3    H244532   5.292   3.214  13.251 -0.6346  0.3019 -1.6439
 7681TIP3   OH244533   5.158   1.909   5.477 -0.3634  0.3545 -0.0608
 7681TIP3    H144534   5.231   1.971   5.485 -0.2911  0.3604 -0.6645
 7681TIP3    H244535   5.080   1.962   5.493 -0.2232  0.2937  0.8470
 7682TIP3   OH244536   2.255   5.394  13.140  0.5706  0.4437 -0.1223
 7682TIP3    H144537   2.221   5.460  13.201 -0.8645  0.2270 -0.6478
 7682TIP3    H244538   2.179   5.340  13.119  1.0998  0.3109 -1.8379
 7683TIP3   OH244539   6.058   2.165  11.567 -0.0011  0.2006  0.0497
 7683TIP3    H144540   6.128   2.228  11.586 -1.5141  1.6570  1.0660
 7683TIP3    H244541   6.077   2.135  11.478  0.6903  2.2833 -0.5745
 7684TIP3   OH244542   5.293   5.192  14.798  0.0038  0.7877  0.3406
 7684TIP3    H144543   5.205   5.230  14.809  0.9682  2.7175  2.3735
 7684TIP3    H244544   5.320   5.169  14.887  0.9037 -1.5046 -0.4517
 7685TIP3   OH244545   2.767   5.708   0.950 -0.2644  0.2449 -0.4334
 7685TIP3    H144546   2.849   5.756   0.945 -1.2969  2.0161 -2.0710
 7685TIP3    H244547   2.699   5.776   0.947 -1.8650 -0.9921  2.6522
 7686TIP3   OH244548   1.885   6.318   0.014 -0.5488  0.3632 -0.0767
 7686TIP3    H144549   1.946   6.351  -0.052  0.7666 -0.6344  0.5884
 7686TIP3    H244550   1.910   6.361   0.095 -1.1365  0.3978  0.0963
 7687TIP3   OH244551   4.463   1.646  15.691 -0.0661 -0.2846 -0.1465
 7687TIP3    H144552   4.463   1.609  15.602  1.8686 -1.3013  0.2129
 7687TIP3    H244553   4.523   1.590  15.740 -0.4394  0.7692  1.6070
 7688TIP3   OH244554   4.109   0.549  10.720 -0.3181 -0.0396 -0.2621
 7688TIP3    H144555   4.082   0.462  10.750 -1.6163 -0.2208 -1.8148
 7688TIP3    H244556   4.051   0.609  10.766  2.0501  0.2961  2.5761
 7689TIP3   OH244557   2.556   2.490  16.971  0.6421  0.0068  0.6394
 7689TIP3    H144558   2.536   2.529  16.885 -1.0777 -3.1824 -0.5682
 7689TIP3    H244559   2.522   2.553  17.034 -0.9884  0.9978 -1.1208
 7690TIP3   OH244560   2.897   4.444   4.918 -0.2357  0.8071 -0.1846
 7690TIP3    H144561   2.990   4.450   4.900  0.2217 -1.5331  0.9801
 7690TIP3    H244562   2.863   4.532   4.903  2.4077  2.0835  0.8389
 7691TIP3   OH244563   0.669   4.565   2.527  0.3658 -0.6234 -0.5441
 7691TIP3    H144564   0.651   4.562   2.434  0.7570  1.5658 -0.7353
 7691TIP3    H244565   0.607   4.629   2.562  1.5743  0.0997  0.3360
 7692TIP3   OH244566   2.980   2.285  15.566 -0.0221 -0.0116  0.0971
 7692TIP3    H144567   3.047   2.230  15.607 -1.2490 -1.6094  0.0334
 7692TIP3    H244568   3.030   2.353  15.520  1.5452 -1.0358  0.2066
 7693TIP3   OH244569   3.088   5.117  14.054  0.0189  0.8940 -0.5962
 7693TIP3    H144570   3.000   5.094  14.086  0.9978 -2.0163  0.3310
 7693TIP3    H244571   3.085   5.212  14.043 -3.0713  0.9709 -0.0871
 7694TIP3   OH244572   6.624   2.814  16.075 -0.0835 -0.0090 -0.2308
 7694TIP3    H144573   6.605   2.888  16.132  0.8507 -1.7809  2.5971
 7694TIP3    H244574   6.720   2.816  16.066 -0.0994 -0.5593 -0.5495
 7695TIP3   OH244575   3.234   3.859  16.013  0.5300  0.0916  0.1178
 7695TIP3    H144576   3.195   3.798  16.074 -1.1451  0.2671 -0.7072
 7695TIP3    H244577   3.254   3.936  16.065 -1.8849  0.6636  0.3268
 7696TIP3   OH244578   6.072   5.253   1.163 -0.0430 -0.2514  0.2387
 7696TIP3    H144579   6.050   5.191   1.232 -0.8042  0.5437  0.7336
 7696TIP3    H244580   6.098   5.332   1.210  1.9352 -0.4858 -0.3527
 7697TIP3   OH244581   1.682   5.236   1.219  0.0463  0.8089  0.3119
 7697TIP3    H144582   1.702   5.298   1.148 -3.0027 -0.7871 -2.2246
 7697TIP3    H244583   1.713   5.152   1.187 -1.3439  0.0606  0.8278
 7698TIP3   OH244584   3.207   1.759  11.584  0.7097  0.3996 -0.1915
 7698TIP3    H144585   3.260   1.813  11.525  0.5437  1.0889  0.2842
 7698TIP3    H244586   3.265   1.685  11.606  0.5946 -0.1332 -1.5949
 7699TIP3   OH244587   4.913   1.347  16.835  0.0794  0.3425  0.0990
 7699TIP3    H144588   4.880   1.301  16.757  1.3852  0.8308 -0.7623
 7699TIP3    H244589   4.834   1.367  16.885 -0.8187  0.2856 -1.2386
 7700TIP3   OH244590   6.117   2.127  16.480 -0.2833  0.1830  0.1640
 7700TIP3    H144591   6.039   2.179  16.499 -0.5931 -0.0385 -0.4694
 7700TIP3    H244592   6.098   2.041  16.517  0.4722  0.6503  1.7501
 7701TIP3   OH244593   0.334   4.059  12.708 -0.4574  0.2347 -0.0463
 7701TIP3    H144594   0.317   4.075  12.615  0.5168 -3.3994 -1.0042
 7701TIP3    H244595   0.429   4.055  12.715 -0.4473  1.7854  1.4633
 7702TIP3   OH244596   3.131   6.659   6.543 -0.6100  0.0664 -0.0208
 7702TIP3    H144597   3.082   6.731   6.503 -0.9007  1.0384  1.9565
 7702TIP3    H244598   3.209   6.701   6.580 -1.1433 -0.4628  1.7900
 7703TIP3   OH244599   3.983   5.687  13.816  0.0181  1.3306  0.1581
 7703TIP3    H144600   3.926   5.654  13.886  1.4516  0.8026  1.1378
 7703TIP3    H244601   4.065   5.709  13.861  1.0244  0.8853 -1.3628
 7704TIP3   OH244602   1.039   0.700  13.428  0.7109  0.1467 -0.4154
 7704TIP3    H144603   0.986   0.660  13.358  0.8785 -0.9662  0.0745
 7704TIP3    H244604   1.057   0.628  13.488 -0.7587  1.3718  1.6255
 7705TIP3   OH244605   2.725   2.850   0.685 -0.3578  0.0631  0.6443
 7705TIP3    H144606   2.782   2.838   0.761 -1.5233  0.0891  1.5560
 7705TIP3    H244607   2.773   2.910   0.628  1.7563 -2.0572  0.0405
 7706TIP3   OH244608   2.746   5.757   0.573  0.2866  0.3572 -0.0693
 7706TIP3    H144609   2.685   5.692   0.609 -2.3052  1.5083 -2.0068
 7706TIP3    H244610   2.791   5.709   0.503 -0.6050  0.2378 -0.5827
 7707TIP3   OH244611   1.002   0.230   5.058 -0.4920 -0.5117  0.0390
 7707TIP3    H144612   1.088   0.270   5.073 -0.1738 -0.4093 -1.8206
 7707TIP3    H244613   0.986   0.242   4.964 -1.7079 -2.1719 -0.0111
 7708TIP3   OH244614   4.599   0.186  13.937 -0.7302  0.3115 -0.3188
 7708TIP3    H144615   4.671   0.127  13.916 -0.1000  1.0128 -0.1672
 7708TIP3    H244616   4.530   0.128  13.971  0.1104 -0.2718  0.4344
 7709TIP3   OH244617   1.767   5.157   3.173  0.2033  0.0013  0.7369
 7709TIP3    H144618   1.746   5.104   3.097 -2.1019 -0.5579  1.6463
 7709TIP3    H244619   1.795   5.094   3.240 -0.6617  0.0964  1.2171
 7710TIP3   OH244620   6.444   6.379  12.304  0.0029  0.0552  0.0499
 7710TIP3    H144621   6.507   6.419  12.363 -0.0397  1.5024 -0.8434
 7710TIP3    H244622   6.382   6.334  12.362  0.4066  0.7671  1.0591
 7711TIP3   OH244623   2.471   5.202   4.647  0.0257  0.0768 -0.1904
 7711TIP3    H144624   2.526   5.260   4.595  0.6830  1.1032  1.5453
 7711TIP3    H244625   2.439   5.257   4.718 -2.3641 -0.7991 -0.5179
 7712TIP3   OH244626   5.627   2.504   2.051 -0.2784 -0.3640 -0.5881
 7712TIP3    H144627   5.681   2.581   2.032 -0.4195 -0.1185 -0.0191
 7712TIP3    H244628   5.583   2.485   1.969 -0.5381  0.3964 -0.6335
 7713TIP3   OH244629   3.791   5.116  16.946  0.3525  0.1588 -0.0607
 7713TIP3    H144630   3.877   5.079  16.925  0.4621  1.0660 -1.3084
 7713TIP3    H244631   3.801   5.210  16.930 -0.9633  0.2362 -0.4914
 7714TIP3   OH244632   0.216   5.855  12.378 -0.4594 -0.4112  0.2079
 7714TIP3    H144633   0.142   5.829  12.433 -2.2876  0.1412 -1.8435
 7714TIP3    H244634   0.238   5.943  12.408 -1.1619 -0.2640  0.3099
 7715TIP3   OH244635   3.155   3.322   2.941 -0.0972 -0.3885  0.2387
 7715TIP3    H144636   3.070   3.317   2.897 -0.9565  0.6434  1.6817
 7715TIP3    H244637   3.180   3.415   2.933  0.1360 -0.3622  1.1505
 7716TIP3   OH244638   5.499   5.342   2.211 -0.3461  0.1447  0.3149
 7716TIP3    H144639   5.575   5.379   2.165  1.0320 -2.1378  0.5735
 7716TIP3    H244640   5.442   5.312   2.140 -2.1912  3.7342  0.0468
 7717TIP3   OH244641   2.291   2.299  11.874 -0.2524  0.1645 -0.9555
 7717TIP3    H144642   2.264   2.340  11.792  1.3952  2.1827 -0.5590
 7717TIP3    H244643   2.310   2.372  11.933  0.8263 -1.1908  0.4607
 7718TIP3   OH244644   4.928   5.839   2.208 -0.2849  0.1506 -0.0057
 7718TIP3    H144645   5.001   5.792   2.168 -1.5383 -0.8655 -1.1869
 7718TIP3    H244646   4.939   5.930   2.178  2.0522  0.6931  2.1589
 7719TIP3   OH244647   1.330   5.353   2.595 -0.2031 -0.1700  0.3286
 7719TIP3    H144648   1.378   5.321   2.519  1.0388  0.1346  0.9635
 7719TIP3    H244649   1.275   5.424   2.560  2.2060  1.7120  0.0844
 7720TIP3   OH244650   6.096   1.631   2.566  0.4614  0.5213  0.1888
 7720TIP3    H144651   6.069   1.722   2.553  0.9373  0.9440  1.9530
 7720TIP3    H244652   6.178   1.636   2.615 -0.5543 -0.8620  2.1754
 7721TIP3   OH244653   4.249   5.327   4.665  0.2908 -0.2590 -1.3206
 7721TIP3    H144654   4.189   5.253   4.658  0.1999 -0.1444 -1.7766
 7721TIP3    H244655   4.237   5.359   4.754 -0.4076 -0.1721 -1.4401
 7722TIP3   OH244656   2.224   0.378  16.808  0.1910  0.2087  0.0028
 7722TIP3    H144657   2.164   0.432  16.756  1.3933  0.4344 -1.1987
 7722TIP3    H244658   2.171   0.349  16.882 -1.4652  0.2129 -1.1206
 7723TIP3   OH244659   6.249   2.822  16.574 -0.5605  0.0512  0.2114
 7723TIP3    H144660   6.253   2.839  16.668  0.5201  2.0531 -0.1434
 7723TIP3    H244661   6.209   2.735  16.567 -0.0005 -0.4523  2.5268
 7724TIP3   OH244662   1.685   3.149   1.033 -0.4149  0.5211 -0.4582
 7724TIP3    H144663   1.770   3.112   1.056 -0.3686 -0.3587 -1.9041
 7724TIP3    H244664   1.705   3.238   1.004 -0.3847  1.3643  1.9349
 7725TIP3   OH244665   2.775   4.216   2.180  0.5161  0.3707  0.2358
 7725TIP3    H144666   2.815   4.220   2.093  1.2411  1.2703  0.5858
 7725TIP3    H244667   2.806   4.133   2.217 -0.3471 -0.3463 -0.6041
 7726TIP3   OH244668   0.341   0.784  11.550 -0.1936  0.1160 -0.4987
 7726TIP3    H144669   0.331   0.868  11.595  0.8529 -0.0727  0.1175
 7726TIP3    H244670   0.436   0.770  11.547 -0.3373 -0.8339 -1.0003
 7727TIP3   OH244671   0.085   2.870  17.329  0.6633 -0.1448  0.2762
 7727TIP3    H144672   0.001   2.910  17.307  0.9325 -0.2283 -0.9494
 7727TIP3    H244673   0.070   2.776  17.324  1.3908 -0.1982 -2.4067
 7728TIP3   OH244674   5.702   0.426   3.316  0.6059  0.1567 -0.3914
 7728TIP3    H144675   5.784   0.381   3.295  1.0493  0.9695 -0.4734
 7728TIP3    H244676   5.726   0.519   3.315 -0.8695  0.5959 -2.9962
 7729TIP3   OH244677   1.275   5.760  15.341 -0.3869  0.1617  0.0654
 7729TIP3    H144678   1.363   5.726  15.330 -0.0935  0.9010  0.0878
 7729TIP3    H244679   1.245   5.776  15.251 -0.4945 -0.0659  0.0589
 7730TIP3   OH244680   5.102   2.095   2.995  0.7977 -0.9133 -0.0387
 7730TIP3    H144681   5.136   2.006   2.989  0.3260 -1.2825  2.0600
 7730TIP3    H244682   5.114   2.119   3.087 -0.9818  0.4165 -0.1015
 7731TIP3   OH244683   0.493   2.775  11.903 -0.1997 -0.0507 -0.1697
 7731TIP3    H144684   0.471   2.841  11.837 -1.3927  1.0936  1.3020
 7731TIP3    H244685   0.408   2.738  11.928  0.2328 -0.3917  0.8152
 7732TIP3   OH244686   0.430   0.777  13.277  0.0470 -0.2635 -0.0603
 7732TIP3    H144687   0.347   0.774  13.325 -0.9680  0.6393 -1.6637
 7732TIP3    H244688   0.404   0.767  13.185  1.6608  0.6630 -0.6457
 7733TIP3   OH244689   1.746   4.472   3.866 -0.3508 -0.0522  0.1656
 7733TIP3    H144690   1.738   4.528   3.943  0.4395  0.1835  0.0803
 7733TIP3    H244691   1.826   4.422   3.881 -0.0272  0.2166 -0.6410
 7734TIP3   OH244692   4.606   3.334   5.614 -0.0872  0.3505  0.5374
 7734TIP3    H144693   4.620   3.322   5.708  0.9058  0.6739  0.4342
 7734TIP3    H244694   4.605   3.244   5.579  0.7304  0.2743  0.6944
 7735TIP3   OH244695   1.508   3.248   6.448 -0.2533  0.2508  0.7522
 7735TIP3    H144696   1.595   3.256   6.486  0.9593  2.0535 -2.0550
 7735TIP3    H244697   1.497   3.154   6.433  1.8065  0.0863 -0.0548
 7736TIP3   OH244698   2.209   5.041  15.818 -0.4270  0.0548  0.0253
 7736TIP3    H144699   2.115   5.026  15.808 -0.8066  2.2847 -0.3401
 7736TIP3    H244700   2.226   5.022  15.911 -1.1245 -0.8466 -0.0147
 7737TIP3   OH244701   0.583   5.121   5.724  0.3944 -0.0826  0.2911
 7737TIP3    H144702   0.607   5.129   5.816 -0.2346 -1.7943  0.6372
 7737TIP3    H244703   0.563   5.211   5.697 -0.5286  0.3250  2.1396
 7738TIP3   OH244704   0.919   0.344  12.495 -0.1094 -0.4728 -0.1539
 7738TIP3    H144705   0.880   0.389  12.420 -1.6843 -1.4443  0.0348
 7738TIP3    H244706   1.009   0.327  12.468 -0.7419 -1.1516 -2.0137
 7739TIP3   OH244707   0.207   1.876   3.001 -0.0183 -0.1697 -0.1009
 7739TIP3    H144708   0.288   1.904   3.043  0.6928  1.0507 -2.1420
 7739TIP3    H244709   0.152   1.955   3.001 -0.0921 -0.2098 -1.1844
 7740TIP3   OH244710   4.727   0.450   1.070  0.1536  0.1684 -0.0925
 7740TIP3    H144711   4.724   0.357   1.095  1.4824 -0.4919 -2.1005
 7740TIP3    H244712   4.815   0.478   1.094 -1.1639  1.9116  3.3738
 7741TIP3   OH244713   4.177   3.755   1.693  1.1915 -0.2223  0.1376
 7741TIP3    H144714   4.169   3.850   1.703 -0.0239 -0.2248 -0.5878
 7741TIP3    H244715   4.179   3.722   1.783 -0.0426  0.3795  0.4045
 7742TIP3   OH244716   4.889   0.207   3.519 -0.1004 -0.5928  0.4888
 7742TIP3    H144717   4.804   0.236   3.485  0.4775  2.2345  1.1507
 7742TIP3    H244718   4.875   0.192   3.612  0.1525  0.2349  0.6745
 7743TIP3   OH244719   2.148   0.927  13.529 -0.0241  0.2156  0.5688
 7743TIP3    H144720   2.199   1.003  13.500 -1.3298  1.0284  0.3381
 7743TIP3    H244721   2.058   0.947  13.503 -0.2701 -1.8598 -0.4296
 7744TIP3   OH244722   4.336   2.740   3.126 -0.1791 -0.5282 -0.0545
 7744TIP3    H144723   4.279   2.711   3.055 -0.1447 -1.4152  0.2703
 7744TIP3    H244724   4.278   2.789   3.185 -0.3640 -0.4525 -0.2978
 7745TIP3   OH244725   0.181   0.889  15.916 -0.0026 -0.4294  0.9916
 7745TIP3    H144726   0.267   0.929  15.911 -0.2472  0.0242  0.1950
 7745TIP3    H244727   0.183   0.819  15.851 -0.3231 -0.2289  0.7598
 7746TIP3   OH244728   1.114   2.407  13.552 -0.1843 -0.4366 -0.4251
 7746TIP3    H144729   1.085   2.366  13.633  1.3718 -2.9367 -1.0088
 7746TIP3    H244730   1.037   2.406  13.495 -0.9172  0.1000  0.5335
 7747TIP3   OH244731   4.045   0.097   5.730 -0.0931  0.4222  0.1757
 7747TIP3    H144732   3.973   0.067   5.675  0.6326 -0.2464 -0.4311
 7747TIP3    H244733   4.021   0.187   5.754 -0.7350  0.4878 -0.6731
 7748TIP3   OH244734   2.964   6.410   1.712 -0.0414  0.2898  0.3743
 7748TIP3    H144735   2.916   6.460   1.778  0.4050  0.8353  0.2932
 7748TIP3    H244736   3.056   6.417   1.739  0.1185  0.2959 -0.1629
 7749TIP3   OH244737   1.147   2.641  11.559  0.0504 -0.2794  0.0943
 7749TIP3    H144738   1.220   2.701  11.577 -0.8308  0.2476  2.2988
 7749TIP3    H244739   1.128   2.653  11.466  3.0917 -0.8456 -0.6889
 7750TIP3   OH244740   2.326   0.856   5.395  0.5859 -0.3789 -0.7416
 7750TIP3    H144741   2.253   0.895   5.443  0.9131 -0.5979 -0.0625
 7750TIP3    H244742   2.317   0.891   5.306  1.1010  1.5848 -0.0787
 7751TIP3   OH244743   6.517   4.833   1.670 -0.9859 -0.2907  0.2764
 7751TIP3    H144744   6.460   4.758   1.689  0.6835 -1.5108  0.7146
 7751TIP3    H244745   6.514   4.886   1.750 -1.0974 -0.6251  0.4962
 7752TIP3   OH244746   1.271   3.997   1.695 -0.0813  0.3683  0.1364
 7752TIP3    H144747   1.304   4.064   1.756 -0.7087  1.8886 -1.1278
 7752TIP3    H244748   1.252   4.045   1.615  0.9808 -1.6057 -1.4044
 7753TIP3   OH244749   2.587   6.290   3.983  0.2107 -0.2229  0.4613
 7753TIP3    H144750   2.635   6.262   3.905  1.1288  1.4436  0.3993
 7753TIP3    H244751   2.537   6.367   3.955 -0.1110 -0.1057  1.3141
 7754TIP3   OH244752   3.726   5.029  12.830 -0.7725  0.1568  0.2352
 7754TIP3    H144753   3.697   4.993  12.746  2.2656 -1.1168 -0.4031
 7754TIP3    H244754   3.678   4.979  12.896 -1.1864 -0.7700 -0.7423
 7755TIP3   OH244755   5.969   1.920   0.588  0.4195 -0.4027 -0.4433
 7755TIP3    H144756   6.061   1.898   0.580  0.3002 -0.5791 -1.5501
 7755TIP3    H244757   5.966   1.988   0.655  1.6676  1.3883 -2.0952
 7756TIP3   OH244758   1.437   1.557  17.510 -0.8610 -0.4062  0.1153
 7756TIP3    H144759   1.382   1.628  17.542  1.7805  2.8932 -1.9591
 7756TIP3    H244760   1.406   1.540  17.421  0.2285  0.1761 -0.3968
 7757TIP3   OH244761   0.190   1.412  10.885  0.2125  0.4703 -0.1896
 7757TIP3    H144762   0.261   1.428  10.823 -1.7471 -0.1671 -2.7776
 7757TIP3    H244763   0.220   1.337  10.936  1.0622 -0.3755 -1.8388
 7758TIP3   OH244764   2.234   6.113   3.982 -0.1678  0.8635  0.1235
 7758TIP3    H144765   2.281   6.078   4.057 -1.6644 -1.2685  0.1725
 7758TIP3    H244766   2.302   6.136   3.919  1.0344 -1.9246  0.2602
 7759TIP3   OH244767   5.505   5.927  13.156 -0.2497  0.2127  0.3057
 7759TIP3    H144768   5.556   5.917  13.076 -0.7954  3.1409 -0.5117
 7759TIP3    H244769   5.429   5.870  13.144  0.8755 -1.2319 -0.1478
 7760TIP3   OH244770   4.381   4.517  11.565  0.3765  0.6798  0.1731
 7760TIP3    H144771   4.444   4.576  11.524  1.0142  0.4825  0.8586
 7760TIP3    H244772   4.326   4.574  11.619  0.2108  0.8022 -0.1246
 7761TIP3   OH244773   2.636   0.568   1.297 -0.1329 -0.2181  0.2681
 7761TIP3    H144774   2.603   0.610   1.376  0.1258  0.3100  0.1025
 7761TIP3    H244775   2.692   0.635   1.256 -0.7940 -0.2459 -0.7084
 7762TIP3   OH244776   1.404   4.650   2.552 -0.0542 -0.1564  0.2851
 7762TIP3    H144777   1.362   4.574   2.514 -0.2670  1.1506 -2.2763
 7762TIP3    H244778   1.489   4.618   2.583 -0.5775 -1.6246  0.2493
 7763TIP3   OH244779   3.038   3.262   3.274  0.3855  0.1862 -0.1129
 7763TIP3    H144780   3.130   3.244   3.296  1.0563  3.1027 -0.1003
 7763TIP3    H244781   3.039   3.279   3.180 -0.5163 -1.4774 -0.4646
 7764TIP3   OH244782   6.642   1.514  13.979 -0.4946  0.7185 -0.4409
 7764TIP3    H144783   6.618   1.429  14.017 -0.0523  1.2634  1.1596
 7764TIP3    H244784   6.722   1.495  13.929 -0.7217  0.0826 -0.5754
 7765TIP3   OH244785   5.477   1.842  15.361 -0.1409  1.0482  0.9232
 7765TIP3    H144786   5.489   1.919  15.416  1.2244  1.0083  0.7156
 7765TIP3    H244787   5.556   1.839  15.306 -1.4896  1.1575 -1.1284
 7766TIP3   OH244788   5.780   5.709   0.716  0.0488 -0.2263  0.8716
 7766TIP3    H144789   5.809   5.636   0.771  1.5088 -0.1938  0.1954
 7766TIP3    H244790   5.724   5.668   0.650  1.2007 -0.8482  0.2359
 7767TIP3   OH244791   5.962   5.612   5.556 -0.1093 -0.0558  0.2372
 7767TIP3    H144792   5.974   5.657   5.472 -2.4694  1.5978  0.6844
 7767TIP3    H244793   5.977   5.519   5.536  0.3311  0.4047 -1.7874
 7768TIP3   OH244794   1.891   3.611  11.604  0.0949  0.0428 -0.5146
 7768TIP3    H144795   1.836   3.608  11.527  0.8272 -0.5032 -1.0338
 7768TIP3    H244796   1.890   3.702  11.632 -1.4905 -0.0546 -0.1832
 7769TIP3   OH244797   3.138   6.627  13.094 -0.1796 -0.2371 -0.2122
 7769TIP3    H144798   3.164   6.604  13.005  0.2895 -0.9166  0.0864
 7769TIP3    H244799   3.102   6.546  13.131  2.7936 -1.0443  1.3215
 7770TIP3   OH244800   5.749   4.530   5.939  0.1596 -0.1776  0.0451
 7770TIP3    H144801   5.765   4.560   6.028  0.3590  0.3053 -0.1547
 7770TIP3    H244802   5.676   4.583   5.908 -0.6282 -1.0774  0.2901
 7771TIP3   OH244803   3.825   3.095   0.423 -0.4798 -0.3054  0.1457
 7771TIP3    H144804   3.881   3.167   0.394  1.1924 -1.3677  0.5442
 7771TIP3    H244805   3.754   3.136   0.471  1.3531  1.0126  1.8687
 7772TIP3   OH244806   0.394   4.540   2.818 -0.7491 -0.2360  0.2873
 7772TIP3    H144807   0.347   4.457   2.820 -2.3242  0.5755 -1.0062
 7772TIP3    H244808   0.354   4.592   2.888 -0.2071 -0.3287  0.6723
 7773TIP3   OH244809   0.152   1.395   2.172 -0.5356 -1.0888 -0.4696
 7773TIP3    H144810   0.230   1.340   2.184 -1.0063 -1.5738  0.5591
 7773TIP3    H244811   0.117   1.406   2.261 -0.9761  0.1096 -0.7804
 7774TIP3   OH244812   6.184   3.473   5.055  0.2923 -0.3039  0.1544
 7774TIP3    H144813   6.107   3.459   5.111  1.0820  0.6883  1.5465
 7774TIP3    H244814   6.148   3.498   4.970 -0.9335 -1.1443  0.4058
 7775TIP3   OH244815   2.239   0.611  16.932 -0.4484 -0.1410 -0.2229
 7775TIP3    H144816   2.292   0.541  16.894  1.2996  1.2094 -0.4084
 7775TIP3    H244817   2.158   0.568  16.959 -0.1469 -1.8799 -1.8961
 7776TIP3   OH244818   5.503   0.549  11.674 -0.0126 -0.1460  0.3001
 7776TIP3    H144819   5.503   0.634  11.718  1.0310  0.9599 -1.7370
 7776TIP3    H244820   5.414   0.516  11.686 -0.6741  1.5993  0.4217
 7777TIP3   OH244821   3.283   4.742   4.337  0.0028  0.4098  0.4365
 7777TIP3    H144822   3.373   4.744   4.369  0.3113 -3.0259  0.2111
 7777TIP3    H244823   3.233   4.707   4.410 -0.9041  0.8893  0.0580
 7778TIP3   OH244824   4.628   0.112   5.013 -0.0248 -0.0643 -0.2109
 7778TIP3    H144825   4.573   0.090   4.938 -0.0362  0.1363 -0.2609
 7778TIP3    H244826   4.571   0.101   5.089  0.0216 -0.3888 -0.2222
 7779TIP3   OH244827   5.801   0.938   0.318  0.1271  0.2359  0.2196
 7779TIP3    H144828   5.732   0.984   0.270  0.2408 -0.2001 -0.3782
 7779TIP3    H244829   5.865   0.916   0.251  0.1175 -0.7064  0.5116
 7780TIP3   OH244830   3.779   3.840  14.115 -0.0832  0.2119 -0.3361
 7780TIP3    H144831   3.710   3.840  14.048 -0.3370  1.3454 -0.0941
 7780TIP3    H244832   3.733   3.830  14.198  0.1818 -0.5378 -0.2648
 7781TIP3   OH244833   1.985   6.145   0.776  0.2703 -0.7783 -0.3605
 7781TIP3    H144834   1.992   6.238   0.754 -1.4767  0.3909  3.2662
 7781TIP3    H244835   1.917   6.111   0.718  1.2160  0.0367 -2.0139
 7782TIP3   OH244836   0.541   0.794  12.329 -0.0786  0.3968  0.1797
 7782TIP3    H144837   0.567   0.884  12.308  0.1780  0.0723 -0.9508
 7782TIP3    H244838   0.612   0.760  12.382 -0.2183  0.8807  0.6945
 7783TIP3   OH244839   0.036   4.685  15.033  0.2452 -0.0074  0.0336
 7783TIP3    H144840   0.068   4.697  14.944  0.3921 -0.5398  0.0093
 7783TIP3    H244841  -0.059   4.684  15.024  0.1325  2.7806  0.2627
 7784TIP3   OH244842   1.647   2.136  10.734  0.0726  0.6040 -0.5194
 7784TIP3    H144843   1.724   2.107  10.684  0.3129 -0.4437  0.4250
 7784TIP3    H244844   1.647   2.081  10.812  0.0231  2.5894  0.9423
 7785TIP3   OH244845   3.922   3.706   0.610  0.2289 -0.6162 -0.1498
 7785TIP3    H144846   3.853   3.646   0.638 -0.3736  0.0536 -0.1515
 7785TIP3    H244847   3.888   3.746   0.530  0.6407 -0.3172 -0.1777
 7786TIP3   OH244848   5.175   0.217  17.281 -0.3938 -0.1312 -0.3803
 7786TIP3    H144849   5.233   0.185  17.351 -0.0254  1.9257  0.3314
 7786TIP3    H244850   5.220   0.194  17.200  0.5647 -0.1139  0.1330
 7787TIP3   OH244851   0.530   2.685   6.294  0.1580  0.2744  0.3374
 7787TIP3    H144852   0.604   2.742   6.273  0.7767 -0.9598 -1.0579
 7787TIP3    H244853   0.489   2.667   6.210 -1.6739  0.8063  1.0704
 7788TIP3   OH244854   2.860   2.851   0.917 -0.0591 -0.3107  0.3830
 7788TIP3    H144855   2.935   2.908   0.900 -0.5897 -0.4179 -3.2356
 7788TIP3    H244856   2.799   2.905   0.966  0.6753  1.2533 -0.3527
 7789TIP3   OH244857   5.043   2.599   0.668  0.3926  0.2843 -0.1979
 7789TIP3    H144858   4.948   2.589   0.666  0.3986 -0.3244  1.2890
 7789TIP3    H244859   5.076   2.523   0.620  0.1742 -1.3686  2.1376
 7790TIP3   OH244860   0.694   5.321  11.925 -0.2483 -0.1116  0.4063
 7790TIP3    H144861   0.734   5.396  11.969  1.6316 -0.9476  0.2367
 7790TIP3    H244862   0.662   5.266  11.997 -0.0253  0.0169  0.6069
 7791TIP3   OH244863   6.545   0.926   0.429 -0.0107  0.3638  0.6081
 7791TIP3    H144864   6.497   0.960   0.503 -1.1243 -0.7136  0.4157
 7791TIP3    H244865   6.482   0.925   0.357  0.7255  0.3406 -0.0544
 7792TIP3   OH244866   1.421   0.429  15.669  0.4142 -0.0929  0.1850
 7792TIP3    H144867   1.470   0.468  15.597  0.4456 -1.1590 -0.3995
 7792TIP3    H244868   1.446   0.479  15.746  1.7116 -0.0185 -0.2631
 7793TIP3   OH244869   5.288   2.917  12.029 -0.5358 -0.2227  0.5844
 7793TIP3    H144870   5.319   2.849  12.089  0.6150 -1.0937 -0.9046
 7793TIP3    H244871   5.201   2.940  12.061 -1.2089 -2.8137  0.8303
 7794TIP3   OH244872   2.157   2.086   2.111  0.3877  0.2571 -0.9540
 7794TIP3    H144873   2.121   2.100   2.199  0.3385 -1.2100 -0.7100
 7794TIP3    H244874   2.171   2.174   2.077 -0.6878  0.8695  0.0732
 7795TIP3   OH244875   4.118   2.982  13.458 -0.7009 -0.6218  0.2020
 7795TIP3    H144876   4.096   2.929  13.535 -2.0376 -1.5679 -0.7836
 7795TIP3    H244877   4.101   2.925  13.383 -0.5395  0.6437 -0.8507
 7796TIP3   OH244878   1.737   5.223  14.412  0.6185 -0.1962  0.2222
 7796TIP3    H144879   1.787   5.268  14.480 -1.2173  1.2418  0.7220
 7796TIP3    H244880   1.756   5.273  14.332 -0.6811  0.9691  0.5970
 7797TIP3   OH244881   6.448   4.879   3.431 -0.3188  0.2304  0.1579
 7797TIP3    H144882   6.469   4.917   3.345 -0.2741  1.8734  0.8620
 7797TIP3    H244883   6.533   4.849   3.465 -0.1830  0.4675  0.0347
 7798TIP3   OH244884   2.186   0.661  15.872 -0.2613 -0.1659 -0.2064
 7798TIP3    H144885   2.258   0.711  15.835 -0.3417  0.2563  0.2010
 7798TIP3    H244886   2.187   0.577  15.824 -0.3694  0.3662 -1.1662
 7799TIP3   OH244887   4.128   0.060  12.679  0.2218  0.2521 -0.1563
 7799TIP3    H144888   4.143   0.067  12.584 -0.0573  1.7326 -0.1179
 7799TIP3    H244889   4.123   0.151  12.709 -2.3805 -0.1530  0.8666
 7800TIP3   OH244890   1.337   4.212   2.697  0.2945 -0.1252  0.1468
 7800TIP3    H144891   1.358   4.287   2.641  0.0540 -1.1222 -1.3621
 7800TIP3    H244892   1.289   4.249   2.771 -2.6334  0.9433 -2.0807
 7801TIP3   OH244893   6.347   2.822   6.593  0.0330 -0.6859  0.7170
 7801TIP3    H144894   6.420   2.771   6.627  0.4764  0.2874  1.2856
 7801TIP3    H244895   6.355   2.907   6.637  1.7179  1.3488 -3.0192
 7802TIP3   OH244896   6.516   1.043  16.572  0.4590  0.6017  0.2108
 7802TIP3    H144897   6.601   1.076  16.603  0.1145  2.7137 -0.8983
 7802TIP3    H244898   6.455   1.115  16.589 -0.8395 -0.3518 -0.2850
 7803TIP3   OH244899   3.349   5.503   6.529  0.6793  0.3072  0.0084
 7803TIP3    H144900   3.391   5.523   6.613  0.1517 -1.5061  0.7580
 7803TIP3    H244901   3.370   5.577   6.473  1.6659  1.2192  1.5228
 7804TIP3   OH244902   5.845   2.195  11.802  0.0482  0.5273  0.4485
 7804TIP3    H144903   5.903   2.270  11.794  0.5712  0.3241  2.0677
 7804TIP3    H244904   5.819   2.193  11.894  0.1127 -1.3114  0.4728
 7805TIP3   OH244905   5.302   5.026  14.008  0.1769  0.3249  0.2445
 7805TIP3    H144906   5.215   5.060  13.988 -0.2762 -0.3298  1.0288
 7805TIP3    H244907   5.345   5.017  13.923 -0.4539  0.8129 -0.1353
 7806TIP3   OH244908   6.516   3.268   3.261 -0.0700  0.0517 -0.7743
 7806TIP3    H144909   6.556   3.193   3.216  0.3137  0.4663 -1.1350
 7806TIP3    H244910   6.422   3.248   3.261  0.1017 -0.8694 -0.0346
 7807TIP3   OH244911   5.639   5.438  11.739  0.2495 -0.5480 -0.4963
 7807TIP3    H144912   5.710   5.466  11.681  0.2739  0.1539 -0.1487
 7807TIP3    H244913   5.683   5.414  11.821  0.0577  0.4184 -0.0923
 7808TIP3   OH244914   4.613   4.268  13.690 -0.7235 -0.0904  0.1155
 7808TIP3    H144915   4.618   4.229  13.777  0.2189 -0.4377 -0.0925
 7808TIP3    H244916   4.686   4.231  13.641 -0.8161  0.6390 -0.6121
 7809TIP3   OH244917   4.703   2.063   6.575 -0.3350  0.4060  0.0804
 7809TIP3    H144918   4.642   2.059   6.649 -0.1508 -0.4084  0.1906
 7809TIP3    H244919   4.790   2.056   6.615 -0.2835 -3.2497 -0.3748
 7810TIP3   OH244920   3.431   0.987   5.306  0.0032  0.0320 -0.3855
 7810TIP3    H144921   3.372   0.993   5.231  1.5312 -2.4913 -1.9505
 7810TIP3    H244922   3.389   0.925   5.366 -0.6863  1.1973  0.3828
 7811TIP3   OH244923   5.121   6.176  16.003 -0.1997 -0.3599  0.1833
 7811TIP3    H144924   5.108   6.084  16.024  1.1548 -0.3702  1.1236
 7811TIP3    H244925   5.209   6.180  15.966 -0.6117  0.4312 -0.7547
 7812TIP3   OH244926   3.089   4.065  13.463 -0.1033 -0.7498  0.1638
 7812TIP3    H144927   3.155   4.123  13.501 -0.5189  0.4426 -0.8856
 7812TIP3    H244928   3.117   3.977  13.490  1.1373 -0.1641  0.8878
 7813TIP3   OH244929   6.126   4.419   0.137  0.4471 -0.3575 -0.1453
 7813TIP3    H144930   6.158   4.369   0.062 -0.0011 -0.7369 -0.0811
 7813TIP3    H244931   6.095   4.353   0.199 -0.6238  0.0029 -0.2734
 7814TIP3   OH244932   0.092   2.540  12.855  0.2483  0.9151 -0.2363
 7814TIP3    H144933   0.149   2.602  12.900 -0.5817  0.9678  0.7628
 7814TIP3    H244934   0.153   2.482  12.808  1.2680 -0.0880  2.1375
 7815TIP3   OH244935   2.127   3.200   0.818 -0.1841  0.4154  0.3809
 7815TIP3    H144936   2.220   3.216   0.804 -0.6343  0.7654 -3.2660
 7815TIP3    H244937   2.103   3.137   0.751 -3.0319  2.3747 -0.6510
 7816TIP3   OH244938   3.382   1.777  13.286 -0.0167  0.7775  0.5065
 7816TIP3    H144939   3.445   1.803  13.219  0.5103  1.8883  1.3880
 7816TIP3    H244940   3.297   1.783  13.242  0.4292 -0.2149 -0.5427
 7817TIP3   OH244941   4.885   4.869  13.079  1.2915  0.4939 -0.3523
 7817TIP3    H144942   4.952   4.907  13.023  1.3751 -1.1906 -1.4641
 7817TIP3    H244943   4.805   4.870  13.026  0.9679  0.4239  0.1204
 7818TIP3   OH244944   3.948   0.293  13.292  0.2443  0.2709  0.6525
 7818TIP3    H144945   4.014   0.294  13.223 -0.2539 -0.0058  0.1636
 7818TIP3    H244946   3.982   0.231  13.357  1.4346  1.6423  1.3946
 7819TIP3   OH244947   3.325   4.199   1.911  0.3649  0.2620  0.3296
 7819TIP3    H144948   3.231   4.193   1.892 -0.5972 -0.8350  4.3283
 7819TIP3    H244949   3.348   4.114   1.947  2.7198  0.7885  0.2231
 7820TIP3   OH244950   5.268   0.257  16.061  0.4629  0.1378  0.3476
 7820TIP3    H144951   5.255   0.292  16.149  1.9033  1.6294  0.0168
 7820TIP3    H244952   5.208   0.183  16.055  1.7051 -1.2619  3.2871
 7821TIP3   OH244953   3.069   6.421   4.016  0.8705 -0.0995 -0.9554
 7821TIP3    H144954   2.983   6.463   4.014 -0.7211 -3.0678 -0.5179
 7821TIP3    H244955   3.127   6.486   4.055 -1.5687  1.3828  0.4261
 7822TIP3   OH244956   1.211   5.566   0.840 -0.4678 -0.3368 -0.1699
 7822TIP3    H144957   1.116   5.562   0.840 -0.4698 -1.5000 -2.2061
 7822TIP3    H244958   1.238   5.496   0.781  1.6928 -0.5125  0.9262
 7823TIP3   OH244959   5.870   6.334   4.378  0.1942  0.1513  0.3476
 7823TIP3    H144960   5.889   6.266   4.443 -2.5875  0.3933  1.5704
 7823TIP3    H244961   5.914   6.412   4.411  1.4050 -0.4567  0.2231
 7824TIP3   OH244962   2.110   1.480  17.557  0.2998  0.1227 -0.0031
 7824TIP3    H144963   2.186   1.537  17.573 -0.0088  0.4327  0.3527
 7824TIP3    H244964   2.146   1.407  17.506  0.5497  1.0461 -1.2162
 7825TIP3   OH244965   1.359   2.305  13.677  0.3616  0.8069  0.4398
 7825TIP3    H144966   1.362   2.233  13.615  1.9235 -0.5973  2.0589
 7825TIP3    H244967   1.435   2.359  13.656  1.1602  0.0779  1.3637
 7826TIP3   OH244968   0.549   5.229   0.533  0.1718  0.4299  0.2846
 7826TIP3    H144969   0.521   5.196   0.448 -4.4110 -0.7098  1.9901
 7826TIP3    H244970   0.560   5.151   0.587  2.8191  1.1520  0.9660
 7827TIP3   OH244971   4.719   0.914  16.126 -0.0587 -0.2013 -0.0056
 7827TIP3    H144972   4.738   0.918  16.033  0.3282 -0.2661  0.0670
 7827TIP3    H244973   4.791   0.961  16.167  0.4603 -1.2561  0.3430
 7828TIP3   OH244974   4.487   5.450  14.064 -0.4671  0.2403 -0.0503
 7828TIP3    H144975   4.431   5.445  14.142 -2.0753  4.2617 -0.7176
 7828TIP3    H244976   4.535   5.532  14.074  1.2354 -0.3955 -2.1745
 7829TIP3   OH244977   3.503   2.676  13.328  0.4805 -0.2629 -0.1848
 7829TIP3    H144978   3.514   2.647  13.418 -0.2155 -1.0075 -0.3236
 7829TIP3    H244979   3.507   2.772  13.333  1.9589 -0.3392  0.4025
 7830TIP3   OH244980   3.138   5.539  16.365 -0.2202 -0.1363  0.4811
 7830TIP3    H144981   3.067   5.550  16.428 -1.1386 -0.8477 -0.3980
 7830TIP3    H244982   3.097   5.551  16.279  0.3150 -2.2175 -0.1353
 7831TIP3   OH244983   3.717   4.726  15.254  0.0406 -0.0291 -0.1478
 7831TIP3    H144984   3.776   4.749  15.182 -0.7993  0.5005 -0.6740
 7831TIP3    H244985   3.670   4.649  15.222 -2.2093  1.7093 -1.2768
 7832TIP3   OH244986   1.128   1.617   6.102 -0.2510 -0.4391  0.4726
 7832TIP3    H144987   1.057   1.618   6.038  0.2863 -1.4778 -0.1620
 7832TIP3    H244988   1.180   1.540   6.079  1.1452  0.3595  0.8625
 7833TIP3   OH244989   3.314   4.984   0.769 -0.1427 -0.2882 -0.4002
 7833TIP3    H144990   3.232   5.014   0.810  0.2639 -0.1022  0.3010
 7833TIP3    H244991   3.317   5.028   0.685  0.6850  2.1082  0.8025
 7834TIP3   OH244992   4.185   6.120  16.267  0.7662  0.1627 -0.1536
 7834TIP3    H144993   4.233   6.042  16.239  0.1853 -0.6538  1.0556
 7834TIP3    H244994   4.095   6.103  16.240  0.3046 -0.3882  1.6213
 7835TIP3   OH244995   3.173   6.015   5.792  0.3280  0.2756 -0.3456
 7835TIP3    H144996   3.088   5.977   5.770  0.8830 -0.8678 -0.6024
 7835TIP3    H244997   3.164   6.045   5.883 -0.5781  0.8903 -0.6254
 7836TIP3   OH244998   6.348   4.932  14.271  0.1713 -0.4437  0.8093
 7836TIP3    H144999   6.255   4.947  14.286  0.4149  0.6815  1.2944
 7836TIP3    H245000   6.390   5.013  14.300  1.1570 -0.3061 -0.8906
 7837TIP3   OH245001   0.300   6.625  14.486 -0.0825  0.2632  0.9221
 7837TIP3    H145002   0.269   6.549  14.436  0.9197 -0.6850  1.7051
 7837TIP3    H245003   0.375   6.658  14.437  0.6277 -0.3972  1.5500
 7838TIP3   OH245004   5.866   5.263  14.673  0.0702 -0.2544 -0.1244
 7838TIP3    H145005   5.876   5.221  14.588  1.4229  0.4539 -0.3438
 7838TIP3    H245006   5.873   5.191  14.736  0.7366 -0.5697 -0.5475
 7839TIP3   OH245007   3.553   4.556  15.471  0.5771 -0.3343 -0.8825
 7839TIP3    H145008   3.570   4.639  15.426  1.2313 -0.2478 -0.4832
 7839TIP3    H245009   3.477   4.574  15.526  0.8438  0.0627 -0.6392
 7840TIP3   OH245010   5.935   3.797   5.343  0.2787 -0.2869  0.4902
 7840TIP3    H145011   6.003   3.737   5.314 -0.7919 -1.7551  0.9147
 7840TIP3    H245012   5.975   3.847   5.414  1.6224  0.5224 -0.7672
 7841TIP3   OH245013   2.680   4.154  12.638 -1.0006  0.1809 -0.5281
 7841TIP3    H145014   2.592   4.166  12.673 -1.3103 -0.6268 -0.9903
 7841TIP3    H245015   2.724   4.238  12.652 -1.5502  0.3120  0.5156
 7842TIP3   OH245016   0.106   3.654  15.870 -0.4174  0.3014 -0.0660
 7842TIP3    H145017   0.154   3.694  15.798  1.0959  1.9854  1.7367
 7842TIP3    H245018   0.040   3.720  15.894  0.7668  0.9389  1.6457
 7843TIP3   OH245019   1.821   3.173   3.448  0.0409  0.4216  0.3624
 7843TIP3    H145020   1.779   3.241   3.500 -1.9284 -0.9551  0.6625
 7843TIP3    H245021   1.751   3.137   3.394  1.6283  0.5222 -1.9090
 7844TIP3   OH245022   5.262   0.875  17.112  0.9372  0.4381  0.0303
 7844TIP3    H145023   5.275   0.968  17.091 -1.8286  0.6857 -1.0214
 7844TIP3    H245024   5.239   0.835  17.028 -3.1276 -0.0520  1.1583
 7845TIP3   OH245025   4.794   5.532   4.754  0.2751 -0.1098  0.3958
 7845TIP3    H145026   4.757   5.444   4.745  1.4430 -0.5808  0.0140
 7845TIP3    H245027   4.723   5.584   4.792 -0.0627 -1.4985  1.7779
 7846TIP3   OH245028   3.584   2.224   4.906 -0.2429  0.0497 -0.4767
 7846TIP3    H145029   3.673   2.255   4.923 -1.0464  2.5788 -0.4996
 7846TIP3    H245030   3.594   2.131   4.887  2.0068 -0.5991  3.0110
 7847TIP3   OH245031   6.202   1.355   3.693 -0.4809 -0.1303 -0.7855
 7847TIP3    H145032   6.166   1.307   3.619 -0.6858 -1.1797 -0.0337
 7847TIP3    H245033   6.296   1.357   3.678 -0.6915  1.5298 -2.1277
 7848TIP3   OH245034   2.089   5.782   6.271  0.1777  0.8775 -0.9457
 7848TIP3    H145035   2.082   5.818   6.360 -1.8392  0.6142 -0.9484
 7848TIP3    H245036   2.075   5.688   6.283  1.2421  0.6394 -1.4227
 7849TIP3   OH245037   1.454   6.316  17.248 -0.4193  0.2168 -0.1213
 7849TIP3    H145038   1.533   6.344  17.295 -0.5584  0.1656  0.1423
 7849TIP3    H245039   1.402   6.271  17.314 -0.0601 -0.9447 -0.6077
 7850TIP3   OH245040   6.453   4.770   2.177 -0.1400 -0.2013 -0.1285
 7850TIP3    H145041   6.401   4.746   2.254 -0.3554  0.1054 -0.1735
 7850TIP3    H245042   6.505   4.845   2.206 -0.0408 -0.2391 -0.2101
 7851TIP3   OH245043   3.469   3.465   0.531  0.4716 -0.0411  0.0330
 7851TIP3    H145044   3.544   3.410   0.508  1.4054  1.4194 -0.6460
 7851TIP3    H245045   3.435   3.428   0.612  2.2869 -0.4248  0.6622
 7852TIP3   OH245046   1.370   2.240   5.903 -0.0835  0.0436  0.2784
 7852TIP3    H145047   1.437   2.220   5.968 -0.6492 -0.2414  0.7834
 7852TIP3    H245048   1.408   2.210   5.820  0.3310 -0.2927  0.5825
 7853TIP3   OH245049   5.691   3.885  12.034 -0.6586  0.3660 -0.2393
 7853TIP3    H145050   5.651   3.912  12.117  0.0462 -1.0273  0.5951
 7853TIP3    H245051   5.646   3.937  11.967 -2.7003  0.0441  0.8033
 7854TIP3   OH245052   2.902   3.302   2.762 -0.5570 -0.2739 -0.7104
 7854TIP3    H145053   2.971   3.353   2.720 -0.9061  1.2610  0.4949
 7854TIP3    H245054   2.825   3.358   2.759 -0.7454 -0.3283  1.3793
 7855TIP3   OH245055   0.277   2.786   0.898  0.5819  0.3304 -0.6573
 7855TIP3    H145056   0.187   2.817   0.913  0.5723  0.3722 -0.8002
 7855TIP3    H245057   0.267   2.698   0.862  0.6355 -0.4800  1.1867
 7856TIP3   OH245058   0.037   3.608  12.958 -0.2388 -0.0998 -0.2299
 7856TIP3    H145059   0.122   3.570  12.979 -0.8850 -0.7149  1.3917
 7856TIP3    H245060   0.016   3.573  12.871  1.0141 -0.1411 -0.5451
 7857TIP3   OH245061   6.145   5.482  15.570 -0.0678  0.1361  0.7347
 7857TIP3    H145062   6.123   5.538  15.495  3.0612  0.4532 -0.1264
 7857TIP3    H245063   6.068   5.485  15.626 -2.1646  0.7354 -1.9637
 7858TIP3   OH245064   6.238   1.239   6.034  0.5787 -0.2023  0.0260
 7858TIP3    H145065   6.310   1.263   5.975  0.4392 -1.6673 -0.8066
 7858TIP3    H245066   6.169   1.301   6.014  0.7881 -0.2330 -0.8853
 7859TIP3   OH245067   5.727   5.600   2.191  0.4107  0.4202 -0.1938
 7859TIP3    H145068   5.754   5.686   2.223  1.6831  0.1602 -0.4864
 7859TIP3    H245069   5.642   5.614   2.150 -0.1078  1.2375  1.0966
 7860TIP3   OH245070   5.455   3.028  11.838 -0.4234  0.2931  0.2052
 7860TIP3    H145071   5.404   2.999  11.913  0.5194 -1.8242  0.1091
 7860TIP3    H245072   5.509   3.100  11.872  0.7238 -1.2656  1.8782
 7861TIP3   OH245073   1.790   5.249  17.658  0.2084  0.1566  0.2139
 7861TIP3    H145074   1.775   5.338  17.689 -0.4188  0.6746 -1.4766
 7861TIP3    H245075   1.753   5.193  17.726 -0.7172  1.2291  0.6213
 7862TIP3   OH245076   6.441   6.609  16.706  0.5336 -0.4011 -0.2049
 7862TIP3    H145077   6.398   6.583  16.787  1.3531  1.4518  0.8688
 7862TIP3    H245078   6.480   6.527  16.673 -0.1534 -1.2545  1.0293
 7863TIP3   OH245079   6.073   4.224   5.977  0.3429  0.2382  0.2464
 7863TIP3    H145080   6.077   4.289   5.906 -1.6614  1.7599  1.4367
 7863TIP3    H245081   6.136   4.255   6.042 -0.7244  1.1248  0.8828
 7864TIP3   OH245082   2.846   6.442   5.257 -0.3830 -0.2227 -0.5737
 7864TIP3    H145083   2.810   6.379   5.320 -0.1659 -0.9204 -1.1300
 7864TIP3    H245084   2.912   6.392   5.209  0.7957  0.7995 -0.1071
 7865TIP3   OH245085   3.177   1.801   2.436  0.0321 -0.1342 -0.0144
 7865TIP3    H145086   3.160   1.707   2.433  0.7104 -0.2998  0.9387
 7865TIP3    H245087   3.096   1.841   2.406 -0.1581 -1.0247 -0.7350
 7866TIP3   OH245088   3.891   5.596  11.221 -0.1690  0.5708  0.1499
 7866TIP3    H145089   3.873   5.505  11.198  0.1741  0.4384  0.4022
 7866TIP3    H245090   3.923   5.635  11.140  0.7780  0.1724  0.3115
 7867TIP3   OH245091   5.104   2.184   5.016  0.4136 -0.1992 -0.1444
 7867TIP3    H145092   5.142   2.170   4.929 -0.7007 -1.9027 -0.3892
 7867TIP3    H245093   5.179   2.182   5.075  1.2428  1.4326 -1.0734
 7868TIP3   OH245094   0.876   6.719   5.019 -0.4741  0.6376  0.3011
 7868TIP3    H145095   0.780   6.723   5.026 -0.5544  2.5030 -1.1654
 7868TIP3    H245096   0.904   6.810   5.030  1.2836 -0.0386  1.9689
 7869TIP3   OH245097   3.322   5.952  17.630 -0.3641  0.1446  0.1674
 7869TIP3    H145098   3.297   6.041  17.653 -2.1220 -0.4036  0.5302
 7869TIP3    H245099   3.240   5.910  17.603  0.0445 -1.9304  1.8711
 7870TIP3   OH245100   6.577   6.443   0.954 -0.0032 -0.2772  0.2125
 7870TIP3    H145101   6.630   6.489   0.888  1.2576 -1.1619  0.5666
 7870TIP3    H245102   6.604   6.352   0.947 -0.5373 -0.5345  1.3216
 7871TIP3   OH245103   1.919   4.412   1.612 -0.6436 -0.4272  0.5352
 7871TIP3    H145104   1.854   4.411   1.682 -1.2579  0.3429 -0.0071
 7871TIP3    H245105   1.875   4.454   1.538  1.3631  3.1045  1.1003
 7872TIP3   OH245106   4.337   1.731   5.060 -0.3009  0.4962 -0.7006
 7872TIP3    H145107   4.251   1.723   5.102 -0.0878  2.4226  0.2114
 7872TIP3    H245108   4.389   1.783   5.121  1.2579  0.1025 -1.6388
 7873TIP3   OH245109   4.528   1.541  14.903  0.4429 -0.0952  0.0779
 7873TIP3    H145110   4.589   1.599  14.857  0.7764 -0.1358  0.4643
 7873TIP3    H245111   4.512   1.584  14.987  0.8258 -0.6423  0.4364
 7874TIP3   OH245112   5.786   2.199  14.294  0.2716  0.2537 -0.0786
 7874TIP3    H145113   5.802   2.196  14.389 -0.6024  1.7198  0.1389
 7874TIP3    H245114   5.781   2.107  14.269  0.2528 -0.1662  1.3469
 7875TIP3   OH245115   6.321   4.057  11.558  0.2550 -0.1050 -0.1761
 7875TIP3    H145116   6.234   4.077  11.593  1.0251 -0.1010  1.8434
 7875TIP3    H245117   6.322   3.961  11.551 -0.7379  0.0010 -2.5775
 7876TIP3   OH245118   0.046   5.434   5.832 -0.0572  0.0111  0.1959
 7876TIP3    H145119  -0.028   5.491   5.810 -0.0821 -0.2561 -0.4306
 7876TIP3    H245120   0.020   5.347   5.800  0.1775 -0.2599  0.7222
 7877TIP3   OH245121   4.456   1.526   0.324  0.3308 -0.6092  0.3171
 7877TIP3    H145122   4.528   1.589   0.326 -0.4681  0.3316  0.0036
 7877TIP3    H245123   4.426   1.521   0.415  0.6112 -0.7999  0.4009
 7878TIP3   OH245124   5.652   3.541  13.171 -0.1743 -0.0546  0.8665
 7878TIP3    H145125   5.630   3.474  13.236 -0.5949  0.7837  1.6174
 7878TIP3    H245126   5.628   3.624  13.213 -0.6935  0.4958 -0.4526
 7879TIP3   OH245127   6.397   0.947  14.412 -0.1832 -0.2724 -0.4381
 7879TIP3    H145128   6.391   1.034  14.451 -0.8571 -1.1489  1.5077
 7879TIP3    H245129   6.309   0.930  14.377  0.0213 -0.0824 -1.0628
 7880TIP3   OH245130   2.897   2.303   5.661  0.3376 -0.2361  0.1184
 7880TIP3    H145131   2.944   2.305   5.578  0.8607 -1.4455  0.3630
 7880TIP3    H245132   2.965   2.319   5.727 -0.3125  2.3465  0.2803
 7881TIP3   OH245133   5.268   3.680   2.481 -0.0702  0.0990  0.1752
 7881TIP3    H145134   5.210   3.676   2.405 -2.6915  0.0799  2.0527
 7881TIP3    H245135   5.300   3.771   2.482  0.1280  0.0618 -0.9788
 7882TIP3   OH245136   1.167   4.703   0.993  0.3945  0.8696 -0.2305
 7882TIP3    H145137   1.258   4.689   1.020  0.7449  1.8291 -0.8525
 7882TIP3    H245138   1.174   4.760   0.917 -0.6878  0.1347 -0.8939
 7883TIP3   OH245139   3.379   5.449  12.039 -0.4757  0.2353 -0.0845
 7883TIP3    H145140   3.351   5.520  11.982 -2.5251  0.4242  1.0656
 7883TIP3    H245141   3.407   5.379  11.979  1.2401  1.8111 -1.2296
 7884TIP3   OH245142   2.379   4.703   0.764 -0.1010  0.2635  0.1259
 7884TIP3    H145143   2.405   4.670   0.850  0.1860  3.0336  1.2296
 7884TIP3    H245144   2.285   4.685   0.759 -0.2602  0.6366  1.3475
 7885TIP3   OH245145   1.122   5.579  17.065 -0.2812  0.2902  0.3818
 7885TIP3    H145146   1.030   5.579  17.091 -0.1889  0.1100  0.7173
 7885TIP3    H245147   1.120   5.592  16.970 -0.7691 -2.0446  0.0135
 7886TIP3   OH245148   4.435   1.495  11.744 -0.0500  0.3986  0.0200
 7886TIP3    H145149   4.495   1.511  11.672  0.0455 -0.7247 -0.1692
 7886TIP3    H245150   4.349   1.518  11.709  0.2650  2.4267  0.4273
 7887TIP3   OH245151   1.957   1.099   1.054 -0.0363  0.4405  0.3624
 7887TIP3    H145152   1.966   1.137   1.142 -0.8191  0.9423  0.2406
 7887TIP3    H245153   1.897   1.025   1.066 -1.7355  1.6806 -0.0341
 7888TIP3   OH245154   3.774   2.704   5.507  0.3917 -0.0262  0.0193
 7888TIP3    H145155   3.768   2.794   5.475 -1.9738  0.1289  0.7025
 7888TIP3    H245156   3.752   2.650   5.432 -0.0994  0.0739  0.0893
 7889TIP3   OH245157   2.789   2.932  13.515  0.0676 -0.0623 -0.4571
 7889TIP3    H145158   2.830   2.983  13.445  0.7601 -1.0274 -0.7736
 7889TIP3    H245159   2.819   2.974  13.596 -2.1047  2.1263 -0.6999
 7890TIP3   OH245160   4.192   2.618   4.129 -0.1063  0.0204  0.4585
 7890TIP3    H145161   4.130   2.605   4.057  0.2393  2.7087 -0.4261
 7890TIP3    H245162   4.139   2.654   4.199  0.3927  2.6509 -0.4152
 7891TIP3   OH245163   1.022   6.587  16.986 -0.1347  0.2926 -0.0819
 7891TIP3    H145164   1.058   6.518  16.930  0.3934 -0.1287  0.7473
 7891TIP3    H245165   0.934   6.601  16.953 -0.0022 -0.2924 -0.7099
 7892TIP3   OH245166   5.244   4.262  13.892  0.1780  0.1921  0.0334
 7892TIP3    H145167   5.153   4.289  13.891 -0.1696 -0.9333 -1.1851
 7892TIP3    H245168   5.289   4.326  13.837  0.2603  1.1227  1.1536
 7893TIP3   OH245169   1.872   5.365  16.362 -0.7918  0.7484 -0.1815
 7893TIP3    H145170   1.887   5.397  16.273  1.0206 -1.3434 -0.7121
 7893TIP3    H245171   1.863   5.270  16.352  2.2522  0.0851  2.1007
 7894TIP3   OH245172   2.175   3.641  11.462  0.1485 -0.3032  0.1072
 7894TIP3    H145173   2.091   3.597  11.474 -0.3531  0.5227 -0.2948
 7894TIP3    H245174   2.237   3.587  11.510 -0.3275 -1.7999 -0.8664
 7895TIP3   OH245175   4.831   6.497  11.349  0.2777  0.0347 -0.4801
 7895TIP3    H145176   4.802   6.468  11.436 -0.0067 -1.0608 -0.9220
 7895TIP3    H245177   4.767   6.564  11.324  0.4399  0.4555  0.2043
 7896TIP3   OH245178   2.695   2.997   3.425  0.8131  0.1751  0.4595
 7896TIP3    H145179   2.747   2.927   3.464  1.8284  0.3166 -0.5718
 7896TIP3    H245180   2.665   3.049   3.499 -1.2263 -2.1297  1.3828
 7897TIP3   OH245181   3.495   5.631   1.527  0.5804 -0.5616 -0.3007
 7897TIP3    H145182   3.546   5.649   1.448  2.1505 -0.7948  0.6136
 7897TIP3    H245183   3.557   5.587   1.586 -0.7596 -1.0750  0.7766
 7898TIP3   OH245184   2.867   2.625  15.822  0.3849  0.5259  0.7505
 7898TIP3    H145185   2.813   2.649  15.897  1.4844  0.9141  1.4439
 7898TIP3    H245186   2.956   2.650  15.848  1.0363 -0.8974  0.0148
 7899TIP3   OH245187   2.143   4.917   2.746 -0.5328 -0.0394 -0.3192
 7899TIP3    H145188   2.225   4.956   2.776 -1.2857  1.2754  0.1106
 7899TIP3    H245189   2.149   4.826   2.774  0.4213  0.2364  0.4512
 7900TIP3   OH245190   1.659   3.194   3.865 -0.4221 -0.3737 -0.3608
 7900TIP3    H145191   1.574   3.227   3.895 -0.5899  0.3796 -1.5670
 7900TIP3    H245192   1.715   3.196   3.943 -0.6599  2.0742 -0.1818
 7901TIP3   OH245193   6.366   1.684  16.180  0.1243 -0.3877  0.7562
 7901TIP3    H145194   6.366   1.772  16.217 -1.8771 -0.1176  0.2439
 7901TIP3    H245195   6.396   1.628  16.251 -0.0353  0.5284  1.5714
 7902TIP3   OH245196   3.196   1.969  14.638 -0.1407 -0.0955 -0.0617
 7902TIP3    H145197   3.131   2.038  14.624 -0.1511 -0.2198 -0.6518
 7902TIP3    H245198   3.209   1.968  14.732  0.2066  1.0316 -0.0779
 7903TIP3   OH245199   1.266   6.660   0.956 -0.1589  0.6926 -0.2929
 7903TIP3    H145200   1.359   6.676   0.935  0.7943  0.6266  3.2191
 7903TIP3    H245201   1.261   6.566   0.973 -0.1482  1.0968  2.2348
 7904TIP3   OH245202   2.473   5.558   0.887 -0.3573 -0.0490 -0.0482
 7904TIP3    H145203   2.566   5.572   0.867  0.0095 -1.0299  0.8666
 7904TIP3    H245204   2.463   5.463   0.888 -1.0400  0.0171  1.3156
 7905TIP3   OH245205   4.407   5.998  12.129  0.5528  0.0214  0.0957
 7905TIP3    H145206   4.470   5.948  12.077  0.5342  1.3745 -1.3069
 7905TIP3    H245207   4.458   6.031  12.203  1.0016 -0.5680  0.0529
 7906TIP3   OH245208   2.198   0.711  15.431 -0.0254  0.3094 -0.3460
 7906TIP3    H145209   2.122   0.766  15.412 -1.4022 -0.7765  1.6324
 7906TIP3    H245210   2.210   0.719  15.526  2.4140  0.5016 -0.6050
 7907TIP3   OH245211   1.894   6.484  16.763  0.4790 -0.1342  0.5938
 7907TIP3    H145212   1.842   6.564  16.775  0.4130 -0.2951  1.4836
 7907TIP3    H245213   1.899   6.472  16.668 -1.5906 -0.4163  0.4755
 7908TIP3   OH245214   2.348   0.032   5.664  0.4729  0.4756 -0.3713
 7908TIP3    H145215   2.333  -0.031   5.734 -1.5199  0.4169 -0.7954
 7908TIP3    H245216   2.389  -0.019   5.594 -0.0782 -0.0975 -0.2836
 7909TIP3   OH245217   1.551   0.903   5.343  0.0519 -0.1145 -0.5588
 7909TIP3    H145218   1.612   0.862   5.282  0.3473 -0.1766 -0.2225
 7909TIP3    H245219   1.581   0.993   5.350  3.2390 -1.1657  3.3730
 7910TIP3   OH245220   1.176   3.251  14.434 -0.5073  0.0756 -0.2814
 7910TIP3    H145221   1.259   3.252  14.388 -1.5353  1.1710 -2.2250
 7910TIP3    H245222   1.166   3.339  14.469  0.0610 -0.6198  1.8127
 7911TIP3   OH245223   5.957   3.138   2.896  0.1451 -0.1898  0.1355
 7911TIP3    H145224   6.030   3.122   2.835 -0.0489  0.1999 -0.2074
 7911TIP3    H245225   5.898   3.064   2.882  1.1225 -1.2467  1.4150
 7912TIP3   OH245226   3.589   2.992  15.462  0.5687 -0.8876  0.3006
 7912TIP3    H145227   3.618   3.077  15.426 -0.5048 -0.8881 -0.6058
 7912TIP3    H245228   3.671   2.945  15.480  1.1647 -0.0021 -0.0128
 7913TIP3   OH245229   0.974   3.266   2.020  0.1502  0.2523 -0.3599
 7913TIP3    H145230   1.050   3.241   1.967  0.9245  1.8792 -0.0859
 7913TIP3    H245231   0.975   3.362   2.018 -2.8235  0.3546 -1.6580
 7914TIP3   OH245232   2.459   1.011  12.306 -0.1757  0.4804  0.3789
 7914TIP3    H145233   2.440   0.925  12.269  2.1089 -0.2921  0.8443
 7914TIP3    H245234   2.429   1.005  12.397  1.2251 -0.3516  0.8138
 7915TIP3   OH245235   3.471   4.644   0.487  0.7374 -0.4146 -0.5426
 7915TIP3    H145236   3.402   4.700   0.452 -0.1055  0.3797  2.0986
 7915TIP3    H245237   3.449   4.556   0.458 -1.4560 -0.1872  0.2571
 7916TIP3   OH245238   4.881   1.791  16.224  0.3782 -0.4400  0.0458
 7916TIP3    H145239   4.889   1.790  16.319  0.8891 -0.6296  0.0002
 7916TIP3    H245240   4.906   1.703  16.197  2.0635  0.1523 -0.4118
 7917TIP3   OH245241   4.348   3.456  17.685  0.6608  0.2761  0.4028
 7917TIP3    H145242   4.347   3.551  17.698  0.2617  0.0819  2.1246
 7917TIP3    H245243   4.375   3.421  17.770  1.2752 -1.1429 -0.3446
 7918TIP3   OH245244   3.389   6.547  17.282 -0.6151  0.3806  0.0066
 7918TIP3    H145245   3.332   6.623  17.271 -2.3110 -0.5893  1.5898
 7918TIP3    H245246   3.364   6.487  17.211 -2.8326 -0.7288  1.6179
 7919TIP3   OH245247   3.134   1.393  17.051 -0.6526 -0.3649  0.0459
 7919TIP3    H145248   3.224   1.424  17.043 -0.6454 -0.5917 -0.9000
 7919TIP3    H245249   3.101   1.391  16.961 -1.2905 -1.2103  0.2813
 7920TIP3   OH245250   4.556   0.122   0.951 -0.2623 -0.1599 -0.2869
 7920TIP3    H145251   4.550   0.055   1.019 -1.0718 -0.4314 -0.6033
 7920TIP3    H245252   4.622   0.089   0.890 -1.1671 -1.0420 -0.8177
 7921TIP3   OH245253   4.920   0.929  12.126  0.6033  0.2494 -0.0297
 7921TIP3    H145254   4.869   0.980  12.063 -0.5241 -0.8787 -0.0679
 7921TIP3    H245255   4.999   0.903  12.078 -0.1936 -0.5095 -0.9578
 7922TIP3   OH245256   3.121   1.469   0.496  0.0070  0.0490  0.1994
 7922TIP3    H145257   3.187   1.458   0.565  0.9828 -0.2147 -0.7406
 7922TIP3    H245258   3.098   1.380   0.472  0.8681  0.0995 -0.8965
 7923TIP3   OH245259   0.637   1.191   2.619 -0.1977  0.2998  0.2905
 7923TIP3    H145260   0.598   1.278   2.608  1.1870  0.7115 -2.0570
 7923TIP3    H245261   0.690   1.199   2.698 -0.2822  1.5317  0.2442
 7924TIP3   OH245262   3.308   3.663  13.124 -0.3276  0.7623  0.0553
 7924TIP3    H145263   3.340   3.728  13.061  0.2630  0.5028  0.0804
 7924TIP3    H245264   3.215   3.655  13.104  0.2652 -1.1555 -2.5085
 7925TIP3   OH245265   4.199   1.681   3.724 -0.0955 -0.0672 -0.5218
 7925TIP3    H145266   4.257   1.757   3.732  0.7027 -0.7123 -0.0246
 7925TIP3    H245267   4.255   1.614   3.685 -0.5931 -0.6287 -0.2642
 7926TIP3   OH245268   4.348   6.291   2.053  0.3109  0.1658 -0.4839
 7926TIP3    H145269   4.292   6.213   2.059 -0.3454  0.5925 -0.9341
 7926TIP3    H245270   4.326   6.329   1.968  0.9550  0.5954 -0.4573
 7927TIP3   OH245271   1.482   5.901  12.946  0.6033 -0.6260  0.5040
 7927TIP3    H145272   1.393   5.931  12.927  0.1732 -0.6827  2.2678
 7927TIP3    H245273   1.535   5.981  12.944  0.1353 -0.2849  1.4535
 7928TIP3   OH245274   2.345   0.518  11.882 -0.1063 -0.4830 -0.3542
 7928TIP3    H145275   2.250   0.521  11.891 -0.2522 -1.6286 -1.1747
 7928TIP3    H245276   2.372   0.444  11.937  0.2504 -0.4647 -0.4987
 7929TIP3   OH245277   2.218   2.927  12.697  0.4655  0.1148 -0.9181
 7929TIP3    H145278   2.190   3.001  12.750  0.6741 -1.6950  1.9144
 7929TIP3    H245279   2.149   2.918  12.631 -3.1060 -0.9647  2.5687
 7930TIP3   OH245280   3.463   5.305  15.070  0.5138  0.0978 -0.3939
 7930TIP3    H145281   3.428   5.235  15.015 -0.9178  0.5985 -0.1746
 7930TIP3    H245282   3.488   5.262  15.151  0.6725 -0.3199 -0.6613
 7931TIP3   OH245283   1.469   2.048  15.961 -0.1310  0.1940 -0.3868
 7931TIP3    H145284   1.484   1.961  15.922 -1.4849 -1.0071  1.5598
 7931TIP3    H245285   1.450   2.030  16.053  0.8426  2.7183  0.3864
 7932TIP3   OH245286   0.355   6.006   6.123  0.2030 -0.0426  0.4380
 7932TIP3    H145287   0.435   6.015   6.175  1.2502  1.0352 -1.2586
 7932TIP3    H245288   0.307   6.087   6.141  0.0228 -0.1775  0.5710
 7933TIP3   OH245289   3.016   4.840   1.235  0.0841  0.4648 -0.1880
 7933TIP3    H145290   3.047   4.791   1.159  0.7451 -0.5139  0.6697
 7933TIP3    H245291   3.093   4.844   1.293 -0.5795  0.6120  0.7006
 7934TIP3   OH245292   5.665   6.415  14.051  0.1224 -0.0264 -0.9081
 7934TIP3    H145293   5.669   6.328  14.012  0.2051  0.2375 -1.4861
 7934TIP3    H245294   5.652   6.474  13.978  1.3371  0.5752 -0.6677
 7935TIP3   OH245295   0.634   0.418   3.438 -0.1604  0.2730 -0.5826
 7935TIP3    H145296   0.675   0.442   3.355  0.1693  0.4017 -0.3865
 7935TIP3    H245297   0.627   0.322   3.434  0.1114  0.2549 -0.6407
 7936TIP3   OH245298   2.496   4.184   4.727  0.4321  0.1435  0.0135
 7936TIP3    H145299   2.465   4.122   4.793  0.9007 -1.7773 -1.4598
 7936TIP3    H245300   2.451   4.158   4.647  1.7174  0.7768 -0.9553
 7937TIP3   OH245301   0.027   3.313   3.930  0.2357  0.0506 -0.1895
 7937TIP3    H145302   0.033   3.401   3.965 -1.2038  0.4896 -0.9602
 7937TIP3    H245303   0.040   3.323   3.836  0.3728 -0.5963 -0.2476
 7938TIP3   OH245304   4.470   5.306   1.437 -0.3221 -0.0259 -0.3067
 7938TIP3    H145305   4.519   5.369   1.383 -0.9466 -0.0262 -0.8887
 7938TIP3    H245306   4.382   5.343   1.443 -0.0436  0.4361  1.4926
 7939TIP3   OH245307   5.475   1.950  17.606 -0.0786  0.1631  0.1632
 7939TIP3    H145308   5.469   2.011  17.532 -0.0050 -2.5108 -2.2069
 7939TIP3    H245309   5.416   1.878  17.583  0.4117 -1.0648  2.4576
 7940TIP3   OH245310   0.928   3.694   3.570 -0.1532  0.1302  0.3432
 7940TIP3    H145311   0.854   3.661   3.520 -0.6880 -0.3201  1.4064
 7940TIP3    H245312   0.894   3.771   3.616  0.4709  0.8450 -0.3558
 7941TIP3   OH245313   6.651   0.394   6.451 -0.1072 -0.7556 -0.3748
 7941TIP3    H145314   6.560   0.374   6.470 -0.4593 -0.1571 -1.3230
 7941TIP3    H245315   6.681   0.322   6.395 -0.3196 -0.4455 -0.9013
 7942TIP3   OH245316   1.143   4.084  17.492  0.0822 -0.4372 -0.0117
 7942TIP3    H145317   1.081   4.055  17.426 -0.8747 -0.1891  0.7539
 7942TIP3    H245318   1.220   4.028  17.479 -0.1123 -0.4246 -1.2752
 7943TIP3   OH245319   1.091   1.362  12.099  0.0754 -0.2249 -0.1760
 7943TIP3    H145320   1.080   1.334  12.009 -1.8655  0.3584 -0.1562
 7943TIP3    H245321   1.115   1.455  12.093  1.7681 -0.6239 -0.1064
 7944TIP3   OH245322   0.928   6.440   5.703 -0.4160 -0.9134  0.1541
 7944TIP3    H145323   0.912   6.435   5.797  1.3202 -2.1564  0.4346
 7944TIP3    H245324   0.852   6.399   5.663 -1.4136  0.0947  0.9630
 7945TIP3   OH245325   4.693   2.584   2.261 -0.5726  0.7240  0.0558
 7945TIP3    H145326   4.659   2.513   2.315 -0.7255  0.7075 -0.0621
 7945TIP3    H245327   4.700   2.547   2.173  0.7928  0.3892  0.2787
 7946TIP3   OH245328   3.739   3.796   6.032  0.3455  0.0788 -0.1405
 7946TIP3    H145329   3.690   3.871   5.999  0.6481  0.2117 -0.2936
 7946TIP3    H245330   3.731   3.801   6.127 -0.1423 -0.0418 -0.1717
 7947TIP3   OH245331   1.511   5.984  15.768 -0.2842  0.3555 -0.5049
 7947TIP3    H145332   1.524   6.078  15.760 -0.9237  0.7312  1.9131
 7947TIP3    H245333   1.416   5.972  15.766 -0.3164  0.0561  1.2812
 7948TIP3   OH245334   2.334   2.151  13.891  0.0192  0.4887 -0.3204
 7948TIP3    H145335   2.239   2.139  13.901 -0.0106  1.3945  0.5917
 7948TIP3    H245336   2.345   2.244  13.874  0.7017  0.2571 -1.2522
 7949TIP3   OH245337   3.936   6.387   4.782 -0.7853 -0.5412  0.2044
 7949TIP3    H145338   3.845   6.364   4.761 -0.6958 -1.2139  0.5454
 7949TIP3    H245339   3.988   6.316   4.746 -0.3472  0.0573 -0.3720
 7950TIP3   OH245340   0.085   0.748  14.365 -0.9575 -0.0069  0.3864
 7950TIP3    H145341   0.113   0.810  14.432 -0.9454 -1.2062  1.5471
 7950TIP3    H245342  -0.004   0.725  14.389 -0.0650 -2.5500  1.7369
 7951TIP3   OH245343   1.287   3.657  13.942 -0.1616  0.2027  0.3521
 7951TIP3    H145344   1.272   3.608  13.861 -0.3401  1.4514 -0.4023
 7951TIP3    H245345   1.201   3.658  13.985 -0.6586  1.4730 -0.5914
 7952TIP3   OH245346   1.144   1.974   3.891 -0.2460 -0.3017 -0.0067
 7952TIP3    H145347   1.209   1.977   3.821 -0.0163 -2.2469  0.0627
 7952TIP3    H245348   1.144   1.882   3.919 -0.8167  0.2866  2.0768
 7953TIP3   OH245349   0.509   6.538   2.622 -0.3635 -0.4604  0.2255
 7953TIP3    H145350   0.575   6.601   2.653 -0.2115 -1.0985  1.2521
 7953TIP3    H245351   0.426   6.584   2.635 -0.1662  0.1656 -0.6234
 7954TIP3   OH245352   5.571   0.895  13.435  0.4179 -0.4480 -0.1967
 7954TIP3    H145353   5.575   0.946  13.516  0.9521  0.9348 -1.0667
 7954TIP3    H245354   5.639   0.829  13.445  1.2375  0.4048  0.0480
 7955TIP3   OH245355   6.376   2.200  11.975 -0.2013 -0.4433  0.0079
 7955TIP3    H145356   6.372   2.114  12.018  2.6552 -1.2424 -1.0742
 7955TIP3    H245357   6.412   2.258  12.042 -1.5173 -0.1847  0.5295
 7956TIP3   OH245358   5.207   2.590   1.189  0.3785 -0.7725  0.1745
 7956TIP3    H145359   5.149   2.559   1.119  0.0554 -1.6616  0.8178
 7956TIP3    H245360   5.269   2.648   1.145 -0.4558 -0.5090 -0.6763
 7957TIP3   OH245361   2.519   4.737   1.324  0.3826  0.1970 -0.1416
 7957TIP3    H145362   2.523   4.817   1.375 -1.6325 -0.1034  0.5785
 7957TIP3    H245363   2.611   4.711   1.312  1.0600  2.3994 -0.1364
 7958TIP3   OH245364   5.210   1.538  13.697 -0.3003  0.1233 -0.2906
 7958TIP3    H145365   5.297   1.575  13.713 -0.7134  0.7125  0.7043
 7958TIP3    H245366   5.220   1.444  13.715  0.2866  0.0592 -0.8945
 7959TIP3   OH245367   4.754   4.465  17.058 -0.2389 -0.3591 -0.5263
 7959TIP3    H145368   4.706   4.415  17.125 -0.1062 -0.8260 -0.7825
 7959TIP3    H245369   4.707   4.448  16.977 -0.9745  0.9614 -0.4184
 7960TIP3   OH245370   4.592   0.967   5.244 -0.0528  0.1796 -0.1687
 7960TIP3    H145371   4.684   0.993   5.248 -0.3670  1.2518  0.3831
 7960TIP3    H245372   4.551   1.013   5.317 -1.4381  1.4785 -1.6883
 7961TIP3   OH245373   6.196   2.606  12.491  0.4744 -0.0984  0.4219
 7961TIP3    H145374   6.104   2.634  12.493  0.7054  0.6821  1.7556
 7961TIP3    H245375   6.200   2.540  12.422 -0.9548  0.3093 -0.0862
 7962TIP3   OH245376   6.679   1.495  16.381  0.6555  0.2362  0.4887
 7962TIP3    H145377   6.639   1.507  16.295  0.8762  1.0527  0.4907
 7962TIP3    H245378   6.756   1.441  16.365  0.5336  0.1426  0.2175
 7963TIP3   OH245379   3.780   1.817   6.076 -0.1318  0.5345  0.1444
 7963TIP3    H145380   3.701   1.770   6.101  0.8156 -0.9666  0.3956
 7963TIP3    H245381   3.841   1.803   6.148  0.9991  0.1170 -0.8600
 7964TIP3   OH245382   2.183   0.636   5.478  0.4726 -0.4088  0.2647
 7964TIP3    H145383   2.200   0.730   5.480 -0.1754 -0.2999  1.0092
 7964TIP3    H245384   2.246   0.599   5.540  0.0149 -0.3394  0.7780
 7965TIP3   OH245385   1.580   3.915  12.149 -0.6928  0.4011 -0.3404
 7965TIP3    H145386   1.541   3.995  12.182 -1.0935 -0.1814  0.6266
 7965TIP3    H245387   1.647   3.892  12.213 -0.0100  0.4002 -1.0380
 7966TIP3   OH245388   6.703   5.218   6.571 -0.5083  0.6325  0.3343
 7966TIP3    H145389   6.641   5.146   6.582 -1.4048  1.5646  1.7696
 7966TIP3    H245390   6.689   5.249   6.482 -0.3904 -0.7088 -0.1597
 7967TIP3   OH245391   5.586   0.857  15.386 -0.1858  0.0622  0.2140
 7967TIP3    H145392   5.581   0.953  15.381  1.2248  0.1633  0.2817
 7967TIP3    H245393   5.634   0.832  15.308 -1.2997 -0.6910 -0.2544
 7968TIP3   OH245394   1.624   2.724  13.501  0.2666 -0.2973 -0.3109
 7968TIP3    H145395   1.585   2.805  13.533  0.1331 -0.4391 -0.1103
 7968TIP3    H245396   1.711   2.748  13.471 -0.0814  0.0840 -1.0332
 7969TIP3   OH245397   1.088   3.869   6.460  0.0442  0.0583  0.5087
 7969TIP3    H145398   1.103   3.929   6.534  1.5268 -1.2504  1.3580
 7969TIP3    H245399   0.996   3.846   6.466  0.1376 -0.0453  2.0220
 7970TIP3   OH245400   0.358   4.007   5.820 -0.1588  0.5593  0.1366
 7970TIP3    H145401   0.420   3.986   5.750 -1.1023  0.0270 -0.5833
 7970TIP3    H245402   0.328   4.096   5.800  0.8142  1.0532  0.8382
 7971TIP3   OH245403   5.223   1.314   3.859  0.2491 -0.2900  0.5067
 7971TIP3    H145404   5.189   1.264   3.933  2.2737 -0.0615  1.6729
 7971TIP3    H245405   5.222   1.405   3.890  1.0464 -0.1844  0.2434
 7972TIP3   OH245406   6.678   5.423  12.034  0.3745  0.2921 -0.0617
 7972TIP3    H145407   6.621   5.368  11.980  1.0554 -1.3858  0.8539
 7972TIP3    H245408   6.753   5.443  11.978  1.7826 -2.6424  0.5824
 7973TIP3   OH245409   0.317   0.138   4.439 -0.2935 -0.0273  0.1007
 7973TIP3    H145410   0.247   0.080   4.469 -0.8969  1.1389  1.0316
 7973TIP3    H245411   0.273   0.204   4.385  0.4580 -0.6946 -1.3961
 7974TIP3   OH245412   6.575   5.138   4.947 -0.4039  0.2017 -0.1469
 7974TIP3    H145413   6.535   5.225   4.941  1.1794  1.0987  1.2554
 7974TIP3    H245414   6.507   5.083   4.984 -0.9512  1.2601  0.4943
 7975TIP3   OH245415   2.944   4.293  13.396 -0.1271 -0.0327  0.3858
 7975TIP3    H145416   2.993   4.221  13.355  0.7871  1.3272 -1.0352
 7975TIP3    H245417   2.936   4.267  13.488  1.6491 -1.1865  0.2701
 7976TIP3   OH245418   6.331   0.157  12.684 -0.5093  0.2869  0.2798
 7976TIP3    H145419   6.349   0.067  12.714 -1.7087 -0.6126 -1.5095
 7976TIP3    H245420   6.406   0.208  12.715 -0.1739 -1.1538  2.0218
 7977TIP3   OH245421   0.618   2.783  11.088  0.8719  0.6768 -0.2860
 7977TIP3    H145422   0.590   2.867  11.054  1.6528  0.1528 -2.3660
 7977TIP3    H245423   0.703   2.767  11.047  0.2146 -1.6343 -0.9105
 7978TIP3   OH245424   1.052   4.201  15.162  0.0378 -0.3567  0.3704
 7978TIP3    H145425   1.037   4.117  15.205 -0.2245 -0.0961  0.7895
 7978TIP3    H245426   0.964   4.233  15.140  0.1686 -0.4869 -0.3559
 7979TIP3   OH245427   4.518   4.818  11.863 -0.0847  0.4751  0.4505
 7979TIP3    H145428   4.605   4.839  11.830  0.8123 -3.8622 -0.6520
 7979TIP3    H245429   4.457   4.863  11.804  1.5227 -1.5858 -3.0751
 7980TIP3   OH245430   3.139   3.757   1.642  0.6841 -0.2245  0.1671
 7980TIP3    H145431   3.139   3.687   1.577 -1.3116 -0.0249 -0.1142
 7980TIP3    H245432   3.068   3.734   1.702  0.3686  1.2370  0.3975
 7981TIP3   OH245433   4.372   4.815  14.420 -0.1406 -0.1687  0.2913
 7981TIP3    H145434   4.406   4.895  14.379  0.6754 -0.4560  0.3894
 7981TIP3    H245435   4.300   4.788  14.362 -1.0746  1.1595  0.7947
 7982TIP3   OH245436   6.672   1.793  16.755 -0.1876  0.2513  0.6503
 7982TIP3    H145437   6.602   1.834  16.704  1.6942 -0.1400 -2.5012
 7982TIP3    H245438   6.684   1.707  16.714  1.3760 -0.1301  1.8395
 7983TIP3   OH245439   1.308   5.358   3.711 -0.4289  0.1973 -0.1426
 7983TIP3    H145440   1.272   5.269   3.709 -0.0987 -0.0167  1.5742
 7983TIP3    H245441   1.396   5.349   3.674 -0.6727 -0.0426 -0.6744
 7984TIP3   OH245442   1.199   0.960   0.764  0.1990 -0.8673  0.1654
 7984TIP3    H145443   1.195   1.016   0.687  2.7042 -0.3400  0.3317
 7984TIP3    H245444   1.128   0.991   0.820  0.7479  1.3490 -0.2822
 7985TIP3   OH245445   0.909   5.196  17.279 -0.1407 -0.6280  0.5022
 7985TIP3    H145446   0.822   5.210  17.318  0.0561 -0.0442  0.7600
 7985TIP3    H245447   0.891   5.161  17.192 -0.6174 -1.0874  0.7783
 7986TIP3   OH245448   1.237   1.745  17.015 -0.2632  0.1834  0.3283
 7986TIP3    H145449   1.143   1.725  17.015 -0.0611 -0.8126  0.5570
 7986TIP3    H245450   1.268   1.714  17.099  0.3995 -0.1012 -0.0167
 7987TIP3   OH245451   5.906   3.887  17.553  0.2122 -0.3492 -0.7315
 7987TIP3    H145452   5.812   3.875  17.538  0.3601 -0.9522 -1.2575
 7987TIP3    H245453   5.944   3.881  17.465  0.6294  1.0596 -0.6616
 7988TIP3   OH245454   4.229   5.150  17.597  0.1598  0.6526 -0.0376
 7988TIP3    H145455   4.204   5.235  17.633 -0.5489  0.9017 -1.0789
 7988TIP3    H245456   4.180   5.143  17.515 -0.3652 -1.0822  0.3793
 7989TIP3   OH245457   0.443   3.909   4.457 -0.0123 -0.2383  0.8156
 7989TIP3    H145458   0.351   3.885   4.452 -0.7196  2.1365  1.0878
 7989TIP3    H245459   0.481   3.847   4.520 -1.3016 -1.5284  0.3561
 7990TIP3   OH245460   4.052   2.112   2.294 -0.3498  0.2000 -0.0219
 7990TIP3    H145461   4.054   2.192   2.240  2.2782  0.2565  0.0412
 7990TIP3    H245462   3.976   2.124   2.351 -1.7010  1.3192 -1.9252
 7991TIP3   OH245463   1.273   0.094  16.909  0.2064 -0.1357  0.0936
 7991TIP3    H145464   1.250   0.057  16.995 -1.0900  0.3039 -0.0278
 7991TIP3    H245465   1.189   0.126  16.875  0.9093  0.8040 -0.7994
 7992TIP3   OH245466   5.241   3.899  11.161 -0.2149 -0.0949  0.2505
 7992TIP3    H145467   5.156   3.911  11.203 -0.6783  1.0266 -0.9334
 7992TIP3    H245468   5.231   3.820  11.108 -0.5233  0.0470  0.0978
 7993TIP3   OH245469   4.337   0.550  12.360  0.8974  0.3729  0.2906
 7993TIP3    H145470   4.360   0.487  12.292 -0.2544  0.3482 -0.0921
 7993TIP3    H245471   4.252   0.522  12.393  1.7210 -0.0035  2.2453
 7994TIP3   OH245472   3.287   0.139  13.486 -0.0441 -0.1546 -0.1036
 7994TIP3    H145473   3.334   0.185  13.416  0.5271 -0.4542  0.0724
 7994TIP3    H245474   3.338   0.059  13.500 -0.6608 -0.5329  0.0394
 7995TIP3   OH245475   6.108   0.129   5.310  0.1025  0.2850 -0.1908
 7995TIP3    H145476   6.109   0.205   5.368  2.7953 -1.4290  2.2875
 7995TIP3    H245477   6.182   0.076   5.339 -1.8230 -3.4945 -1.5150
 7996TIP3   OH245478   0.198   3.435   6.297 -0.0900 -0.0463 -0.6989
 7996TIP3    H145479   0.106   3.409   6.302 -0.2617  0.5964 -0.4132
 7996TIP3    H245480   0.196   3.526   6.268  0.2675  1.0742  2.3348
 7997TIP3   OH245481   5.884   4.876  12.376  0.4943  0.2047 -0.2192
 7997TIP3    H145482   5.891   4.899  12.469 -0.0045  3.6730 -0.9018
 7997TIP3    H245483   5.852   4.786  12.376 -1.3838  0.7217  3.0120
 7998TIP3   OH245484   5.765   6.194  12.491 -0.1701  0.3643  0.0299
 7998TIP3    H145485   5.835   6.257  12.474 -1.5562  1.5495 -1.6313
 7998TIP3    H245486   5.720   6.229  12.568  0.5760 -0.0085  0.6542
 7999TIP3   OH245487   0.702   5.688  14.695  0.1308  0.1910  0.5247
 7999TIP3    H145488   0.724   5.743  14.770  1.5151  2.0018 -1.1248
 7999TIP3    H245489   0.649   5.744  14.638 -1.5957 -1.4120  0.4485
 8000TIP3   OH245490   2.725   5.918  16.265 -0.6655 -0.1949  0.1333
 8000TIP3    H145491   2.638   5.923  16.225 -1.7661 -0.2558  2.3715
 8000TIP3    H245492   2.739   5.824  16.279 -0.8228 -0.1099  0.9214
 8001TIP3   OH245493   5.650   4.202  16.466  0.1173 -0.4489 -0.1092
 8001TIP3    H145494   5.567   4.239  16.497  0.2768  0.1160 -0.3429
 8001TIP3    H245495   5.666   4.246  16.383  0.4688 -0.8293 -0.2458
 8002TIP3   OH245496   6.475   0.767   4.656  0.0489 -0.4688 -0.6899
 8002TIP3    H145497   6.484   0.723   4.741  2.1171  0.2931 -0.4584
 8002TIP3    H245498   6.487   0.697   4.592  0.0643 -0.7847 -0.3506
 8003TIP3   OH245499   1.589   2.904  16.287 -0.3516  0.5445  0.1658
 8003TIP3    H145500   1.546   2.834  16.337 -0.7366  0.6367 -0.0322
 8003TIP3    H245501   1.577   2.879  16.195  1.5383 -0.3347  0.1133
 8004TIP3   OH245502   6.246   3.730  16.119  0.3198 -0.1691 -0.8497
 8004TIP3    H145503   6.234   3.738  16.024  2.1991  0.6897 -1.0659
 8004TIP3    H245504   6.246   3.820  16.151 -1.1095 -0.4851  0.1191
 8005TIP3   OH245505   5.722   5.138   2.387 -0.4286 -0.0675 -0.3661
 8005TIP3    H145506   5.698   5.049   2.414  0.0474 -0.7595 -2.0751
 8005TIP3    H245507   5.706   5.139   2.293  0.0272  1.5182 -0.4487
 8006TIP3   OH245508   4.627   0.370   6.710  0.3037  0.2238 -0.7640
 8006TIP3    H145509   4.700   0.376   6.648  2.7126  0.0979  1.8951
 8006TIP3    H245510   4.631   0.281   6.744 -0.0256  0.7106  0.6060
 8007TIP3   OH245511   2.906   1.935   1.853  0.5881 -0.8137 -0.4818
 8007TIP3    H145512   2.813   1.915   1.842  0.2753  0.2166  0.1774
 8007TIP3    H245513   2.929   1.989   1.777  0.2838  0.0903  0.0498
 8008TIP3   OH245514   4.314   4.098   0.098  0.6256 -0.5103  0.1403
 8008TIP3    H145515   4.224   4.106   0.066  0.4513  1.4636  0.9927
 8008TIP3    H245516   4.368   4.138   0.030  0.5751  0.6487  0.7504
 8009TIP3   OH245517   4.196   3.713   0.634  0.0149  0.7529 -0.1397
 8009TIP3    H145518   4.190   3.777   0.563 -0.0107  1.0805  0.1551
 8009TIP3    H245519   4.110   3.672   0.637  0.4323 -0.2682 -1.2218
 8010TIP3   OH245520   6.685   5.001  13.952 -0.4312 -0.0822  0.0896
 8010TIP3    H145521   6.618   4.981  14.017 -0.3067 -2.0161 -0.3047
 8010TIP3    H245522   6.658   5.085  13.915 -0.4063  1.1765  2.6924
 8011TIP3   OH245523   0.958   6.458   5.988  0.1535  0.3970 -0.1850
 8011TIP3    H145524   1.000   6.389   5.936  0.0144 -1.4318  1.9495
 8011TIP3    H245525   1.025   6.484   6.052 -0.4217  0.8390  0.2492
 8012TIP3   OH245526   4.441   4.609   2.980 -0.0829 -0.3341  0.2157
 8012TIP3    H145527   4.364   4.633   2.927  1.1951 -0.6805 -1.9261
 8012TIP3    H245528   4.475   4.531   2.937  2.2433  0.5875  0.2436
 8013TIP3   OH245529   5.074   2.290  12.567  0.2602 -0.1300  0.5811
 8013TIP3    H145530   5.041   2.276  12.478  0.4336  1.2666  0.2672
 8013TIP3    H245531   5.160   2.249  12.568  0.9689  1.2256 -0.4451
 8014TIP3   OH245532   2.216   1.507   5.986  0.0927 -0.7729  0.3050
 8014TIP3    H145533   2.248   1.555   6.063 -0.0761  1.2573 -0.8227
 8014TIP3    H245534   2.291   1.506   5.926 -0.7483  0.6527 -0.8248
 8015TIP3   OH245535   4.467   5.173   1.176  0.5535  0.3468  0.1168
 8015TIP3    H145536   4.398   5.107   1.180  1.9458 -1.3036 -1.6381
 8015TIP3    H245537   4.497   5.181   1.267 -3.3878  2.9094  1.4711
 8016TIP3   OH245538   2.220   2.380   0.623  0.0312  0.6940 -0.2134
 8016TIP3    H145539   2.282   2.438   0.668 -1.0498  0.9154  1.0582
 8016TIP3    H245540   2.260   2.294   0.627  0.5131  0.9286  0.1004
 8017TIP3   OH245541   0.564   5.273  14.570  0.0114  0.6567  0.4715
 8017TIP3    H145542   0.477   5.235  14.571 -0.5063  1.5641 -1.9654
 8017TIP3    H245543   0.561   5.344  14.635 -2.2374  2.8560 -1.7903
 8018TIP3   OH245544   2.790   0.821  14.882 -0.1416  0.0792 -0.2420
 8018TIP3    H145545   2.764   0.810  14.790  0.6684 -0.0800 -0.4618
 8018TIP3    H245546   2.879   0.857  14.877 -0.2157  0.3760  0.4818
 8019TIP3   OH245547   3.112   4.628   3.373 -0.6583 -0.0336 -0.4152
 8019TIP3    H145548   3.022   4.647   3.401 -0.2787 -0.6632  1.3873
 8019TIP3    H245549   3.117   4.533   3.373  0.7627 -0.0675  2.4068
 8020TIP3   OH245550   6.149   4.464  11.966  0.5849  0.0297  0.2678
 8020TIP3    H145551   6.171   4.385  12.015 -0.9757 -0.8512 -0.3665
 8020TIP3    H245552   6.228   4.485  11.916  1.9847  0.5588  2.5587
 8021TIP3   OH245553   0.422   3.319  13.492  0.2822 -0.1787  0.2517
 8021TIP3    H145554   0.447   3.339  13.582 -1.1657 -2.4721  1.2616
 8021TIP3    H245555   0.327   3.332  13.490  0.1929 -0.8501 -0.7237
 8022TIP3   OH245556   5.250   6.219   2.466  0.2310 -0.5786  0.3973
 8022TIP3    H145557   5.323   6.273   2.497  0.0922 -1.2495  1.9946
 8022TIP3    H245558   5.185   6.283   2.437  1.7089  0.0305 -1.8695
 8023TIP3   OH245559   5.988   6.711  16.538 -0.6753  0.0559  0.0797
 8023TIP3    H145560   6.030   6.785  16.494 -1.1665  0.6918  0.6492
 8023TIP3    H245561   6.051   6.640  16.531 -0.1063  0.5846 -0.3079
 8024TIP3   OH245562   1.476   6.083  11.302 -0.1962  0.1642 -0.7442
 8024TIP3    H145563   1.442   6.051  11.219 -0.1925  0.4961 -0.8780
 8024TIP3    H245564   1.489   6.005  11.355 -1.4840  0.0523 -0.5636
 8025TIP3   OH245565   2.269   5.156   3.210 -0.2686  0.0723  0.2383
 8025TIP3    H145566   2.256   5.067   3.176  0.7320  0.0196 -0.0400
 8025TIP3    H245567   2.203   5.209   3.165  0.3193 -0.1987 -1.0043
 8026TIP3   OH245568   6.077   1.148  12.115 -0.2428  0.0117  0.2991
 8026TIP3    H145569   6.139   1.220  12.104  0.5307 -0.6601  0.1358
 8026TIP3    H245570   6.131   1.075  12.146 -0.3920 -1.4079 -2.4315
 8027TIP3   OH245571   5.092   6.725   4.712 -0.3585  0.4640 -0.5265
 8027TIP3    H145572   5.016   6.677   4.744  0.4968 -0.5831 -0.0101
 8027TIP3    H245573   5.124   6.673   4.638 -0.5598  1.2909 -1.2159
 8028TIP3   OH245574   3.456   0.581   1.684 -0.4973 -0.6295  0.1735
 8028TIP3    H145575   3.535   0.622   1.719 -0.2792 -1.6385  0.9214
 8028TIP3    H245576   3.407   0.653   1.645  0.7526  0.0316 -0.2418
 8029TIP3   OH245577   5.950   4.131  16.528  0.2129  0.1679  0.3535
 8029TIP3    H145578   5.955   4.164  16.438  0.5859  2.3890  1.1376
 8029TIP3    H245579   5.859   4.143  16.553  0.5618  1.6431  0.9875
 8030TIP3   OH245580   4.958   4.950   1.839 -0.4732 -0.5047 -0.4099
 8030TIP3    H145581   4.897   4.898   1.892 -0.9033  1.4534  1.1524
 8030TIP3    H245582   4.993   5.015   1.900  1.5069 -0.1669 -1.8176
 8031TIP3   OH245583   4.024   2.119  14.767 -1.0035 -0.2208 -0.0850
 8031TIP3    H145584   4.065   2.073  14.840 -0.5422  1.3216  0.6634
 8031TIP3    H245585   3.998   2.050  14.706 -0.7608 -1.4857  1.2127
 8032TIP3   OH245586   1.056   6.122  13.278 -0.3351 -0.1235 -0.1840
 8032TIP3    H145587   1.061   6.173  13.359  2.8464  0.8256 -0.8253
 8032TIP3    H245588   1.006   6.044  13.302  2.1530 -0.8976  3.3175
 8033TIP3   OH245589   2.242   4.224  11.122  0.0114 -0.4513  0.1352
 8033TIP3    H145590   2.319   4.183  11.082  0.5140  0.0201  0.5852
 8033TIP3    H245591   2.279   4.283  11.188 -0.7825 -1.0345  1.1227
 8034TIP3   OH245592   3.808   1.883  14.219  0.7663  0.4584 -0.1685
 8034TIP3    H145593   3.785   1.810  14.161  2.2512 -1.1344  1.1524
 8034TIP3    H245594   3.749   1.874  14.294 -0.6885  2.1188 -1.0256
 8035TIP3   OH245595   6.626   2.282   4.643 -0.2809  0.6709  0.0061
 8035TIP3    H145596   6.543   2.251   4.678  0.2183  1.2894  1.8195
 8035TIP3    H245597   6.635   2.371   4.675  0.4562  1.1117 -1.3256
 8036TIP3   OH245598   1.382   4.604  17.535  0.3863 -0.1634  0.2446
 8036TIP3    H145599   1.400   4.696  17.552 -3.0039  0.8652 -0.8280
 8036TIP3    H245600   1.331   4.575  17.611  1.0342 -1.0731  0.3541
 8037TIP3   OH245601   4.871   0.787   1.213  0.4588  0.4224  0.4626
 8037TIP3    H145602   4.880   0.843   1.136  1.3550 -3.6689 -2.7643
 8037TIP3    H245603   4.960   0.773   1.243  0.4265 -0.5930  0.1164
 8038TIP3   OH245604   5.735   1.410   5.252  0.2754 -0.1261 -0.3551
 8038TIP3    H145605   5.680   1.471   5.300 -2.4384 -1.6506 -1.3531
 8038TIP3    H245606   5.753   1.455   5.169 -1.7047 -0.6107 -1.0848
 8039TIP3   OH245607   2.298   0.106   1.300 -0.9377 -0.0907  0.3510
 8039TIP3    H145608   2.369   0.081   1.240 -0.1337 -0.1838  1.3223
 8039TIP3    H245609   2.268   0.191   1.267  0.4842  0.5562  0.6684
 8040TIP3   OH245610   2.128   4.487   1.870 -0.1773  0.0349  0.4778
 8040TIP3    H145611   2.159   4.433   1.798  0.2729 -0.2593  0.8896
 8040TIP3    H245612   2.107   4.572   1.830 -1.7432 -0.6996 -0.3398
 8041TIP3   OH245613   5.278   3.979   2.486  0.3373  0.1117 -0.3856
 8041TIP3    H145614   5.354   3.985   2.543  0.9029  0.8777 -1.2026
 8041TIP3    H245615   5.300   4.033   2.410 -0.3413 -0.9830 -1.3932
 8042TIP3   OH245616   5.648   5.706  14.727 -0.0982  0.3736  0.3472
 8042TIP3    H145617   5.628   5.630  14.672  1.5514 -0.7825  1.2583
 8042TIP3    H245618   5.609   5.684  14.812 -0.0042  0.7647  0.4932
 8043TIP3   OH245619   4.647   4.905  14.452 -0.6573 -0.4294 -0.5351
 8043TIP3    H145620   4.684   4.878  14.368 -1.8531 -0.3367 -1.1168
 8043TIP3    H245621   4.575   4.843  14.467  0.0051 -0.9180  0.8018
 8044TIP3   OH245622   1.016   1.262   4.482 -0.1847  0.6957 -0.3386
 8044TIP3    H145623   0.997   1.355   4.471  1.2036  0.8860 -1.3878
 8044TIP3    H245624   0.944   1.217   4.436  0.4428  1.3261 -2.0200
 8045TIP3   OH245625   2.885   3.619  17.143 -0.0708 -0.6211 -0.1157
 8045TIP3    H145626   2.795   3.601  17.168  0.4862 -2.8774  0.4903
 8045TIP3    H245627   2.889   3.604  17.049 -0.4920  0.2979 -0.2853
 8046TIP3   OH245628   0.605   3.373   1.926 -0.1209 -0.5407  0.2103
 8046TIP3    H145629   0.574   3.346   2.012  1.4034  2.1015  1.7206
 8046TIP3    H245630   0.534   3.427   1.891  0.9663  2.2557  1.9624
 8047TIP3   OH245631   4.695   5.708  12.082  1.2259 -0.7923 -0.3043
 8047TIP3    H145632   4.694   5.614  12.064 -1.3226 -0.7421 -0.7364
 8047TIP3    H245633   4.772   5.740  12.035  0.7138 -2.3100 -2.3059
 8048TIP3   OH245634   2.300   4.425   4.254 -0.4433 -0.1054  0.4124
 8048TIP3    H145635   2.306   4.456   4.164 -1.6831  0.1986  0.4168
 8048TIP3    H245636   2.390   4.398   4.276 -0.1161 -0.1580 -0.8862
 8049TIP3   OH245637   2.384   2.362   6.340  0.2285  0.2936  0.1674
 8049TIP3    H145638   2.372   2.375   6.434  0.7044  0.2749  0.2328
 8049TIP3    H245639   2.296   2.348   6.307  0.0034  0.7864  0.5372
 8050TIP3   OH245640   2.963   5.357   3.620 -0.4064  0.1125  0.4639
 8050TIP3    H145641   2.903   5.431   3.620  0.9447  1.3260 -1.7852
 8050TIP3    H245642   2.998   5.354   3.709 -1.1015  1.6536  0.8216
 8051TIP3   OH245643   6.378   6.568  16.953 -0.2400  0.3487  0.0294
 8051TIP3    H145644   6.409   6.622  17.026 -1.1018  1.0881 -0.1388
 8051TIP3    H245645   6.283   6.579  16.954 -0.4285 -1.1093 -0.0663
 8052TIP3   OH245646   4.887   5.613   3.232  0.0543  0.1095 -0.3924
 8052TIP3    H145647   4.875   5.661   3.150 -0.5225  1.1446  0.2854
 8052TIP3    H245648   4.860   5.524   3.212  0.1328  0.3001 -1.3866
 8053TIP3   OH245649   0.135   3.445   1.758  0.8291 -0.0586 -0.1587
 8053TIP3    H145650   0.102   3.436   1.668 -0.0702  1.2922  0.0086
 8053TIP3    H245651   0.172   3.359   1.778 -0.3429 -0.8698 -1.2791
 8054TIP3   OH245652   3.856   6.109   5.498 -0.0331  0.5780 -0.7925
 8054TIP3    H145653   3.803   6.035   5.470 -0.1520 -0.1325  1.1652
 8054TIP3    H245654   3.945   6.087   5.469 -0.1086 -0.2385 -0.4357
 8055TIP3   OH245655   4.940   0.977  13.283  0.5078 -0.3162  0.0372
 8055TIP3    H145656   4.895   0.902  13.244  1.7234 -1.4659  0.7416
 8055TIP3    H245657   4.873   1.044  13.292 -0.4256 -0.9947 -1.4261
 8056TIP3   OH245658   3.504   0.846  14.452 -0.3318  0.0513 -0.1807
 8056TIP3    H145659   3.421   0.799  14.457  0.9932 -2.3415  0.8548
 8056TIP3    H245660   3.502   0.906  14.527 -1.5891  0.8924 -0.8627
 8057TIP3   OH245661   3.651   4.735  15.819  0.7126  0.1258 -0.4539
 8057TIP3    H145662   3.672   4.705  15.730  1.5792 -0.7794  0.0469
 8057TIP3    H245663   3.555   4.728  15.824  0.8160 -2.1404 -0.5305
 8058TIP3   OH245664   4.362   3.192   2.198  0.3362  0.4762 -0.0704
 8058TIP3    H145665   4.432   3.257   2.196  1.6096 -0.8400  0.3185
 8058TIP3    H245666   4.389   3.129   2.265 -0.3768 -0.9774 -1.0952
 8059TIP3   OH245667   4.935   2.009  15.724 -0.1125 -0.0435  0.2970
 8059TIP3    H145668   4.875   2.063  15.672  1.6275 -0.0573 -1.8468
 8059TIP3    H245669   4.881   1.936  15.754 -1.7456  1.2081  0.5923
 8060TIP3   OH245670   4.583   5.603  16.896 -0.2581 -0.1228  0.9410
 8060TIP3    H145671   4.520   5.670  16.869 -0.4184 -0.5759  0.1399
 8060TIP3    H245672   4.659   5.618  16.839  0.1424  0.0632  1.5116
 8061TIP3   OH245673   1.242   5.600   2.827  0.0473 -0.0667 -0.5539
 8061TIP3    H145674   1.199   5.581   2.744 -2.5444  3.7255 -0.3299
 8061TIP3    H245675   1.184   5.562   2.893 -1.3775  2.2007 -0.3853
 8062TIP3   OH245676   1.497   6.610  14.897  0.3434 -0.6098  0.2317
 8062TIP3    H145677   1.533   6.550  14.833  0.7137  0.8662 -0.9981
 8062TIP3    H245678   1.436   6.665  14.848 -0.1467 -0.1064  1.3545
 8063TIP3   OH245679   5.135   5.182  15.962  0.7051 -0.5437  0.0869
 8063TIP3    H145680   5.135   5.130  16.042  1.6884 -0.6283  0.0506
 8063TIP3    H245681   5.169   5.123  15.895 -0.8916 -0.7290 -0.5899
 8064TIP3   OH245682   2.837   2.945  12.113 -0.4451 -0.0759 -0.5978
 8064TIP3    H145683   2.888   2.867  12.088  0.1691  0.5387 -1.2861
 8064TIP3    H245684   2.763   2.945  12.053 -0.5467 -0.2313 -0.4738
 8065TIP3   OH245685   3.082   6.080   1.449 -0.0712  0.0566  0.0855
 8065TIP3    H145686   3.141   6.088   1.374 -1.4868 -0.6307 -1.1585
 8065TIP3    H245687   3.001   6.043   1.412 -0.1182 -2.3559  2.2882
 8066TIP3   OH245688   0.299   6.152  12.375 -0.2149 -0.0631  0.0029
 8066TIP3    H145689   0.379   6.143  12.324  0.4233  1.4032  0.6922
 8066TIP3    H245690   0.323   6.122  12.463  0.0957  1.9753  0.6487
 8067TIP3   OH245691   6.399   3.393  12.488  0.0511  0.8873 -0.0856
 8067TIP3    H145692   6.380   3.482  12.518 -0.1193  0.7490  0.2261
 8067TIP3    H245693   6.394   3.340  12.567  0.8185  0.6990 -0.1562
 8068TIP3   OH245694   4.736   5.419   3.815 -0.3775  0.2136 -0.1358
 8068TIP3    H145695   4.751   5.334   3.774 -2.5261  0.0215 -0.6232
 8068TIP3    H245696   4.723   5.399   3.907 -1.0549 -0.0332 -0.2769
 8069TIP3   OH245697   4.781   0.129   6.522 -0.0130 -0.6333 -0.1566
 8069TIP3    H145698   4.791   0.225   6.518 -0.1193 -0.6168 -3.8023
 8069TIP3    H245699   4.862   0.098   6.562 -0.9742  0.9643  3.4128
 8070TIP3   OH245700   3.303   2.502   6.369 -0.1186 -0.2139 -0.2552
 8070TIP3    H145701   3.244   2.433   6.338  0.2442 -0.6209 -0.0379
 8070TIP3    H245702   3.320   2.480   6.461  0.6641 -0.3003 -0.4189
 8071TIP3   OH245703   6.090   5.101  17.388 -0.1938  0.9768  0.1428
 8071TIP3    H145704   6.131   5.185  17.366  0.4003  0.9092  0.9188
 8071TIP3    H245705   5.997   5.115  17.373 -0.0253  1.5455 -0.4278
 8072TIP3   OH245706   4.624   0.877  12.943  0.4616 -0.3394 -0.3232
 8072TIP3    H145707   4.655   0.849  12.857 -0.5242  0.3874 -0.9445
 8072TIP3    H245708   4.643   0.971  12.946  0.2548 -0.3067  0.1485
 8073TIP3   OH245709   1.563   0.732   5.912 -0.5336  0.4077 -0.3277
 8073TIP3    H145710   1.469   0.746   5.905 -0.7264 -0.5527  0.1980
 8073TIP3    H245711   1.594   0.728   5.822 -0.7279  2.2876 -0.5221
 8074TIP3   OH245712   4.226   0.562   0.073 -0.0757  1.0581  0.3919
 8074TIP3    H145713   4.304   0.613   0.093  0.3244  0.0680  1.4477
 8074TIP3    H245714   4.166   0.624   0.032  0.4578  2.3361  1.4917
 8075TIP3   OH245715   3.923   2.294   5.226  0.2179 -0.9690  0.8377
 8075TIP3    H145716   3.913   2.389   5.234 -0.9268 -1.0698  0.7986
 8075TIP3    H245717   3.907   2.261   5.314  0.8776 -1.1180  0.9081
 8076TIP3   OH245718   4.335   4.383   6.021  0.0061  0.2262  0.7024
 8076TIP3    H145719   4.293   4.324   5.958 -0.2280 -0.6791  1.6710
 8076TIP3    H245720   4.428   4.366   6.011 -0.0186  0.2558  0.4276
 8077TIP3   OH245721   4.839   4.647  14.312 -0.1826  0.2644 -0.0825
 8077TIP3    H145722   4.904   4.716  14.302  0.4258 -0.1524  0.8836
 8077TIP3    H245723   4.882   4.569  14.277 -0.1485 -0.0147  0.5742
 8078TIP3   OH245724   1.565   5.318   0.551  0.2456  0.1362 -0.3326
 8078TIP3    H145725   1.642   5.325   0.495  0.9170 -4.6011 -0.3731
 8078TIP3    H245726   1.496   5.288   0.493 -1.4011  2.8779  0.0156
 8079TIP3   OH245727   3.492   5.306   1.769 -0.2886 -0.5140  1.2036
 8079TIP3    H145728   3.497   5.238   1.835  1.0613  0.5113  2.2105
 8079TIP3    H245729   3.484   5.259   1.686  0.9558 -1.9274  1.8409
 8080TIP3   OH245730   3.159   6.588  14.355 -0.0832 -0.7785  0.3951
 8080TIP3    H145731   3.081   6.612  14.305  0.4007 -0.3600 -0.1711
 8080TIP3    H245732   3.128   6.523  14.417 -1.1962  0.4663  1.1956
 8081TIP3   OH245733   0.494   4.828   4.029  0.1309  0.6275 -0.1970
 8081TIP3    H145734   0.450   4.805   3.948 -0.0097  0.9567 -0.2149
 8081TIP3    H245735   0.509   4.744   4.073  0.7957  0.3974 -0.8603
 8082TIP3   OH245736   6.075   3.605   1.786  0.2535 -0.3213 -0.2061
 8082TIP3    H145737   6.141   3.651   1.839 -0.8996  2.2444 -0.8528
 8082TIP3    H245738   6.119   3.590   1.702  0.2337  0.9664 -0.4783
 8083TIP3   OH245739   4.813   3.305  16.063  0.1083 -0.0207 -0.1348
 8083TIP3    H145740   4.776   3.386  16.030  1.9045  0.7182 -0.4670
 8083TIP3    H245741   4.749   3.237  16.041 -0.7523  1.0933 -1.1437
 8084TIP3   OH245742   0.841   4.236   6.424  0.2173 -0.5553  0.2493
 8084TIP3    H145743   0.787   4.278   6.356  0.5158  0.2607  0.5052
 8084TIP3    H245744   0.918   4.203   6.376 -0.3208 -1.4029 -0.0575
 8085TIP3   OH245745   1.052   5.555  14.168 -0.2530  0.0818 -0.0009
 8085TIP3    H145746   1.028   5.617  14.236  0.7240 -2.7704  3.2554
 8085TIP3    H245747   1.127   5.595  14.123 -1.3217  2.3096  0.0731
 8086TIP3   OH245748   6.000   3.505   2.997  1.0614  0.2368  0.0070
 8086TIP3    H145749   5.977   3.580   3.051 -0.7935 -0.5611  0.3974
 8086TIP3    H245750   6.014   3.433   3.059 -0.6420 -0.5727 -0.4902
 8087TIP3   OH245751   1.797   2.553   0.265  0.2962  0.0468 -0.1177
 8087TIP3    H145752   1.827   2.602   0.342 -0.8994  0.3746  0.1603
 8087TIP3    H245753   1.784   2.620   0.197 -1.0896  0.1248  0.1858
 8088TIP3   OH245754   0.384   2.032   3.377 -0.4457  0.9128 -0.2491
 8088TIP3    H145755   0.289   2.020   3.377 -0.6469  2.3290 -0.7527
 8088TIP3    H245756   0.418   1.949   3.343 -1.3563 -0.3559  1.7177
 8089TIP3   OH245757   0.773   4.856   1.856  0.5144  0.3623  0.0486
 8089TIP3    H145758   0.843   4.856   1.790  0.9925  1.8827  0.5173
 8089TIP3    H245759   0.697   4.888   1.809  0.1909 -0.9156 -0.3593
 8090TIP3   OH245760   2.047   6.537   4.638  0.4314  0.3159 -0.0471
 8090TIP3    H145761   2.024   6.446   4.653  0.9540  0.3299  0.9196
 8090TIP3    H245762   2.094   6.563   4.717 -1.3758  1.9800  0.5622
 8091TIP3   OH245763   1.993   3.892  12.681  0.0335 -0.7003  0.0826
 8091TIP3    H145764   1.938   3.814  12.693  0.3686 -1.4077 -2.3096
 8091TIP3    H245765   2.029   3.910  12.767 -1.3193 -2.2250  1.0321
 8092TIP3   OH245766   3.711   1.840  15.370  0.0218 -0.4994  0.5926
 8092TIP3    H145767   3.692   1.754  15.406 -0.4734 -1.2802 -1.4140
 8092TIP3    H245768   3.636   1.861  15.315  0.5171  0.8437  0.3850
 8093TIP3   OH245769   4.879   2.641  15.197 -0.2119  0.2022 -0.3796
 8093TIP3    H145770   4.898   2.653  15.290  1.9139 -1.7441 -0.4727
 8093TIP3    H245771   4.948   2.691  15.152 -1.1335  1.0032 -0.9291
 8094TIP3   OH245772   2.212   3.351   4.450  0.6504  0.1341  0.4558
 8094TIP3    H145773   2.142   3.363   4.515  0.3749 -1.6745  0.5316
 8094TIP3    H245774   2.217   3.257   4.437  1.4646  0.3843 -1.3453
 8095TIP3   OH245775   5.821   4.927   4.206  0.0390  0.1080  0.1463
 8095TIP3    H145776   5.900   4.894   4.248  0.0842  1.8679  1.5481
 8095TIP3    H245777   5.769   4.963   4.278 -1.3953  0.2622 -0.9223
 8096TIP3   OH245778   1.708   5.398   5.607  0.1207 -0.2731 -0.1822
 8096TIP3    H145779   1.722   5.308   5.576 -0.9216 -0.5503  0.1329
 8096TIP3    H245780   1.719   5.392   5.701  0.8852  0.1067 -0.2395
 8097TIP3   OH245781   6.604   0.321  12.659 -0.0326  0.0709 -0.0255
 8097TIP3    H145782   6.594   0.335  12.753  0.4490 -1.0252  0.2090
 8097TIP3    H245783   6.661   0.244  12.652  1.0992  0.9788 -1.2269
 8098TIP3   OH245784   3.282   4.765   2.424  0.2093 -0.1872  0.2339
 8098TIP3    H145785   3.265   4.733   2.335 -1.2027 -0.7785  0.6863
 8098TIP3    H245786   3.336   4.843   2.412  1.9533 -1.5123 -1.0128
 8099TIP3   OH245787   6.197   2.088  11.357  0.3435 -0.1808 -0.0013
 8099TIP3    H145788   6.283   2.127  11.376  0.4382 -0.3702 -0.0325
 8099TIP3    H245789   6.173   2.125  11.272  0.9245 -0.9922 -0.5439
 8100TIP3   OH245790   0.755   2.401   1.072  0.3673 -0.7747  0.6622
 8100TIP3    H145791   0.832   2.347   1.091  1.0368 -0.1360 -0.1360
 8100TIP3    H245792   0.789   2.471   1.017 -0.9704 -1.0404 -0.5464
 8101TIP3   OH245793   1.105   6.040  16.269 -0.8493 -0.3121  0.2109
 8101TIP3    H145794   1.136   6.005  16.186  0.4755 -0.7972  0.8859
 8101TIP3    H245795   1.143   6.128  16.274  0.9196 -1.0880  1.2610
 8102TIP3   OH245796   5.354   5.452  13.676 -0.1264  0.3471  0.2094
 8102TIP3    H145797   5.439   5.464  13.719 -0.1335  0.0744  0.3053
 8102TIP3    H245798   5.334   5.537  13.638 -0.3774  0.7454  1.2173
 8103TIP3   OH245799   1.769   1.377   1.682  0.7641  0.3453 -0.2577
 8103TIP3    H145800   1.748   1.439   1.612  1.9256 -0.2533 -1.1846
 8103TIP3    H245801   1.857   1.403   1.711  1.0616 -0.5532 -0.3259
 8104TIP3   OH245802   5.119   2.227  16.474  0.1206  0.5350 -0.4818
 8104TIP3    H145803   5.168   2.158  16.430  0.0078 -0.2582  0.6194
 8104TIP3    H245804   5.077   2.275  16.402 -0.0020 -0.6846 -1.2560
 8105TIP3   OH245805   3.332   5.445  15.331  0.0840 -0.1155  0.4029
 8105TIP3    H145806   3.246   5.417  15.301 -0.2581  0.3873  0.8912
 8105TIP3    H245807   3.394   5.403  15.271 -0.5082 -0.3229 -0.0670
 8106TIP3   OH245808   1.942   5.212  12.984 -0.3578 -0.1416 -0.5821
 8106TIP3    H145809   1.889   5.132  12.980  1.0536 -1.1606  0.0691
 8106TIP3    H245810   1.985   5.208  13.070  0.0840  1.1066 -0.7218
 8107TIP3   OH245811   3.774   4.833   1.755 -0.7148 -0.2731 -0.4884
 8107TIP3    H145812   3.781   4.747   1.795 -1.6998  0.0537  0.4356
 8107TIP3    H245813   3.861   4.871   1.764 -0.7229 -0.5108  0.6617
 8108TIP3   OH245814   6.355   2.490  17.583  0.8485 -0.0538  0.3305
 8108TIP3    H145815   6.300   2.487  17.505  2.2084 -2.1747 -0.6610
 8108TIP3    H245816   6.425   2.552  17.561  0.4518  0.4378  0.4462
 8109TIP3   OH245817   6.697   2.098   6.548 -0.0103 -0.2342 -0.1150
 8109TIP3    H145818   6.677   2.024   6.605 -0.7965 -0.2805 -0.4384
 8109TIP3    H245819   6.613   2.122   6.509  0.2069  0.8794  0.0450
 8110TIP3   OH245820   0.865   4.287  16.008 -0.6578  0.6543  0.3710
 8110TIP3    H145821   0.883   4.205  16.053  0.1265  0.5290 -0.1594
 8110TIP3    H245822   0.950   4.333  16.007 -1.0296  1.3576  0.4447
 8111TIP3   OH245823   2.495   0.031   0.230  0.3451  0.1763 -0.2479
 8111TIP3    H145824   2.401   0.014   0.235  0.5610 -1.4255 -0.9230
 8111TIP3    H245825   2.534  -0.030   0.293  0.8795  1.7358  1.0054
 8112TIP3   OH245826   6.043   1.468   1.633 -0.5880  0.0772 -0.4130
 8112TIP3    H145827   6.104   1.516   1.577 -0.1077 -1.2892 -1.0870
 8112TIP3    H245828   6.014   1.394   1.580 -4.2764  1.5790 -0.8182
 8113TIP3   OH245829   2.783   6.149   0.469 -0.3321 -0.0973  0.3200
 8113TIP3    H145830   2.828   6.065   0.470 -0.1423  0.0050  0.4371
 8113TIP3    H245831   2.760   6.163   0.377  1.1702  0.5311  0.0111
 8114TIP3   OH245832   5.101   0.342  13.660 -0.2811 -0.3353  0.7808
 8114TIP3    H145833   5.089   0.396  13.582 -1.1900 -0.0435  1.1100
 8114TIP3    H245834   5.014   0.307  13.678  0.0812 -1.0245  1.2183
 8115TIP3   OH245835   1.269   5.656  13.488  0.5622 -0.0773 -0.4365
 8115TIP3    H145836   1.223   5.738  13.507  1.4863  0.4673 -0.4644
 8115TIP3    H245837   1.361   5.681  13.489  0.8285 -1.0314 -0.9154
 8116TIP3   OH245838   4.449   1.176   4.102 -0.8239 -0.5212  0.4292
 8116TIP3    H145839   4.519   1.111   4.093  1.2519  1.5548  0.3819
 8116TIP3    H245840   4.454   1.204   4.193 -2.2861 -1.0136  0.6806
 8117TIP3   OH245841   0.081   1.283   4.401 -0.5482 -1.0195 -0.8725
 8117TIP3    H145842   0.062   1.218   4.468  1.7569 -0.8104  0.0856
 8117TIP3    H245843   0.085   1.366   4.449 -0.8880 -0.5556 -1.6352
 8118TIP3   OH245844   3.215   1.590  16.549 -0.0877  0.2840  0.1665
 8118TIP3    H145845   3.150   1.556  16.610 -1.5245  1.1841 -0.7997
 8118TIP3    H245846   3.198   1.542  16.468  1.2553 -0.3103  0.2055
 8119TIP3   OH245847   5.956   0.688  17.162  0.6875 -0.0877  1.1525
 8119TIP3    H145848   5.925   0.612  17.112  0.2016  0.1468  1.0947
 8119TIP3    H245849   6.051   0.689  17.147  0.5654 -0.0989  0.3390
 8120TIP3   OH245850   6.636   6.478   0.657  0.2811 -0.1471 -0.7191
 8120TIP3    H145851   6.728   6.487   0.682  0.5205 -0.6878 -1.3718
 8120TIP3    H245852   6.610   6.565   0.627  0.1293  0.3976  0.8751
 8121TIP3   OH245853   2.605   2.935   3.908  1.0740  0.0892 -0.5689
 8121TIP3    H145854   2.574   2.897   3.990  0.8843  3.0589  0.8937
 8121TIP3    H245855   2.657   2.866   3.867 -1.3613 -2.5748  0.4699
 8122TIP3   OH245856   5.152   1.026   3.638  0.4058  0.3336 -0.1655
 8122TIP3    H145857   5.165   1.120   3.627  0.4060  0.2633 -0.7562
 8122TIP3    H245858   5.235   0.987   3.610  1.3927  0.2857  2.4855
 8123TIP3   OH245859   4.221   5.719   5.398  0.2283  0.0564  0.7667
 8123TIP3    H145860   4.311   5.751   5.404 -0.2380  2.0395 -1.1385
 8123TIP3    H245861   4.218   5.672   5.315 -0.7722  1.2929  0.0535
 8124TIP3   OH245862   5.412   4.998  15.845  0.5719 -0.0395  0.2474
 8124TIP3    H145863   5.419   4.927  15.908  0.6669  0.3064  0.6315
 8124TIP3    H245864   5.325   4.988  15.807  0.9307 -0.9147 -0.3768
 8125TIP3   OH245865   5.796   2.820  17.090  0.2352 -0.5798 -0.2675
 8125TIP3    H145866   5.784   2.740  17.040 -0.4056 -0.0089 -1.0479
 8125TIP3    H245867   5.709   2.860  17.095  0.6682  0.4494 -0.5527
 8126TIP3   OH245868   4.957   4.385  15.477  0.1170 -0.1789 -0.4306
 8126TIP3    H145869   4.895   4.313  15.491  1.0860 -1.0504 -0.5103
 8126TIP3    H245870   4.930   4.423  15.393  0.4207 -1.3418 -1.0797
 8127TIP3   OH245871   4.573   0.421   6.258 -0.7153 -0.1676 -0.5842
 8127TIP3    H145872   4.551   0.408   6.351  0.1198  0.0456 -0.3425
 8127TIP3    H245873   4.521   0.497   6.232  2.4626  2.8355  1.0552
 8128TIP3   OH245874   2.582   5.833  13.873 -0.5912  0.0466  0.2807
 8128TIP3    H145875   2.590   5.921  13.912  0.1325  0.2858 -0.3649
 8128TIP3    H245876   2.505   5.839  13.817 -0.6601  0.2120  0.3895
 8129TIP3   OH245877   1.196   4.962   2.555 -0.6885  0.1466  0.2280
 8129TIP3    H145878   1.164   4.872   2.550 -0.2259 -0.0760  1.1029
 8129TIP3    H245879   1.117   5.016   2.558 -0.9859 -0.1271 -1.5283
 8130TIP3   OH245880   4.342   2.090  13.859  0.0195 -0.2668 -0.2947
 8130TIP3    H145881   4.352   2.012  13.804 -0.3603 -1.3512  1.1091
 8130TIP3    H245882   4.392   2.069  13.938 -1.3247  0.2716  0.7275
 8131TIP3   OH245883   0.777   0.002   0.726  0.9097  0.4127 -0.5286
 8131TIP3    H145884   0.772   0.093   0.757  2.4712  0.4650 -0.3654
 8131TIP3    H245885   0.703  -0.006   0.666  0.4825  1.6539 -0.2116
 8132TIP3   OH245886   2.594   0.635   5.818  0.1610  0.2150 -0.2488
 8132TIP3    H145887   2.614   0.548   5.782  0.2623 -0.3313  1.0646
 8132TIP3    H245888   2.642   0.638   5.901 -0.9602  0.9689  0.4000
 8133TIP3   OH245889   0.282   5.908   1.055 -0.8771 -0.1435 -0.1108
 8133TIP3    H145890   0.295   5.990   1.102 -0.1651 -0.4548  0.2535
 8133TIP3    H245891   0.200   5.921   1.006 -0.7645  0.7828 -0.0768
 8134TIP3   OH245892   2.661   0.293   0.294 -0.0323 -0.4879 -0.4521
 8134TIP3    H145893   2.708   0.291   0.211 -0.1351 -1.1204 -0.5039
 8134TIP3    H245894   2.600   0.220   0.289 -2.1460  1.2351 -1.0023
 8135TIP3   OH245895   2.100   3.809   2.302 -0.5430 -0.0699 -0.2532
 8135TIP3    H145896   2.152   3.888   2.287  0.4250 -0.5031  0.7245
 8135TIP3    H245897   2.151   3.738   2.262 -0.2036 -0.5359  0.9387
 8136TIP3   OH245898   1.480   2.409  16.741  0.5246 -0.2399  0.0465
 8136TIP3    H145899   1.557   2.462  16.723 -0.4405  0.8780 -0.9163
 8136TIP3    H245900   1.471   2.353  16.664 -0.9169  1.2651 -0.9476
 8137TIP3   OH245901   4.891   1.134   1.371  0.6471  1.0146 -0.4077
 8137TIP3    H145902   4.909   1.064   1.433 -0.6684 -1.0707 -2.2226
 8137TIP3    H245903   4.858   1.206   1.424  0.5422 -0.3139  1.4028
 8138TIP3   OH245904   0.797   2.138  14.626  0.2801  0.0195 -0.1268
 8138TIP3    H145905   0.751   2.193  14.563  0.2899 -0.9458 -1.0066
 8138TIP3    H245906   0.736   2.128  14.699  0.6979  2.0547  0.5526
 8139TIP3   OH245907   5.181   3.288   4.454  0.4548 -0.5692  0.5591
 8139TIP3    H145908   5.144   3.282   4.366  0.7189 -1.4533  0.4989
 8139TIP3    H245909   5.169   3.379   4.479  0.6437 -0.2399 -0.5085
 8140TIP3   OH245910   2.377   1.880  12.182 -0.1165 -0.3133 -0.6387
 8140TIP3    H145911   2.415   1.798  12.151 -1.7687 -0.2259 -3.1271
 8140TIP3    H245912   2.416   1.947  12.126  1.1555  0.6706  1.3118
 8141TIP3   OH245913   2.128   3.377   3.612 -0.2568  0.5051 -0.5611
 8141TIP3    H145914   2.082   3.353   3.531 -0.5642  1.4759 -0.6872
 8141TIP3    H245915   2.058   3.391   3.676  0.0305 -2.4224  0.5607
 8142TIP3   OH245916   2.294   3.013  15.860 -0.0519 -0.0026  0.1194
 8142TIP3    H145917   2.365   3.065  15.897  0.2219 -0.2283 -0.0894
 8142TIP3    H245918   2.290   3.040  15.768 -0.4942  0.2953  0.2201
 8143TIP3   OH245919   6.229   0.513  15.149 -0.6183 -0.1592  0.1452
 8143TIP3    H145920   6.168   0.576  15.187 -0.2816  1.0456 -1.2338
 8143TIP3    H245921   6.175   0.455  15.096 -0.7862 -0.2895  0.4559
 8144TIP3   OH245922   4.570   5.406  15.166  0.7668 -0.2097  0.2426
 8144TIP3    H145923   4.587   5.483  15.112  0.1817  1.0432  1.7746
 8144TIP3    H245924   4.657   5.377  15.193  1.1595 -1.4704 -2.0809
 8145TIP3   OH245925   2.094   1.465   2.682  0.7085 -0.0469  0.2801
 8145TIP3    H145926   2.076   1.482   2.774 -1.3063  1.1453 -0.2829
 8145TIP3    H245927   2.180   1.505   2.667 -0.0148  1.9291  1.0981
 8146TIP3   OH245928   2.781   2.681  13.654  0.5562 -0.0982  0.8509
 8146TIP3    H145929   2.815   2.755  13.605 -0.0606 -0.6588 -0.4827
 8146TIP3    H245930   2.813   2.694  13.743  2.5080  0.4676  0.1207
 8147TIP3   OH245931   0.366   2.120   5.966  0.0293 -0.4599  0.0710
 8147TIP3    H145932   0.405   2.187   6.022 -3.4188  1.3011  0.6551
 8147TIP3    H245933   0.336   2.168   5.889 -0.5076 -1.7687 -0.5654
 8148TIP3   OH245934   5.460   4.666   0.908 -0.7829  0.0319  0.3588
 8148TIP3    H145935   5.495   4.579   0.888  1.4239  1.0667 -0.6182
 8148TIP3    H245936   5.394   4.681   0.840 -0.0113 -0.2384 -0.4678
 8149TIP3   OH245937   1.394   2.526  15.173 -0.1386  0.2695 -0.0871
 8149TIP3    H145938   1.354   2.569  15.248  1.7412  2.2727 -0.1404
 8149TIP3    H245939   1.434   2.597  15.122  0.8793 -1.2808 -1.6022
 8150TIP3   OH245940   3.899   1.076  12.277 -0.0637  0.3205 -0.0571
 8150TIP3    H145941   3.819   1.127  12.292 -0.9756 -1.1302  0.2613
 8150TIP3    H245942   3.955   1.097  12.352  0.4041  2.2872 -0.9038
 8151TIP3   OH245943   3.388   2.331  12.616 -0.0013  0.0672  0.4001
 8151TIP3    H145944   3.326   2.264  12.587  0.2858 -0.0716  0.0906
 8151TIP3    H245945   3.436   2.355  12.536  1.2045 -0.7337  0.8548
 8152TIP3   OH245946   1.518   6.682  16.025 -0.1709  0.3787 -0.3810
 8152TIP3    H145947   1.550   6.761  16.068  0.6477 -0.3359  0.3782
 8152TIP3    H245948   1.435   6.664  16.069  1.2489 -1.0621  1.9568
 8153TIP3   OH245949   4.840   6.118  12.379  0.5574  0.4168 -0.2367
 8153TIP3    H145950   4.852   6.045  12.441  1.1923 -1.8090 -2.7792
 8153TIP3    H245951   4.923   6.165  12.382  0.6618  0.2076  0.4193
 8154TIP3   OH245952   3.367   3.749   2.336  0.7316  0.4277  0.1744
 8154TIP3    H145953   3.286   3.771   2.290  0.3029  0.1766  0.7961
 8154TIP3    H245954   3.387   3.660   2.306  0.4634  0.2714  0.4515
 8155TIP3   OH245955   4.408   4.364   3.513  0.2083  0.2431  0.0509
 8155TIP3    H145956   4.327   4.382   3.560  0.5708 -1.9030  1.6256
 8155TIP3    H245957   4.464   4.319   3.576  1.5374 -0.8950 -1.8116
 8156TIP3   OH245958   5.619   1.553   4.468 -0.1779 -0.0047 -0.2925
 8156TIP3    H145959   5.637   1.480   4.527 -1.0660 -0.0513 -0.0646
 8156TIP3    H245960   5.525   1.549   4.454 -0.1664  0.8308 -0.6384
 8157TIP3   OH245961   4.279   1.109   1.133  0.5887 -0.2781 -0.3462
 8157TIP3    H145962   4.266   1.091   1.226 -0.0322  1.6646  0.0080
 8157TIP3    H245963   4.204   1.068   1.090  0.7442 -0.9725  0.0395
 8158TIP3   OH245964   3.750   5.337   1.172 -0.1009  0.0779  0.3031
 8158TIP3    H145965   3.783   5.283   1.101  0.6887  1.6717 -0.5821
 8158TIP3    H245966   3.665   5.299   1.194 -0.1019 -0.7688 -1.0930
 8159TIP3   OH245967   0.299   3.944   0.252 -0.8372  0.1746 -0.3217
 8159TIP3    H145968   0.376   4.001   0.246 -1.7912  1.3117 -3.7976
 8159TIP3    H245969   0.235   3.995   0.302 -0.5260  0.7047 -0.4576
 8160TIP3   OH245970   2.123   4.263   2.794 -0.0555 -0.2245  0.0373
 8160TIP3    H145971   2.128   4.348   2.837 -0.8195 -1.2290  2.2405
 8160TIP3    H245972   2.033   4.234   2.807  0.1379 -1.3046 -0.8307
 8161TIP3   OH245973   3.744   4.342  13.836 -0.0771 -0.0331 -0.2341
 8161TIP3    H145974   3.706   4.430  13.834  1.3619  0.6163 -2.0558
 8161TIP3    H245975   3.669   4.283  13.831 -1.0714  1.0725  1.0517
 8162TIP3   OH245976   0.615   4.888   4.306 -0.4139 -0.2634 -0.0809
 8162TIP3    H145977   0.709   4.893   4.291 -0.3958  0.8127  0.3188
 8162TIP3    H245978   0.589   4.804   4.268  0.4896  0.0026 -1.3478
 8163TIP3   OH245979   2.576   3.775  13.731 -0.7328 -0.3333 -0.1687
 8163TIP3    H145980   2.577   3.787  13.636 -1.5988 -0.5640 -0.2133
 8163TIP3    H245981   2.654   3.821  13.761  0.6898 -1.9705 -1.1841
 8164TIP3   OH245982   4.117   0.034  13.951  0.2847  0.5561 -0.6441
 8164TIP3    H145983   4.087   0.027  13.860  0.5269 -1.9293 -0.6226
 8164TIP3    H245984   4.077  -0.042  13.994  0.8356  1.2361  1.1294
 8165TIP3   OH245985   4.563   0.965   1.529 -0.6193 -0.5471  0.2773
 8165TIP3    H145986   4.613   0.910   1.469  1.3789  0.2318  1.1566
 8165TIP3    H245987   4.525   0.904   1.592  0.4219 -1.0651  0.4262
 8166TIP3   OH245988   1.699   2.633   4.398  0.2025  0.5958  0.4475
 8166TIP3    H145989   1.736   2.558   4.352  0.9107  1.8244 -1.0488
 8166TIP3    H245990   1.623   2.659   4.346 -1.5581 -0.5480  2.3062
 8167TIP3   OH245991   1.030   6.111   3.924 -0.1654  0.3508 -0.0933
 8167TIP3    H145992   1.018   6.145   3.836  1.7370  0.6248 -0.2714
 8167TIP3    H245993   1.105   6.051   3.918 -1.9916 -2.2301  0.6768
 8168TIP3   OH245994   4.961   0.697  11.680  0.1499  0.4175 -0.1509
 8168TIP3    H145995   4.882   0.748  11.665  0.6987  1.5244  0.6102
 8168TIP3    H245996   4.993   0.725  11.766  1.1077 -0.3498 -0.2321
 8169TIP3   OH245997   0.003   1.798  13.165  0.0996 -0.1586 -0.2336
 8169TIP3    H145998  -0.079   1.827  13.204  1.6347  1.0095  2.4295
 8169TIP3    H245999   0.049   1.880  13.144  1.9014 -0.6649  1.4615
 8170TIP3   OH246000   1.738   4.528   0.253  0.5938 -0.3216  0.7481
 8170TIP3    H146001   1.812   4.503   0.198  1.1445  2.0801  0.2574
 8170TIP3    H246002   1.667   4.545   0.191  0.4174 -0.1253  1.0024
 8171TIP3   OH246003   3.324   4.458  16.741  0.6062  0.5240 -0.4546
 8171TIP3    H146004   3.357   4.527  16.685 -1.9652  2.2542 -0.0356
 8171TIP3    H246005   3.399   4.433  16.795  1.6445  3.1133 -0.5284
 8172TIP3   OH246006   2.655   4.239   2.497 -0.5957 -0.2611  0.2137
 8172TIP3    H146007   2.662   4.170   2.431 -0.9795  0.3881 -0.5248
 8172TIP3    H246008   2.745   4.269   2.510 -0.3929 -1.0768  0.7398
 8173TIP3   OH246009   0.976   2.795   5.260 -0.5852  0.7323 -0.3385
 8173TIP3    H146010   1.045   2.808   5.195 -2.6718  4.4883 -2.1274
 8173TIP3    H246011   0.985   2.869   5.320 -0.1082 -1.4507  2.5371
 8174TIP3   OH246012   1.497   5.255  15.600  0.0158 -0.0086  0.4344
 8174TIP3    H146013   1.547   5.202  15.662 -0.0395  0.0299  0.5128
 8174TIP3    H246014   1.420   5.203  15.579 -0.1290  0.1176  0.6514
 8175TIP3   OH246015   5.095   1.899   0.038  0.6642 -0.3960 -0.5207
 8175TIP3    H146016   5.026   1.911  -0.027  2.7849  2.5122 -2.5260
 8175TIP3    H246017   5.050   1.904   0.122 -1.5679  2.3113 -1.7130
 8176TIP3   OH246018   3.821   3.397   2.647 -0.4952 -0.2681  0.0994
 8176TIP3    H146019   3.765   3.459   2.693 -1.3556 -0.8010 -0.2104
 8176TIP3    H246020   3.818   3.424   2.556  0.4777  0.2314  0.1970
 8177TIP3   OH246021   0.891   6.712   3.023 -0.4601 -0.3184  0.2640
 8177TIP3    H146022   0.837   6.655   2.970 -2.0281  1.2622  0.0629
 8177TIP3    H246023   0.895   6.794   2.973 -0.0031  0.4238  1.4742
 8178TIP3   OH246024   1.150   1.761   5.423  0.1789 -0.1896  0.2833
 8178TIP3    H146025   1.142   1.846   5.466  0.2469 -1.1530  2.3250
 8178TIP3    H246026   1.219   1.716   5.471  0.4150 -1.2674 -1.0049
 8179TIP3   OH246027   1.347   6.419   1.073 -1.1677 -0.4810  0.9589
 8179TIP3    H146028   1.372   6.351   1.010 -1.4372  1.5446 -1.5243
 8179TIP3    H246029   1.430   6.450   1.108 -0.9743 -1.2689  1.2306
 8180TIP3   OH246030   6.299   4.788  16.246  0.2886 -0.5490  0.2991
 8180TIP3    H146031   6.294   4.801  16.151 -0.7839 -0.4484  0.3599
 8180TIP3    H246032   6.212   4.812  16.279  1.4307  2.2055  1.6617
 8181TIP3   OH246033   2.339   6.084   3.721 -0.5962  0.4178  0.5117
 8181TIP3    H146034   2.246   6.065   3.706 -0.1719 -1.7655  0.2582
 8181TIP3    H246035   2.346   6.179   3.711 -2.7628  0.6177  0.3758
 8182TIP3   OH246036   6.349   2.035   1.132  0.1426  0.6593 -0.1265
 8182TIP3    H146037   6.417   1.986   1.085  0.0675  0.4801 -0.0513
 8182TIP3    H246038   6.390   2.118   1.156  0.1715  0.7687 -0.5426
 8183TIP3   OH246039   5.874   5.035  14.192  0.5841 -0.0715 -0.0437
 8183TIP3    H146040   5.780   5.018  14.179  0.3070  2.1577 -1.5221
 8183TIP3    H246041   5.913   4.948  14.198 -1.5890 -1.0779  0.9013
 8184TIP3   OH246042   0.929   1.576  13.100 -0.6190 -0.1562 -0.2274
 8184TIP3    H146043   1.023   1.592  13.097 -0.8131  1.1879 -0.0449
 8184TIP3    H246044   0.893   1.630  13.030 -1.4111  0.7650  0.8439
 8185TIP3   OH246045   5.256   4.988  11.587 -0.0261  0.1808 -0.0784
 8185TIP3    H146046   5.305   5.037  11.522 -0.0273 -0.2711 -0.4255
 8185TIP3    H246047   5.323   4.941  11.637 -0.1324 -1.7421 -1.6002
 8186TIP3   OH246048   1.191   5.843   4.621  0.2309  0.2532  0.0908
 8186TIP3    H146049   1.135   5.791   4.564  0.9961  0.2151 -0.6523
 8186TIP3    H246050   1.171   5.934   4.599  0.6334  0.2374 -0.3645
 8187TIP3   OH246051   2.429   2.664  17.137 -0.2157  0.2244  0.2308
 8187TIP3    H146052   2.408   2.640  17.227 -1.9345 -0.8160 -0.3965
 8187TIP3    H246053   2.386   2.748  17.124  0.3070  0.5330  0.4627
 8188TIP3   OH246054   5.341   5.828   1.178  0.0266 -0.2453  0.3481
 8188TIP3    H146055   5.303   5.901   1.227  3.1232  2.3380 -0.6793
 8188TIP3    H246056   5.290   5.823   1.098  0.4017  1.6914 -0.0765
 8189TIP3   OH246057   3.115   6.122   4.547 -0.0856  0.2940 -0.9947
 8189TIP3    H146058   3.043   6.179   4.521 -0.7137  0.7905  1.6136
 8189TIP3    H246059   3.193   6.163   4.508 -0.5880  2.6496  0.3094
 8190TIP3   OH246060   1.809   5.666  16.316 -0.1312  0.4211 -0.4910
 8190TIP3    H146061   1.732   5.698  16.270  0.7563  3.2756 -0.2296
 8190TIP3    H246062   1.871   5.740  16.313  1.3720 -0.5915  2.0306
 8191TIP3   OH246063   1.590   5.433   0.082 -0.4817 -0.0632  0.6794
 8191TIP3    H146064   1.532   5.368   0.042  0.2878 -0.7260  0.6080
 8191TIP3    H246065   1.538   5.513   0.084 -0.8811 -0.2574 -0.7594
 8192TIP3   OH246066   2.658   1.771   0.591 -0.1768  0.3069 -1.0071
 8192TIP3    H146067   2.753   1.773   0.609 -0.4345 -1.4011  0.8001
 8192TIP3    H246068   2.630   1.684   0.618 -2.6502  1.5015  0.5764
 8193TIP3   OH246069   2.418   1.997   3.584  0.8900  0.5200 -0.3905
 8193TIP3    H146070   2.327   2.010   3.610  0.2277 -0.9839 -1.8258
 8193TIP3    H246071   2.449   1.927   3.641  0.9002  0.4724 -0.4546
 8194TIP3   OH246072   0.299   0.459   3.098  0.3508  0.1288 -0.2909
 8194TIP3    H146073   0.293   0.554   3.092 -0.5946  0.0352 -1.1336
 8194TIP3    H246074   0.272   0.428   3.011  0.1463 -0.9258  0.1349
 8195TIP3   OH246075   6.636   3.231  15.291 -0.3906 -0.4337 -0.2390
 8195TIP3    H146076   6.603   3.252  15.204 -0.2286  0.4361 -0.1007
 8195TIP3    H246077   6.571   3.268  15.351  0.5886  0.9207  0.0282
 8196TIP3   OH246078   2.730   2.835  13.042  0.4720  0.1176  0.2642
 8196TIP3    H146079   2.747   2.864  12.952  0.5826  1.3507  0.6580
 8196TIP3    H246080   2.693   2.747  13.033 -2.4008  1.3335 -1.1959
 8197TIP3   OH246081   3.095   3.361   6.493  0.0240  0.2007 -0.0414
 8197TIP3    H146082   3.013   3.315   6.511  0.5252 -0.2633  1.1614
 8197TIP3    H246083   3.163   3.297   6.514  0.7026  0.6774 -0.7472
 8198TIP3   OH246084   1.406   3.950   0.112 -0.1235 -0.0761  0.0077
 8198TIP3    H146085   1.463   3.986   0.180 -1.7185  2.2437  0.2364
 8198TIP3    H246086   1.318   3.953   0.149 -0.7008 -1.3419 -1.1770
 8199TIP3   OH246087   5.874   6.473   5.187 -0.4433 -0.2998  0.1748
 8199TIP3    H146088   5.793   6.455   5.235 -1.3983 -0.0549 -1.2829
 8199TIP3    H246089   5.851   6.544   5.127  1.0322  0.1829  0.1474
 8200TIP3   OH246090   5.079   6.508   4.521  0.1636  0.3036 -0.0404
 8200TIP3    H146091   5.114   6.529   4.435  0.0410 -2.4452 -0.8369
 8200TIP3    H246092   4.990   6.478   4.504  0.8106 -2.3034  0.6779
 8201TIP3   OH246093   3.390   1.337  13.326 -0.2938  0.4563 -0.0411
 8201TIP3    H146094   3.331   1.343  13.251 -0.2211 -0.1214 -0.1580
 8201TIP3    H246095   3.334   1.346  13.403 -0.1566  2.7222 -0.1555
 8202TIP3   OH246096   6.416   2.602   5.154 -0.4853  0.0929  0.3665
 8202TIP3    H146097   6.484   2.642   5.100  1.0707 -0.5048  1.8095
 8202TIP3    H246098   6.356   2.562   5.091 -1.5316  3.5919 -1.1396
 8203TIP3   OH246099   0.879   4.800   2.105 -0.5444  0.3205  1.1293
 8203TIP3    H146100   0.840   4.782   2.019 -0.5718  0.0614  1.1954
 8203TIP3    H246101   0.970   4.770   2.097  0.1061  2.3249  0.4782
 8204TIP3   OH246102   0.278   6.721  13.612  0.0864 -0.2879  0.0392
 8204TIP3    H146103   0.345   6.779  13.648 -0.2941 -0.0542  0.3847
 8204TIP3    H246104   0.315   6.690  13.530  0.3391  0.3682 -0.1055
 8205TIP3   OH246105   2.272   4.756   5.681  0.3830  0.1193  0.2861
 8205TIP3    H146106   2.243   4.731   5.768 -0.8414 -2.1512 -0.6708
 8205TIP3    H246107   2.306   4.674   5.643 -0.5222  0.6649 -1.8583
 8206TIP3   OH246108   4.442   6.490  15.438  0.1837  0.2647  0.0669
 8206TIP3    H146109   4.351   6.487  15.468  0.5420  1.4069  1.3741
 8206TIP3    H246110   4.436   6.525  15.349 -0.6580  0.0878  0.0378
 8207TIP3   OH246111   2.858   0.201  14.074  0.1424  0.0871 -0.6013
 8207TIP3    H146112   2.928   0.228  14.016  0.3903  0.6100 -0.0608
 8207TIP3    H246113   2.866   0.105  14.079  0.0803  0.0328 -1.4613
 8208TIP3   OH246114   0.294   3.174   4.656 -0.7780  0.4207  0.1059
 8208TIP3    H146115   0.245   3.231   4.596 -2.2777 -0.6359  0.2788
 8208TIP3    H246116   0.369   3.145   4.604 -1.4269  0.4475 -0.8764
 8209TIP3   OH246117   4.412   2.566   2.876 -0.4818 -0.0748  0.0275
 8209TIP3    H146118   4.483   2.503   2.861 -1.6228 -0.7389 -3.6535
 8209TIP3    H246119   4.332   2.515   2.864 -1.5417  1.2892  1.0158
 8210TIP3   OH246120   4.128   2.661  16.594 -0.1389 -0.0335  0.1603
 8210TIP3    H146121   4.070   2.591  16.623  1.5094 -1.2165  0.7577
 8210TIP3    H246122   4.137   2.647  16.499  1.9571 -2.1273  0.5845
 8211TIP3   OH246123   4.211   0.356  12.646 -0.3053  0.3685 -0.2075
 8211TIP3    H146124   4.141   0.390  12.592  0.1092  1.9311  0.1729
 8211TIP3    H246125   4.289   0.404  12.617  0.7132 -1.5801 -0.8746
 8212TIP3   OH246126   3.129   0.017  11.737 -0.0453  0.2530  1.1510
 8212TIP3    H146127   3.061   0.017  11.670  0.1662 -0.3695  0.9298
 8212TIP3    H246128   3.191   0.084  11.708 -0.2765  0.4287  1.0594
 8213TIP3   OH246129   4.398   4.094  13.519  0.9183  0.6605  0.0377
 8213TIP3    H146130   4.369   4.164  13.461  2.0426  1.7965  0.7825
 8213TIP3    H246131   4.443   4.139  13.591  0.3813 -0.7447  1.3228
 8214TIP3   OH246132   2.115   3.110   3.088  0.1256  0.0844 -0.1581
 8214TIP3    H146133   2.135   3.102   2.994 -0.0556 -0.4973 -0.1556
 8214TIP3    H246134   2.154   3.032   3.127  0.9869  0.7801  0.3930
 8215TIP3   OH246135   1.528   0.427  17.476 -0.3433 -0.0541  0.7621
 8215TIP3    H146136   1.517   0.489  17.549 -0.5639  0.5536  0.2198
 8215TIP3    H246137   1.584   0.358  17.512  1.7652  1.5293  0.7694
 8216TIP3   OH246138   6.637   6.684  15.598  0.1083  0.2401  0.0210
 8216TIP3    H146139   6.648   6.747  15.527 -0.3268  0.3449  0.0444
 8216TIP3    H246140   6.700   6.711  15.665 -0.6183  1.1233  0.3642
 8217TIP3   OH246141   4.987   3.760   6.282 -0.0719  0.1552  0.5891
 8217TIP3    H146142   4.927   3.695   6.321  0.3679  1.1246  3.1006
 8217TIP3    H246143   5.066   3.754   6.335  1.3563  0.2764 -1.4358
 8218TIP3   OH246144   3.563   5.736  14.512  0.0113 -0.2484 -0.0541
 8218TIP3    H146145   3.581   5.825  14.482 -0.6890  0.5699  1.7890
 8218TIP3    H246146   3.468   5.732  14.523 -0.2633 -2.0229 -2.3058
 8219TIP3   OH246147   4.967   2.200  14.548  0.5807  0.1373 -0.3414
 8219TIP3    H146148   4.888   2.226  14.596  1.2592 -0.6403  1.2535
 8219TIP3    H246149   4.935   2.177  14.461 -1.1368 -1.1243  0.5522
 8220TIP3   OH246150   2.146   2.463  10.878 -0.1974 -0.0520  0.5714
 8220TIP3    H146151   2.081   2.464  10.948 -1.2725 -1.5734 -0.3596
 8220TIP3    H246152   2.099   2.494  10.801  0.5011 -0.0470  0.1376
 8221TIP3   OH246153   5.613   6.203  13.814 -0.1095  0.0870 -0.0533
 8221TIP3    H146154   5.540   6.155  13.854  0.3085 -1.0533 -0.6267
 8221TIP3    H246155   5.672   6.135  13.782  1.2839  0.9912  0.5137
 8222TIP3   OH246156   5.436   4.824   1.129  0.0239 -0.2904  0.0030
 8222TIP3    H146157   5.445   4.758   1.060  1.8602 -1.1859  0.9947
 8222TIP3    H246158   5.524   4.860   1.138 -0.5552  0.9676  0.7674
 8223TIP3   OH246159   5.706   5.595   1.017  0.4153  0.2921 -0.0419
 8223TIP3    H146160   5.729   5.503   1.002  1.7749  0.9640 -2.6928
 8223TIP3    H246161   5.612   5.600   0.996  0.3132 -0.4939  0.2058
 8224TIP3   OH246162   1.645   4.242  11.946  0.6251 -0.0347  0.1193
 8224TIP3    H146163   1.616   4.158  11.909 -0.5131  0.5454 -0.3826
 8224TIP3    H246164   1.681   4.289  11.871 -0.9343  0.8241 -0.1457
 8225TIP3   OH246165   2.803   5.740   5.234 -0.1856  0.2694 -0.0441
 8225TIP3    H146166   2.806   5.833   5.257 -0.6474 -0.0580  1.4805
 8225TIP3    H246167   2.725   5.732   5.179 -0.8720  0.5979  0.8512
 8226TIP3   OH246168   5.310   1.232   6.331  0.3064 -0.2528  0.5492
 8226TIP3    H146169   5.398   1.206   6.356  1.7892  0.9112 -2.7696
 8226TIP3    H246170   5.312   1.328   6.332 -0.0522 -0.1581 -1.8953
 8227TIP3   OH246171   5.222   0.903   6.106 -0.5662  0.2651  0.2735
 8227TIP3    H146172   5.285   0.936   6.170 -1.2592 -0.0010  1.1131
 8227TIP3    H246173   5.152   0.865   6.159 -0.7292 -0.7655 -0.6526
 8228TIP3   OH246174   4.491   6.235  15.388 -0.2522 -0.0750 -0.7318
 8228TIP3    H146175   4.453   6.308  15.437 -1.3146 -0.8264 -0.4100
 8228TIP3    H246176   4.510   6.272  15.302 -0.4714  0.6656 -0.4692
 8229TIP3   OH246177   0.718   4.409   5.559 -0.4408  0.8986 -0.0317
 8229TIP3    H146178   0.796   4.359   5.582 -0.6716 -0.1544 -1.4343
 8229TIP3    H246179   0.749   4.498   5.546  0.3797  0.6505  0.1813
 8230TIP3   OH246180   2.742   0.487  10.677  0.6916  0.5253  0.1956
 8230TIP3    H146181   2.772   0.569  10.716 -0.7966  0.9732  0.4571
 8230TIP3    H246182   2.696   0.513  10.597 -0.6809  0.0673  0.7997
 8231TIP3   OH246183   0.163   3.793  14.850  0.1178 -0.0553  0.3091
 8231TIP3    H146184   0.207   3.738  14.914 -0.3178  0.1482  0.7957
 8231TIP3    H246185   0.215   3.874  14.848 -0.8978  0.6801  1.8057
 8232TIP3   OH246186   2.219   4.214  17.443  0.3276  0.2654 -0.0016
 8232TIP3    H146187   2.174   4.210  17.527  1.0264 -0.1647  0.3653
 8232TIP3    H246188   2.149   4.220  17.378 -0.2017  2.0201  0.6690
 8233TIP3   OH246189   4.298   0.219   2.608  0.2196 -0.8776 -0.1573
 8233TIP3    H146190   4.293   0.169   2.526  0.4381 -0.2130 -0.5893
 8233TIP3    H246191   4.338   0.159   2.670  0.2875 -1.3083 -0.6076
 8234TIP3   OH246192   3.192   4.463  14.326 -0.1682 -0.5363 -0.0604
 8234TIP3    H146193   3.243   4.499  14.253 -0.6130 -1.6106 -0.9200
 8234TIP3    H246194   3.235   4.498  14.404 -0.0432  1.1413 -0.8248
 8235TIP3   OH246195   0.935   4.847  14.772 -0.3245  0.0206  0.5444
 8235TIP3    H146196   1.013   4.889  14.810 -1.2285  0.5379  1.9090
 8235TIP3    H246197   0.894   4.917  14.720 -0.1077 -0.1407  0.1473
 8236TIP3   OH246198   3.958   6.678  16.247  0.7706 -0.0603 -0.4543
 8236TIP3    H146199   3.881   6.731  16.270 -1.3463 -2.8572 -0.4971
 8236TIP3    H246200   3.971   6.621  16.322  1.6078 -0.9173 -1.2224
 8237TIP3   OH246201   2.435   2.244  13.146  0.4604  0.2743  0.7464
 8237TIP3    H146202   2.410   2.202  13.229 -0.5133 -1.9704 -0.5878
 8237TIP3    H246203   2.370   2.313  13.134 -0.3934 -0.4296  1.1233
 8238TIP3   OH246204   4.918   2.575   1.308  0.2096  0.4118 -0.2375
 8238TIP3    H146205   4.990   2.606   1.362 -0.1091  0.9162 -0.0936
 8238TIP3    H246206   4.913   2.637   1.236  1.0473 -0.6165 -1.2238
 8239TIP3   OH246207   0.456   6.189  12.910 -0.3945 -0.1432  0.1633
 8239TIP3    H146208   0.495   6.208  12.824  1.3400 -1.6183  0.5540
 8239TIP3    H246209   0.451   6.093  12.913 -1.0651 -0.0914  1.4554
 8240TIP3   OH246210   2.963   2.076  16.886 -0.0768 -0.2807 -0.4144
 8240TIP3    H146211   2.927   2.133  16.954 -1.3000 -1.5199  0.0309
 8240TIP3    H246212   3.047   2.115  16.864 -1.2001  2.1349 -0.7163
 8241TIP3   OH246213   1.370   1.584   3.467  0.5101 -0.0664 -0.2842
 8241TIP3    H146214   1.282   1.586   3.428 -0.0458 -1.0336  0.8609
 8241TIP3    H246215   1.382   1.493   3.494  2.2995 -0.1934 -1.3346
 8242TIP3   OH246216   3.549   4.662   1.055 -0.4652 -0.1133 -0.2176
 8242TIP3    H146217   3.525   4.738   1.002 -1.5384  0.7002  1.3666
 8242TIP3    H246218   3.598   4.698   1.129 -2.4830 -0.6872  1.4922
 8243TIP3   OH246219   4.827   3.175  13.791 -0.3374  0.1116 -0.7591
 8243TIP3    H146220   4.831   3.193  13.885 -1.1028  1.3774 -0.9478
 8243TIP3    H246221   4.854   3.083  13.784 -1.9199 -0.5480  0.8772
 8244TIP3   OH246222   1.254   2.647   0.939  0.6513 -0.7257  0.5718
 8244TIP3    H146223   1.176   2.696   0.914  0.7609 -1.1180 -0.6398
 8244TIP3    H246224   1.240   2.623   1.030 -0.0444  0.3223  0.7490
 8245TIP3   OH246225   2.415   4.440   1.279 -0.4535 -0.0255  0.0702
 8245TIP3    H146226   2.472   4.432   1.356 -0.4045  0.5812  0.1063
 8245TIP3    H246227   2.327   4.422   1.312 -0.8211  2.7804  0.8833
 8246TIP3   OH246228   6.628   0.505   4.520  0.0196  0.2227  0.3752
 8246TIP3    H146229   6.610   0.449   4.445 -0.0267 -1.7101  1.7485
 8246TIP3    H246230   6.716   0.481   4.547  1.5418  3.4977 -1.1402
 8247TIP3   OH246231   5.990   0.858   4.340  0.0909 -0.0149 -0.1918
 8247TIP3    H146232   5.925   0.801   4.381  0.1433 -0.7094 -1.0311
 8247TIP3    H246233   6.016   0.919   4.409 -1.0663 -0.0519  0.2993
 8248TIP3   OH246234   3.216   6.671  11.417 -0.3669  0.1444  0.1080
 8248TIP3    H146235   3.177   6.745  11.371  0.4678  0.6424  0.1823
 8248TIP3    H246236   3.219   6.601  11.351 -1.6736 -0.0214  0.1979
 8249TIP3   OH246237   0.451   1.851   5.908  0.2814  0.0362 -0.2400
 8249TIP3    H146238   0.427   1.940   5.935  0.3356  0.0539 -0.2510
 8249TIP3    H246239   0.537   1.836   5.947  1.9191  1.2931 -3.0505
 8250TIP3   OH246240   3.086   0.032  14.566  0.6592  0.1066 -0.5678
 8250TIP3    H146241   3.137   0.028  14.485 -0.2164  0.2944 -1.1468
 8250TIP3    H246242   3.001   0.067  14.539  0.9818  2.0254  0.7504
 8251TIP3   OH246243   5.258   2.623   2.978  0.1535 -0.0902  0.1511
 8251TIP3    H146244   5.312   2.576   2.914  1.4026  0.3099  0.8769
 8251TIP3    H246245   5.257   2.713   2.948 -1.4411 -0.3607 -0.7095
 8252TIP3   OH246246   0.410   2.067  14.505 -0.5411 -0.6661 -0.2889
 8252TIP3    H146247   0.390   2.082  14.598 -1.9055 -2.1509 -0.2934
 8252TIP3    H246248   0.473   1.995  14.505  0.3993  0.1273 -0.5078
 8253TIP3   OH246249   6.211   1.405  16.157 -0.2575 -0.3542  0.3329
 8253TIP3    H146250   6.283   1.460  16.190 -0.4148  0.0434  0.0155
 8253TIP3    H246251   6.139   1.466  16.141 -0.4875 -0.6758  0.1209
 8254TIP3   OH246252   0.437   3.816   1.822  0.1056 -0.4938  0.5638
 8254TIP3    H146253   0.528   3.845   1.830  0.6662 -1.5551 -1.4661
 8254TIP3    H246254   0.386   3.896   1.835  1.4270  0.5841 -0.5192
 8255TIP3   OH246255   2.510   5.148  12.316  0.2325 -0.3706  0.5172
 8255TIP3    H146256   2.542   5.101  12.392 -1.0900 -2.0339  0.1152
 8255TIP3    H246257   2.492   5.079  12.251  0.2318  0.8880 -0.8828
 8256TIP3   OH246258   1.991   2.051   3.064  0.2380 -0.0685 -0.3563
 8256TIP3    H146259   2.076   2.049   3.019  0.3952  0.0944 -0.0700
 8256TIP3    H246260   1.930   2.083   2.997  0.4575  0.1117 -0.4759
 8257TIP3   OH246261   6.307   3.560   5.723  0.1494  0.2291  0.0784
 8257TIP3    H146262   6.232   3.615   5.746 -0.1286 -0.4409  0.7997
 8257TIP3    H246263   6.372   3.622   5.690 -0.9263  0.7583 -1.1482
 8258TIP3   OH246264   2.186   5.111  13.711  0.2043 -0.2157 -0.0735
 8258TIP3    H146265   2.275   5.097  13.745  0.7226 -1.7992 -1.9006
 8258TIP3    H246266   2.190   5.197  13.669  0.6144  0.0728  0.5301
 8259TIP3   OH246267   6.207   5.823  11.666 -0.1952 -0.1024 -0.4722
 8259TIP3    H146268   6.178   5.899  11.717 -1.7128 -0.6173 -0.5309
 8259TIP3    H246269   6.293   5.849  11.632  0.3564  0.6870  1.3899
 8260TIP3   OH246270   6.019   2.471  14.858  0.4582 -0.2353  0.2511
 8260TIP3    H146271   5.985   2.556  14.829  0.5158 -0.0516  0.7014
 8260TIP3    H246272   6.113   2.485  14.869  0.5027 -0.4208  0.1058
 8261TIP3   OH246273   0.086   1.362   6.282  0.4899  0.2571  0.0414
 8261TIP3    H146274   0.112   1.340   6.193 -0.7378  1.6913 -0.6947
 8261TIP3    H246275   0.167   1.355   6.333  1.2484 -0.3240 -1.2100
 8262TIP3   OH246276   3.679   6.211   2.842  0.0649 -0.1014 -0.0247
 8262TIP3    H146277   3.749   6.176   2.898 -0.0156  0.4674  0.4411
 8262TIP3    H246278   3.617   6.251   2.903 -1.5599 -2.0820 -0.2902
 8263TIP3   OH246279   4.686   3.369   4.512 -0.3757  0.5289  0.2389
 8263TIP3    H146280   4.592   3.375   4.526 -0.4079  0.5684  0.0120
 8263TIP3    H246281   4.700   3.284   4.472 -0.3791  0.7497 -0.2351
 8264TIP3   OH246282   3.073   5.853   5.082 -0.2660  0.0539 -0.6672
 8264TIP3    H146283   3.036   5.861   5.169 -0.7582 -1.4839 -0.7160
 8264TIP3    H246284   3.042   5.930   5.035 -1.8417 -0.2339 -0.1402
 8265TIP3   OH246285   1.797   0.682  14.642  0.3872  0.1489 -0.5487
 8265TIP3    H146286   1.848   0.698  14.563  0.7555  0.2364 -0.2910
 8265TIP3    H246287   1.851   0.624  14.696  0.2104  0.2243 -0.2846
 8266TIP3   OH246288   0.274   6.123  11.742 -0.4148  0.0262  0.1366
 8266TIP3    H146289   0.350   6.115  11.684  0.0932 -1.7433  0.9847
 8266TIP3    H246290   0.311   6.148  11.826 -0.9453  0.6293  0.1949
 8267TIP3   OH246291   0.829   5.679   2.543  0.2519  0.7433 -0.0474
 8267TIP3    H146292   0.810   5.766   2.508 -2.5622 -0.4212 -1.7051
 8267TIP3    H246293   0.759   5.623   2.510  3.0395 -2.6853 -0.8565
 8268TIP3   OH246294   0.881   1.339  16.334  0.2296 -0.6586  0.4250
 8268TIP3    H146295   0.890   1.243  16.336  0.2645 -0.6387  1.7414
 8268TIP3    H246296   0.970   1.371  16.319  0.8546 -0.7637  3.4184
 8269TIP3   OH246297   4.812   0.926  13.750 -0.0791 -0.0188 -0.2717
 8269TIP3    H146298   4.835   0.959  13.837  1.5358 -1.4278 -0.1016
 8269TIP3    H246299   4.756   0.850  13.767 -0.2264  0.0407 -0.4897
 8270TIP3   OH246300   5.186   5.863   4.300 -0.6947 -0.0206  0.6253
 8270TIP3    H146301   5.113   5.831   4.247 -0.2079 -0.7652  0.3898
 8270TIP3    H246302   5.165   5.835   4.389 -0.8204 -0.0260  0.5937
 8271TIP3   OH246303   0.387   5.299   2.458 -0.0342 -0.1731 -0.1763
 8271TIP3    H146304   0.367   5.258   2.542 -0.0711  1.4901  0.6601
 8271TIP3    H246305   0.313   5.357   2.441  0.8767  0.9763 -0.3797
 8272TIP3   OH246306   3.993   2.027  12.954 -0.3342  0.5024  0.5922
 8272TIP3    H146307   4.050   2.096  12.988 -1.0619  1.1143  0.5866
 8272TIP3    H246308   4.002   1.955  13.017  0.0042  0.8124  0.8997
 8273TIP3   OH246309   0.814   3.899  15.003 -0.5030 -0.3627 -0.0754
 8273TIP3    H146310   0.791   3.864  14.917 -1.2504  0.1023 -0.0818
 8273TIP3    H246311   0.905   3.874  15.016  0.3028  1.2913 -1.9129
 8274TIP3   OH246312   1.779   6.631   1.958 -1.1871 -0.3112 -0.4210
 8274TIP3    H146313   1.721   6.628   2.034  0.4244  2.4573  1.0725
 8274TIP3    H246314   1.866   6.613   1.994 -0.4747  0.3539 -1.7419
 8275TIP3   OH246315   0.431   6.307  13.754  0.1235  0.0466  0.3760
 8275TIP3    H146316   0.379   6.323  13.675 -1.9633 -0.2790  1.5989
 8275TIP3    H246317   0.505   6.367  13.747 -1.0625  1.4435 -0.8841
 8276TIP3   OH246318   3.423   5.057   3.797  0.0316 -0.1015 -0.3733
 8276TIP3    H146319   3.435   5.127   3.733  1.6236  0.4182  0.4397
 8276TIP3    H246320   3.470   4.982   3.759 -1.2550 -0.6138 -1.0122
 8277TIP3   OH246321   5.235   1.029   2.030  0.0854  0.0200  0.2300
 8277TIP3    H146322   5.184   1.103   1.997  1.4502  1.6117  1.5015
 8277TIP3    H246323   5.171   0.974   2.076 -1.3542 -0.8406 -2.5772
 8278TIP3   OH246324   0.689   0.623  15.250 -0.3455 -1.1707 -0.5948
 8278TIP3    H146325   0.649   0.536  15.241  2.8183 -2.6771 -1.3325
 8278TIP3    H246326   0.777   0.607  15.281 -0.6666  2.1094  2.7938
 8279TIP3   OH246327   1.280   3.157   3.338 -0.6144 -0.1105 -0.2294
 8279TIP3    H146328   1.326   3.237   3.314  0.6282 -0.2345  1.5012
 8279TIP3    H246329   1.297   3.097   3.266  0.6292  0.3693 -0.3681
 8280TIP3   OH246330   1.642   6.256  13.827 -0.6107 -0.0937  0.4815
 8280TIP3    H146331   1.593   6.288  13.752 -1.1861 -1.7214  0.1242
 8280TIP3    H246332   1.593   6.179  13.857 -1.3925  1.4677  3.6263
 8281TIP3   OH246333   1.627   2.157  13.641  0.0087 -0.1804  0.3605
 8281TIP3    H146334   1.647   2.237  13.592 -2.8264  0.5355  0.2047
 8281TIP3    H246335   1.638   2.182  13.733 -1.1912  0.5057  0.3265
 8282TIP3   OH246336   3.316   6.207   0.048  0.2399 -0.4576  0.2175
 8282TIP3    H146337   3.399   6.206   0.094  1.0075 -1.6363 -1.1099
 8282TIP3    H246338   3.317   6.288  -0.002 -0.2152  0.3946  1.5445
 8283TIP3   OH246339   3.300   2.236  16.019 -0.5593 -0.1320 -0.2524
 8283TIP3    H146340   3.326   2.258  16.109  0.1855  0.5560 -0.6247
 8283TIP3    H246341   3.369   2.176  15.989 -0.6038 -0.0655 -0.4880
 8284TIP3   OH246342   6.608   0.965   4.071  0.0902 -0.1756 -0.6518
 8284TIP3    H146343   6.540   0.915   4.117 -0.4908  1.4317  0.3229
 8284TIP3    H246344   6.688   0.948   4.121  0.0293 -0.6520 -0.7158
 8285TIP3   OH246345   6.454   4.643  16.625 -0.5208  0.1711 -0.0502
 8285TIP3    H146346   6.446   4.562  16.675 -3.2562  1.0723  1.2151
 8285TIP3    H246347   6.379   4.642  16.565  1.3334  0.2565 -2.5410
 8286TIP3   OH246348   6.137   4.308   3.596 -0.1792  0.4551 -0.4345
 8286TIP3    H146349   6.198   4.267   3.535  0.1060  1.8187 -1.1134
 8286TIP3    H246350   6.179   4.391   3.619 -1.2047  0.8474  0.0763
 8287TIP3   OH246351   0.748   1.962   2.643 -0.2889  0.1702  0.3538
 8287TIP3    H146352   0.786   1.946   2.729  0.9575  1.4643  0.0755
 8287TIP3    H246353   0.779   1.889   2.589 -2.3158 -1.5135  1.2955
 8288TIP3   OH246354   3.874   2.240   4.954  0.1376 -0.1523 -0.0673
 8288TIP3    H146355   3.857   2.146   4.945 -0.1769 -0.0098 -1.1360
 8288TIP3    H246356   3.884   2.254   5.048  0.6715 -1.3315  0.0626
 8289TIP3   OH246357   2.562   1.709  16.016  0.8394 -0.0282 -0.1303
 8289TIP3    H146358   2.593   1.733  15.929 -1.8937 -0.9252 -1.4680
 8289TIP3    H246359   2.474   1.675  16.001  0.0209  0.4009  3.0910
 8290TIP3   OH246360   6.474   5.033  12.031  0.0645 -0.1525 -0.5928
 8290TIP3    H146361   6.486   5.104  11.968  3.0064 -2.5079 -2.9414
 8290TIP3    H246362   6.422   4.968  11.984 -2.5015  0.1801  1.4915
 8291TIP3   OH246363   6.428   1.728  11.478 -0.1200 -0.4089  0.1897
 8291TIP3    H146364   6.482   1.660  11.519 -0.7568 -0.6419  0.6626
 8291TIP3    H246365   6.468   1.741  11.392  0.5093 -0.7842  0.4130
 8292TIP3   OH246366   6.628   6.559   2.076 -0.0695 -0.1521 -0.2881
 8292TIP3    H146367   6.723   6.566   2.081 -0.1287 -0.1008  1.2569
 8292TIP3    H246368   6.596   6.642   2.110 -0.6629 -1.1480  1.6915
 8293TIP3   OH246369   2.696   4.938  11.621 -0.0947 -0.7439  0.7035
 8293TIP3    H146370   2.647   4.982  11.552 -0.4230  0.8033  1.8514
 8293TIP3    H246371   2.787   4.958  11.602 -0.0657 -1.5216 -0.0445
 8294TIP3   OH246372   1.057   0.359   4.396  0.1677 -0.3233 -0.1786
 8294TIP3    H146373   1.067   0.353   4.301  1.8871  1.3103 -0.1584
 8294TIP3    H246374   1.004   0.437   4.410 -0.6568 -0.9361  0.2169
 8295TIP3   OH246375   1.601   1.820   3.938  0.0913 -0.1024  0.7406
 8295TIP3    H146376   1.560   1.747   3.892  0.2945  0.0958  0.2298
 8295TIP3    H246377   1.553   1.828   4.020  0.1217 -0.8598  0.8333
 8296TIP3   OH246378   1.769   2.072   0.243 -0.3132 -0.0831  0.2233
 8296TIP3    H146379   1.693   2.071   0.302 -1.4006 -0.8956 -1.1347
 8296TIP3    H246380   1.752   2.001   0.181  1.1875  0.2409 -0.6005
 8297TIP3   OH246381   6.583   4.652  12.003 -0.2191 -0.0046 -0.2270
 8297TIP3    H146382   6.529   4.674  12.079 -0.4868  0.2900 -0.4980
 8297TIP3    H246383   6.521   4.613  11.941 -0.0317 -0.0991 -0.3539
 8298TIP3   OH246384   5.646   4.672  14.208 -0.0603 -0.1042  0.8150
 8298TIP3    H146385   5.625   4.764  14.221  1.1797  0.0623  1.7677
 8298TIP3    H246386   5.735   4.662  14.241 -0.6737 -1.9390  2.1279
 8299TIP3   OH246387   2.532   2.362   3.444 -0.2428 -0.5813 -0.5669
 8299TIP3    H146388   2.448   2.317   3.437 -0.5092  0.0679 -1.9733
 8299TIP3    H246389   2.531   2.426   3.372  1.1102  0.0087 -0.0984
 8300TIP3   OH246390   5.389   3.906  11.391 -0.5451 -0.5144 -0.2705
 8300TIP3    H146391   5.344   3.921  11.308 -0.8186  1.3220  0.1623
 8300TIP3    H246392   5.409   3.812  11.391 -1.1704 -0.6876 -2.0743
 8301TIP3   OH246393   5.681   4.689   6.540  0.0798 -0.6034  0.6958
 8301TIP3    H146394   5.700   4.753   6.609 -2.2783  0.9778  0.0127
 8301TIP3    H246395   5.683   4.740   6.459 -0.9429 -1.5894  0.0191
 8302TIP3   OH246396   2.001   2.609   4.635 -0.5080 -0.1043  0.4450
 8302TIP3    H146397   2.042   2.670   4.574 -1.6280  0.9976  0.7592
 8302TIP3    H246398   2.060   2.534   4.637 -0.6129 -0.3614 -2.3048
 8303TIP3   OH246399   4.606   4.546   0.873 -0.2330 -0.1380  0.1050
 8303TIP3    H146400   4.679   4.496   0.837 -0.1923  0.7202 -1.0329
 8303TIP3    H246401   4.533   4.527   0.815 -1.1182 -1.4443  1.5542
 8304TIP3   OH246402   4.398   1.206  13.984  0.1788  0.4930  0.6464
 8304TIP3    H146403   4.434   1.125  14.021  0.3920 -0.2511 -1.0791
 8304TIP3    H246404   4.307   1.185  13.965  0.0826  0.8500  0.7122
 8305TIP3   OH246405   3.237   5.097   2.489  0.3439  0.5868 -0.6082
 8305TIP3    H146406   3.271   5.184   2.511 -2.9053  1.8651 -0.1485
 8305TIP3    H246407   3.199   5.108   2.403 -3.6053  0.8926  0.9754
 8306TIP3   OH246408   3.599   3.904  15.366  0.4128  0.2962 -0.2594
 8306TIP3    H146409   3.622   3.974  15.304 -1.0548  0.3815 -0.7482
 8306TIP3    H246410   3.507   3.919  15.386  0.5571 -0.4372  1.0592
 8307TIP3   OH246411   6.256   3.428   2.515  0.1709  0.1489  0.0080
 8307TIP3    H146412   6.302   3.460   2.438 -0.6600  0.1972 -0.4731
 8307TIP3    H246413   6.294   3.341   2.531  2.6084  1.3758  1.4616
 8308TIP3   OH246414   5.885   0.108   2.846  0.7181 -0.5505 -0.0132
 8308TIP3    H146415   5.807   0.162   2.847 -0.2981 -1.9558  0.3362
 8308TIP3    H246416   5.906   0.098   2.753  1.4313  1.0851 -0.0629
 8309TIP3   OH246417   3.730   1.389   2.450  0.1505  0.3287  0.5710
 8309TIP3    H146418   3.675   1.395   2.373 -0.2125 -2.2592  0.5209
 8309TIP3    H246419   3.680   1.432   2.519 -0.2933  1.1561 -0.2506
 8310TIP3   OH246420   4.108   3.355  14.891  0.0345 -0.2350  0.4805
 8310TIP3    H146421   4.158   3.317  14.964 -0.9347 -2.5436  0.0249
 8310TIP3    H246422   4.018   3.329  14.908 -0.1468 -1.3196 -1.8055
 8311TIP3   OH246423   0.973   5.556  15.144  0.5013  0.5226 -0.2577
 8311TIP3    H146424   0.937   5.533  15.058 -0.4687  2.0389 -0.2958
 8311TIP3    H246425   0.935   5.491  15.203 -2.0869  1.7811 -0.3791
 8312TIP3   OH246426   4.569   4.486   1.132 -0.2244  0.1534 -0.2311
 8312TIP3    H146427   4.581   4.536   1.051 -0.7749  1.9931  0.7490
 8312TIP3    H246428   4.474   4.485   1.146 -0.1053  0.5071  0.7285
 8313TIP3   OH246429   0.226   2.056   4.023  0.1884  0.7373  0.2055
 8313TIP3    H146430   0.207   2.062   4.116 -0.4282  0.4860  0.1053
 8313TIP3    H246431   0.313   2.016   4.018 -0.7889 -1.5821  0.6610
 8314TIP3   OH246432   4.180   3.679   5.365 -0.5514  0.1899  0.0415
 8314TIP3    H146433   4.216   3.744   5.425  1.1012  1.1177 -1.8445
 8314TIP3    H246434   4.089   3.705   5.353 -1.5280 -1.0898  3.4461
 8315TIP3   OH246435   5.341   0.605  13.174 -0.7247  0.1002  0.4570
 8315TIP3    H146436   5.427   0.577  13.144 -0.5849  0.1713  0.7882
 8315TIP3    H246437   5.359   0.674  13.238 -0.9813 -0.6534  1.3674
 8316TIP3   OH246438   5.238   6.606  17.139  0.0664 -0.5543 -1.0060
 8316TIP3    H146439   5.283   6.575  17.218  1.3842 -0.5617 -1.7322
 8316TIP3    H246440   5.153   6.638  17.171  1.2080  1.0149  0.6804
 8317TIP3   OH246441   2.596   2.711  15.270 -0.2094  0.0729  0.6823
 8317TIP3    H146442   2.560   2.784  15.219 -0.4401  0.5257  1.4784
 8317TIP3    H246443   2.661   2.671  15.212 -1.7810 -0.6118 -0.6942
 8318TIP3   OH246444   3.666   0.822  13.709 -0.7097 -0.4591  0.2510
 8318TIP3    H146445   3.660   0.870  13.792  0.6579 -0.1361  0.1938
 8318TIP3    H246446   3.720   0.745  13.729  1.7718  0.8809 -0.8082
 8319TIP3   OH246447   6.584   1.123   2.353  0.2166 -0.3697 -0.9209
 8319TIP3    H146448   6.489   1.111   2.363  0.0504  0.1551 -1.7530
 8319TIP3    H246449   6.593   1.208   2.310  1.1328  0.1672  0.2721
 8320TIP3   OH246450   0.924   6.385  16.018  0.7447  0.5916  0.8188
 8320TIP3    H146451   0.936   6.404  16.111  0.1079 -2.0835  1.5285
 8320TIP3    H246452   1.003   6.339  15.993 -0.4173 -1.5680  0.9366
 8321TIP3   OH246453   5.073   3.582  12.007  0.3868  0.1502  0.2316
 8321TIP3    H146454   5.080   3.677  12.000  0.1106  0.0541 -2.5796
 8321TIP3    H246455   5.061   3.566  12.100 -0.5249  2.9323  0.7067
 8322TIP3   OH246456   0.036   2.338   4.129 -0.0162  0.1879 -0.4043
 8322TIP3    H146457   0.117   2.345   4.179  0.3487  0.1540 -0.9809
 8322TIP3    H246458  -0.003   2.425   4.134  0.3100  0.3421 -0.5482
 8323TIP3   OH246459   0.383   3.844   3.268 -0.7173 -0.0424 -0.4864
 8323TIP3    H146460   0.296   3.879   3.285 -0.9502 -1.2310  1.0437
 8323TIP3    H246461   0.437   3.921   3.251 -1.6971  0.8740  0.3686
 8324TIP3   OH246462   0.780   4.147  15.102  0.2225 -0.3080 -0.0413
 8324TIP3    H146463   0.802   4.054  15.104  2.5161  0.1699  0.3002
 8324TIP3    H246464   0.775   4.169  15.009 -2.5091 -1.1653 -0.1649
 8325TIP3   OH246465   0.040   0.618   5.638  0.6479  0.5070 -0.0479
 8325TIP3    H146466   0.128   0.580   5.633 -0.0544 -1.4555  1.3700
 8325TIP3    H246467  -0.002   0.573   5.710 -1.0594  2.4937  0.3050
 8326TIP3   OH246468   1.605   2.457   1.796  0.1422  0.3350 -0.4038
 8326TIP3    H146469   1.561   2.379   1.761  1.7394 -0.5299 -0.5912
 8326TIP3    H246470   1.583   2.457   1.890  0.3889 -0.5449 -0.3352
 8327TIP3   OH246471   5.736   2.619  15.536 -0.3788 -0.3753 -0.2529
 8327TIP3    H146472   5.745   2.707  15.498 -0.1508 -0.4467 -0.3679
 8327TIP3    H246473   5.679   2.632  15.612  0.0547 -0.0395  0.0212
 8328TIP3   OH246474   1.489   6.142  13.163 -0.2923  0.5032 -0.2018
 8328TIP3    H146475   1.413   6.191  13.131 -0.7513 -0.0744 -0.0202
 8328TIP3    H246476   1.558   6.159  13.099 -0.2655  1.8161  0.1289
 8329TIP3   OH246477   6.013   2.364  16.682  0.1647  0.6080  0.4112
 8329TIP3    H146478   5.976   2.451  16.669 -0.6131  0.4962  1.6716
 8329TIP3    H246479   5.993   2.343  16.773 -0.7985 -1.4143 -0.2104
 8330TIP3   OH246480   5.431   0.941   6.269  0.9244 -0.2691 -0.2586
 8330TIP3    H146481   5.523   0.915   6.270  2.0942  3.3409  0.4340
 8330TIP3    H246482   5.403   0.935   6.360  1.5089  1.5074  0.0895
 8331TIP3   OH246483   0.757   1.168  12.049 -0.5407 -0.6528  0.2690
 8331TIP3    H146484   0.797   1.236  11.995 -1.6624  0.2301  0.5055
 8331TIP3    H246485   0.725   1.103  11.987  2.4264 -2.1315  0.1134
 8332TIP3   OH246486   2.555   0.830  15.554  0.4683 -0.0402  0.0851
 8332TIP3    H146487   2.535   0.813  15.462 -1.5525  0.0766  0.4497
 8332TIP3    H246488   2.606   0.911  15.553 -1.4525  1.2523 -0.8558
 8333TIP3   OH246489   1.495   3.533   3.522  0.5157 -0.2126  0.1945
 8333TIP3    H146490   1.508   3.622   3.555  0.7186 -0.6339  1.2996
 8333TIP3    H246491   1.412   3.506   3.561 -0.5617  0.1699 -1.7089
 8334TIP3   OH246492   3.823   4.512   1.454 -0.1869  0.7225 -0.4457
 8334TIP3    H146493   3.848   4.597   1.490  0.6106 -0.3685  1.7928
 8334TIP3    H246494   3.728   4.511   1.457 -0.2208  0.2414  3.1195
 8335TIP3   OH246495   2.533   5.426   1.943 -0.1841 -0.3587 -0.2765
 8335TIP3    H146496   2.457   5.407   1.889 -0.9585 -0.7186  0.9034
 8335TIP3    H246497   2.543   5.348   1.999 -0.7678  0.8641  1.6211
 8336TIP3   OH246498   1.112   3.744   5.064 -0.1792 -0.4059 -0.4228
 8336TIP3    H146499   1.169   3.788   5.126 -0.1234 -0.3653 -0.5028
 8336TIP3    H246500   1.076   3.814   5.009  0.9015 -0.5686 -1.3757
 8337TIP3   OH246501   5.768   0.339   1.546 -0.3149  0.2196 -0.3733
 8337TIP3    H146502   5.778   0.424   1.589  0.5310  0.3499 -0.8139
 8337TIP3    H246503   5.677   0.315   1.562  0.3867 -0.6696  3.1949
 8338TIP3   OH246504   3.621   6.295   1.993  0.0806 -0.4742 -0.2203
 8338TIP3    H146505   3.685   6.359   1.962  1.6142 -1.1403  1.4087
 8338TIP3    H246506   3.536   6.337   1.978  0.7922  0.1141 -3.1439
 8339TIP3   OH246507   0.412   0.602  16.181  0.1562  0.1583 -0.8737
 8339TIP3    H146508   0.387   0.694  16.178  1.3569  0.5549  0.4168
 8339TIP3    H246509   0.455   0.591  16.266  1.2214 -1.2771 -1.5489
 8340TIP3   OH246510   2.445   5.302  13.366 -0.0125 -0.4269  0.4442
 8340TIP3    H146511   2.520   5.286  13.308 -0.0874  0.5586  0.0574
 8340TIP3    H246512   2.375   5.329  13.306 -1.3704 -3.3781  0.5329
 8341TIP3   OH246513   0.142   0.281  14.170 -0.0161 -0.2009  0.2628
 8341TIP3    H146514   0.210   0.347  14.157  1.1977 -0.7082  3.3002
 8341TIP3    H246515   0.171   0.206  14.118  0.0498  0.6363 -0.9550
 8342TIP3   OH246516   4.735   3.093   2.245 -0.2971 -0.0394 -0.6640
 8342TIP3    H146517   4.658   3.053   2.205 -0.1607 -1.8607  0.7616
 8342TIP3    H246518   4.797   3.021   2.256  0.3277  0.7043  1.1428
 8343TIP3   OH246519   2.424   2.081  14.452 -0.0144  0.0525 -0.1891
 8343TIP3    H146520   2.331   2.103  14.454  0.0440  0.2548  1.4024
 8343TIP3    H246521   2.463   2.134  14.522  0.8353 -1.9980  0.9577
 8344TIP3   OH246522   1.734   6.140   5.771 -0.1728 -0.3356 -0.1523
 8344TIP3    H146523   1.789   6.115   5.697 -1.8046 -0.8611 -1.2231
 8344TIP3    H246524   1.649   6.102   5.753 -0.7312 -0.1607  1.8319
 8345TIP3   OH246525   4.876   1.090   6.103  0.2148 -0.2858 -0.4421
 8345TIP3    H146526   4.927   1.106   6.182 -0.5005 -0.0290 -0.0232
 8345TIP3    H246527   4.784   1.102   6.130 -0.1934 -2.3218 -0.7949
 8346TIP3   OH246528   5.914   5.174   6.266 -0.0395  0.0312 -0.6275
 8346TIP3    H146529   5.908   5.173   6.361  2.5967 -0.7095 -0.3883
 8346TIP3    H246530   5.965   5.252   6.246  0.4720 -0.4750 -1.3418
 8347TIP3   OH246531   3.462   4.626   5.583 -0.0206 -0.6408 -0.2588
 8347TIP3    H146532   3.391   4.689   5.572  0.3911 -0.2686 -0.7817
 8347TIP3    H246533   3.475   4.621   5.678 -0.8811 -0.8736 -0.1359
 8348TIP3   OH246534   3.707   0.392   5.021 -0.0181 -0.4599  0.2103
 8348TIP3    H146535   3.782   0.425   4.973 -0.6795  0.8039  0.0100
 8348TIP3    H246536   3.701   0.449   5.098 -1.0720 -0.2174 -0.0401
 8349TIP3   OH246537   6.265   2.064  15.431  0.1530  0.3587 -0.5200
 8349TIP3    H146538   6.259   2.098  15.520  1.1714  0.6153 -0.5342
 8349TIP3    H246539   6.175   2.064  15.399 -1.0645 -3.7916  1.9704
 8350TIP3   OH246540   1.355   2.577  11.265 -0.4099 -0.8209  0.1459
 8350TIP3    H146541   1.390   2.553  11.179 -0.4572 -1.0361  0.1862
 8350TIP3    H246542   1.429   2.569  11.325 -0.4299 -0.8853  0.1622
 8351TIP3   OH246543   0.216   0.518   6.768 -0.4113 -0.1962  0.1742
 8351TIP3    H146544   0.175   0.469   6.696  0.2249  0.8340 -0.9340
 8351TIP3    H246545   0.165   0.598   6.775 -0.1009 -0.0192  0.4496
 8352TIP3   OH246546   0.535   0.444  14.927  0.0290  0.2909 -0.1058
 8352TIP3    H146547   0.457   0.395  14.899 -0.5633  0.8282  0.5648
 8352TIP3    H246548   0.540   0.517  14.865 -0.2136  0.4593  0.0722
 8353TIP3   OH246549   1.781   1.991   2.035  0.3665 -0.1001 -0.6317
 8353TIP3    H146550   1.817   2.054   1.972 -1.1755  1.3198 -0.1824
 8353TIP3    H246551   1.850   1.979   2.100  1.2235 -0.0215 -1.5081
 8354TIP3   OH246552   5.302   1.930   0.569  0.1227 -0.6588  0.0623
 8354TIP3    H146553   5.210   1.906   0.581  0.0326 -0.4422 -0.2042
 8354TIP3    H246554   5.350   1.865   0.621 -0.2243 -0.1943  0.9862
 8355TIP3   OH246555   3.700   2.998   0.787  0.7589 -1.1807  0.5450
 8355TIP3    H146556   3.654   3.041   0.860  0.5755  1.0892 -0.8218
 8355TIP3    H246557   3.792   2.999   0.813  0.6078 -1.1167  1.0987
 8356TIP3   OH246558   3.497   6.256  16.594 -0.1953  0.8448  0.0345
 8356TIP3    H146559   3.581   6.258  16.641  0.0400 -0.3977 -0.2953
 8356TIP3    H246560   3.508   6.186  16.530 -1.3062  1.0399 -0.3755
 8357TIP3   OH246561   3.353   1.521   5.546 -0.8371 -0.1503 -0.0255
 8357TIP3    H146562   3.344   1.463   5.621 -0.9245 -0.6866 -0.4465
 8357TIP3    H246563   3.357   1.462   5.470 -0.4793  0.3694 -0.4180
 8358TIP3   OH246564   4.507   2.344   4.442  0.3244  0.2876 -0.2870
 8358TIP3    H146565   4.424   2.341   4.393 -0.7671  0.3139  1.4810
 8358TIP3    H246566   4.528   2.437   4.448  0.3152  0.3016 -0.4732
 8359TIP3   OH246567   5.597   2.711  17.416 -0.0495  0.0001 -0.8108
 8359TIP3    H146568   5.557   2.797  17.405 -1.2018 -0.4411 -0.1452
 8359TIP3    H246569   5.592   2.692  17.509  1.0255 -0.4140 -0.8126
 8360TIP3   OH246570   5.116   4.232   1.092 -0.4056 -0.3804  0.9243
 8360TIP3    H146571   5.034   4.249   1.138 -0.7711  0.3543  0.0389
 8360TIP3    H246572   5.094   4.244   1.000  0.7579  0.0567  0.6937
 8361TIP3   OH246573   4.224   1.551   6.257  0.4006 -0.1410  0.0430
 8361TIP3    H146574   4.311   1.587   6.237 -0.2564  2.3844  1.3165
 8361TIP3    H246575   4.243   1.468   6.301  2.2325  0.6817  0.9164
 8362TIP3   OH246576   4.847   1.254   3.970  0.3278  0.0562  0.1596
 8362TIP3    H146577   4.908   1.315   3.930 -0.2550  0.8426  0.4386
 8362TIP3    H246578   4.899   1.177   3.991  1.0827  0.4755 -0.1589
 8363TIP3   OH246579   3.262   0.751  13.390  0.3144  0.4613  0.5687
 8363TIP3    H146580   3.224   0.731  13.476 -0.8590 -0.2492 -0.0783
 8363TIP3    H246581   3.209   0.824  13.357 -1.4777 -1.3688 -0.8900
 8364TIP3   OH246582   2.261   4.991   0.577  0.2478  0.4099 -0.3518
 8364TIP3    H146583   2.173   4.953   0.571  0.7773 -0.7714 -1.0053
 8364TIP3    H246584   2.296   4.983   0.488  0.9826  0.9654 -0.1182
 8365TIP3   OH246585   4.079   1.389  11.470 -0.3169 -0.5312 -0.5019
 8365TIP3    H146586   4.143   1.364  11.403 -0.1464  0.0737 -0.5650
 8365TIP3    H246587   4.006   1.426  11.421 -0.4032 -0.5387 -0.3802
 8366TIP3   OH246588   3.008   5.545   3.187  0.1070  0.2765 -0.3146
 8366TIP3    H146589   2.985   5.491   3.112  1.4623  0.3901 -0.8427
 8366TIP3    H246590   3.072   5.493   3.236 -1.5390 -0.2560  1.3935
 8367TIP3   OH246591   4.975   3.696   0.434  0.5095  0.3507 -0.1034
 8367TIP3    H146592   5.017   3.610   0.434  1.1024  0.6319 -0.8987
 8367TIP3    H246593   5.046   3.758   0.415  0.0465  0.9980  0.2235
 8368TIP3   OH246594   6.070   0.951  13.125 -0.2331  0.1657 -0.1245
 8368TIP3    H146595   6.043   0.928  13.215  1.6087 -1.0087  0.1885
 8368TIP3    H246596   6.166   0.943  13.126 -0.0825  1.2281 -1.9235
 8369TIP3   OH246597   2.176   3.095   2.808  0.0808  0.2316  0.1728
 8369TIP3    H146598   2.154   3.047   2.728  0.0091  2.0014 -0.9142
 8369TIP3    H246599   2.257   3.141   2.788 -1.0356  2.3942  0.3076
 8370TIP3   OH246600   5.100   6.216  12.378 -0.3395 -0.0679  0.2257
 8370TIP3    H146601   5.162   6.281  12.343 -0.3451  0.8600  1.8656
 8370TIP3    H246602   5.121   6.210  12.471 -0.8039 -1.9410  0.2384
 8371TIP3   OH246603   3.217   3.543   3.352 -0.3919  0.0152  0.3605
 8371TIP3    H146604   3.278   3.617   3.351 -0.7722  0.5338  3.5224
 8371TIP3    H246605   3.251   3.486   3.422 -1.3442 -1.6963 -0.5262
 8372TIP3   OH246606   6.081   5.490   6.189  0.0112 -1.1444  0.1760
 8372TIP3    H146607   6.146   5.528   6.130  0.8153 -0.9018  1.2081
 8372TIP3    H246608   6.064   5.557   6.254 -1.3180 -1.1918 -0.0893
 8373TIP3   OH246609   3.962   6.557  15.245  0.5121 -0.2099  0.3744
 8373TIP3    H146610   3.948   6.495  15.317  2.8763 -0.2268  0.8946
 8373TIP3    H246611   3.963   6.643  15.287  1.4040 -0.1776  0.2974
 8374TIP3   OH246612   3.956   1.318   4.853 -0.5784  0.1244 -0.2649
 8374TIP3    H146613   4.026   1.270   4.808 -0.5752  0.0545 -0.1870
 8374TIP3    H246614   3.928   1.384   4.790 -0.4570  0.1386 -0.3061
 8375TIP3   OH246615   1.326   0.563  12.130  0.3304 -0.4262  0.2703
 8375TIP3    H146616   1.382   0.546  12.055  1.3489  2.6949  0.1521
 8375TIP3    H246617   1.240   0.530  12.105  0.9543 -0.6518 -1.7146
 8376TIP3   OH246618   4.718   2.395   4.241 -0.3381 -0.4604  0.1517
 8376TIP3    H146619   4.730   2.489   4.227  0.2269 -0.7357 -1.4372
 8376TIP3    H246620   4.646   2.371   4.183 -0.1757 -1.0957  0.2086
 8377TIP3   OH246621   3.816   4.264  15.640  0.0323 -0.4588 -0.4606
 8377TIP3    H146622   3.732   4.221  15.652  0.0799 -0.3907  0.1739
 8377TIP3    H246623   3.809   4.310  15.557 -0.0798 -1.5553 -1.0771
 8378TIP3   OH246624   6.132   6.286  11.756 -0.2516  0.3855 -0.0530
 8378TIP3    H146625   6.224   6.305  11.775 -0.8443  2.9275  0.6477
 8378TIP3    H246626   6.125   6.297  11.661  0.1991  0.0367 -0.1292
 8379TIP3   OH246627   4.634   4.816   2.971  0.1355 -0.6544  0.1958
 8379TIP3    H146628   4.677   4.814   3.056 -0.8860 -0.5644  0.7211
 8379TIP3    H246629   4.552   4.768   2.983 -1.2926  1.5811 -0.0028
 8380TIP3   OH246630   2.653   0.045   2.724  0.7702  0.0702 -0.2412
 8380TIP3    H146631   2.591  -0.015   2.681  1.8566 -2.2406  1.2183
 8380TIP3    H246632   2.708   0.078   2.652 -0.4123  0.0393 -1.1987
 8381TIP3   OH246633   4.055   3.414   1.875  0.2951 -0.6015 -0.4967
 8381TIP3    H146634   4.059   3.353   1.948 -1.6728 -1.2011 -0.8361
 8381TIP3    H246635   4.012   3.492   1.910 -0.8485 -0.9737 -1.0449
 8382TIP3   OH246636   0.075   3.355   1.497  0.0614 -0.2357 -0.6296
 8382TIP3    H146637   0.106   3.264   1.499 -0.1855 -0.3181  0.5253
 8382TIP3    H246638   0.009   3.356   1.428 -0.3936 -1.1040 -0.2281
 8383TIP3   OH246639   0.821   1.278  17.047 -0.2815  0.1502  0.1926
 8383TIP3    H146640   0.900   1.323  17.019 -0.8467  0.3660 -1.1282
 8383TIP3    H246641   0.796   1.322  17.129  0.4033  0.7446  0.0895
 8384TIP3   OH246642   5.280   0.034   5.466 -0.3769  0.0494 -0.2216
 8384TIP3    H146643   5.218   0.094   5.507  0.3821  1.0232 -0.4879
 8384TIP3    H246644   5.341   0.090   5.418  0.0652 -0.9528 -0.8697
 8385TIP3   OH246645   4.740   6.002  13.522 -0.2512 -0.6574 -0.0518
 8385TIP3    H146646   4.792   6.034  13.595 -1.0541 -0.3387  0.3971
 8385TIP3    H246647   4.696   5.924  13.555 -0.8495 -0.3447 -0.0905
 8386TIP3   OH246648   2.002   3.014  13.741 -0.4561 -0.6997  0.2883
 8386TIP3    H146649   2.056   3.083  13.778 -1.6310 -0.7472  2.2316
 8386TIP3    H246650   1.913   3.049  13.743 -0.7004 -1.0527 -1.7747
 8387TIP3   OH246651   1.511   2.982   4.061  0.8300  0.3142  0.1344
 8387TIP3    H146652   1.428   2.945   4.090  0.5801  0.1971 -0.7063
 8387TIP3    H246653   1.495   3.075   4.053  1.1772  0.4976  1.2754
 8388TIP3   OH246654   1.311   5.870   0.305  0.0582 -0.2484 -0.0125
 8388TIP3    H146655   1.400   5.870   0.342  0.3103  0.5519 -0.5925
 8388TIP3    H246656   1.266   5.798   0.350  1.6073 -2.0570 -1.2013
 8389TIP3   OH246657   3.400   1.924   3.703 -0.0755  0.0650  0.4423
 8389TIP3    H146658   3.381   1.843   3.656  0.2074 -0.1193  0.6380
 8389TIP3    H246659   3.354   1.914   3.787 -0.4771  0.3389  0.2591
 8390TIP3   OH246660   3.435   1.699   4.414 -0.1958  0.2617  0.1709
 8390TIP3    H146661   3.485   1.683   4.334  1.1068  0.9638  0.8109
 8390TIP3    H246662   3.372   1.627   4.418  1.4391 -1.2353 -0.1367
 8391TIP3   OH246663   6.684   6.507  17.206  0.3987 -0.1676 -0.3477
 8391TIP3    H146664   6.673   6.423  17.251 -0.1411  0.7662  1.3545
 8391TIP3    H246665   6.773   6.535  17.229  0.1209  0.3124  0.1786
 8392TIP3   OH246666   1.985   4.575  16.410 -0.1330 -0.7220 -0.4662
 8392TIP3    H146667   2.070   4.534  16.423  0.5221 -0.2629 -2.7061
 8392TIP3    H246668   1.926   4.503  16.385 -0.1602 -0.8967  0.0881
 8393TIP3   OH246669   1.053   2.330   4.285  0.0579 -0.5096 -0.1801
 8393TIP3    H146670   1.067   2.276   4.207 -1.6946 -1.4346  0.0947
 8393TIP3    H246671   0.958   2.339   4.291  0.1989  0.1652  1.4313
 8394TIP3   OH246672   3.363   4.019  15.040 -0.4216  0.0302 -0.2108
 8394TIP3    H146673   3.297   3.950  15.038 -1.4050  0.7226  2.7795
 8394TIP3    H246674   3.337   4.080  14.971 -2.1261 -0.3842  0.0351
 8395TIP3   OH246675   3.905   3.607   0.022  0.1661 -0.0466  0.1160
 8395TIP3    H146676   3.904   3.630   0.115  0.1380  1.5232 -0.2451
 8395TIP3    H246677   3.978   3.545   0.013  0.4195  0.0960  1.1028
 8396TIP3   OH246678   2.949   1.075   2.408 -0.2389 -0.0897 -0.4810
 8396TIP3    H146679   2.953   1.168   2.387 -0.0523  0.2905  1.1105
 8396TIP3    H246680   2.857   1.060   2.428 -0.3680 -0.3901 -1.2533
 8397TIP3   OH246681   4.262   2.177  13.445 -0.3946 -0.1582 -0.1175
 8397TIP3    H146682   4.179   2.221  13.427  0.5504  2.0995  0.6405
 8397TIP3    H246683   4.295   2.219  13.525  1.3761 -1.1334 -0.2734
 8398TIP3   OH246684   4.281   0.162   4.494 -0.0449 -0.2805 -0.0833
 8398TIP3    H146685   4.261   0.245   4.449 -0.9497 -0.6390 -0.3801
 8398TIP3    H246686   4.363   0.179   4.540 -1.1294  1.3741  1.3656
 8399TIP3   OH246687   2.414   5.522   5.325  0.1957 -0.3412 -0.3207
 8399TIP3    H146688   2.402   5.508   5.419  1.3888 -0.0604 -0.1053
 8399TIP3    H246689   2.471   5.450   5.297  1.3956  0.6012 -0.4239
 8400TIP3   OH246690   2.188   1.168   5.552 -0.5939 -0.3979 -0.5406
 8400TIP3    H146691   2.136   1.170   5.471 -0.6772 -2.2599 -0.5684
 8400TIP3    H246692   2.188   1.076   5.579  0.1611  0.0472  1.1233
 8401TIP3   OH246693   4.167   6.714  16.574 -0.1489  0.1636 -0.2920
 8401TIP3    H146694   4.216   6.786  16.535  2.4535 -0.1861  2.0000
 8401TIP3    H246695   4.147   6.743  16.662  2.5118 -2.3604  1.3380
 8402TIP3   OH246696   6.485   6.519  15.378 -0.1563 -0.3214 -0.1703
 8402TIP3    H146697   6.539   6.497  15.453  2.4898  0.7899 -1.6154
 8402TIP3    H246698   6.403   6.551  15.415 -0.6329 -3.6587  2.1009
 8403TIP3   OH246699   0.090   3.444   3.676 -0.5156  0.2426 -0.2295
 8403TIP3    H146700   0.052   3.381   3.614 -1.5536  1.0443 -0.4345
 8403TIP3    H246701   0.129   3.512   3.621  4.0007 -1.9261 -0.1801
 8404TIP3   OH246702   3.546   1.101  12.694 -0.2006  0.9587 -0.0886
 8404TIP3    H146703   3.597   1.027  12.660 -0.1609  1.2209 -0.6111
 8404TIP3    H246704   3.499   1.065  12.770  0.9008  0.7531  0.5214
 8405TIP3   OH246705   3.528   4.096   1.565 -0.7906 -0.7210 -0.3537
 8405TIP3    H146706   3.589   4.159   1.602  0.2043 -0.7624 -1.8170
 8405TIP3    H246707   3.479   4.146   1.500 -0.2415 -1.3398 -1.2694
 8406TIP3   OH246708   2.640   0.218  13.788  0.3160 -0.8062 -0.2962
 8406TIP3    H146709   2.683   0.261  13.715  1.2854 -1.7680 -0.3023
 8406TIP3    H246710   2.569   0.167  13.748 -0.8295  0.6985 -0.2923
 8407TIP3   OH246711   0.111   5.064  15.116  0.1685 -0.1709  0.1579
 8407TIP3    H146712   0.078   5.036  15.201  2.3027 -1.2020  0.7216
 8407TIP3    H246713   0.159   5.145  15.135 -0.4563  0.3219 -0.3232
 8408TIP3   OH246714   6.577   2.454  10.982 -0.0727  0.0299  0.3957
 8408TIP3    H146715   6.567   2.549  10.987 -1.9058 -0.1318  0.5837
 8408TIP3    H246716   6.563   2.424  11.072  1.4005 -0.3895  0.5223
 8409TIP3   OH246717   6.631   4.414  15.351 -0.0757 -0.3039  0.2379
 8409TIP3    H146718   6.718   4.438  15.318 -0.3348  0.9743  0.4330
 8409TIP3    H246719   6.609   4.334  15.303 -0.1766  1.1354 -2.2724
 8410TIP3   OH246720   2.791   2.377  10.955 -0.4180  0.0393 -0.5738
 8410TIP3    H146721   2.787   2.295  10.906  1.0836  0.4204 -1.3818
 8410TIP3    H246722   2.884   2.397  10.961 -0.5744  0.3871  1.8355
 8411TIP3   OH246723   2.853   1.583   6.369  0.0701  0.2309  0.2604
 8411TIP3    H146724   2.883   1.635   6.444  0.7841  0.6795 -0.3173
 8411TIP3    H246725   2.803   1.511   6.408  1.2859 -0.1254  1.2357
 8412TIP3   OH246726   1.615   3.443   5.859  0.1807 -0.0172 -0.5524
 8412TIP3    H146727   1.594   3.381   5.929  1.7110 -1.5152 -1.3346
 8412TIP3    H246728   1.548   3.428   5.793 -0.6290  0.6241  0.1047
 8413TIP3   OH246729   5.603   4.858   5.714  0.1295  0.1471 -0.0227
 8413TIP3    H146730   5.557   4.850   5.630 -1.6232 -2.6466  1.0520
 8413TIP3    H246731   5.674   4.920   5.697 -2.2333  2.4177 -2.5983
 8414TIP3   OH246732   2.807   6.648   6.466 -0.2209 -0.6422 -0.7859
 8414TIP3    H146733   2.816   6.582   6.534  0.4651 -0.3263 -0.5644
 8414TIP3    H246734   2.799   6.731   6.513 -0.1714 -0.4676 -1.0789
 8415TIP3   OH246735   1.335   5.352   6.410 -0.0320  0.3457  0.3139
 8415TIP3    H146736   1.430   5.366   6.411  0.2324 -1.1219 -0.4345
 8415TIP3    H246737   1.298   5.440   6.402  1.2725  0.9214  0.2648
 8416TIP3   OH246738   5.091   1.035   2.929  0.0125 -0.4885 -0.5929
 8416TIP3    H146739   5.107   1.020   3.022 -0.5304  3.0172  0.2211
 8416TIP3    H246740   5.177   1.033   2.889  0.5675  0.4961  0.4916
 8417TIP3   OH246741   3.227   5.411   5.717 -0.0349  0.3121 -0.2519
 8417TIP3    H146742   3.144   5.436   5.676 -0.9391 -0.2413  1.1214
 8417TIP3    H246743   3.261   5.341   5.661 -1.5219 -0.8272  0.1835
 8418TIP3   OH246744   0.814   1.994   2.959 -0.5217  0.2972 -0.3688
 8418TIP3    H146745   0.754   1.920   2.957 -0.4296  0.2172 -0.1010
 8418TIP3    H246746   0.757   2.071   2.952 -0.6372  0.2139 -0.3462
 8419TIP3   OH246747   2.519   6.707   3.254 -0.9429  0.0033 -0.8164
 8419TIP3    H146748   2.491   6.747   3.172 -1.2579  0.4254 -0.5114
 8419TIP3    H246749   2.513   6.778   3.318 -3.0156 -0.9092  0.0643
 8420TIP3   OH246750   6.089   0.179  16.377 -0.5765  0.3727 -0.2193
 8420TIP3    H146751   5.994   0.168  16.372 -0.8254  0.5940  2.3256
 8420TIP3    H246752   6.103   0.273  16.381 -0.2253  0.3495 -0.7807
 8421TIP3   OH246753   1.765   5.864  14.457  0.8723  0.4249 -0.2806
 8421TIP3    H146754   1.722   5.911  14.528  1.1399  0.0321  0.1515
 8421TIP3    H246755   1.761   5.924  14.383  0.8816  0.9801  0.1563
 8422TIP3   OH246756   6.015   5.822   4.580 -0.1544  0.0193  0.2344
 8422TIP3    H146757   6.017   5.816   4.676 -1.0404  1.3823  0.3598
 8422TIP3    H246758   6.086   5.882   4.558 -0.0068 -0.2255  0.0363
 8423TIP3   OH246759   6.131   2.004   2.926  0.1584 -0.0623 -0.1646
 8423TIP3    H146760   6.069   1.932   2.933 -0.8991  0.9017  0.8856
 8423TIP3    H246761   6.140   2.037   3.015 -2.1166  3.2548 -0.9431
 8424TIP3   OH246762   2.616   5.652  10.749  0.0465  0.0844  0.0219
 8424TIP3    H146763   2.585   5.593  10.681  0.3537 -0.7653  0.6098
 8424TIP3    H246764   2.704   5.621  10.770  0.8102  1.6457 -0.6917
 8425TIP3   OH246765   1.699   1.963   6.129  0.5035  0.1775 -0.0348
 8425TIP3    H146766   1.777   1.966   6.185  0.2871  2.2289  0.2461
 8425TIP3    H246767   1.733   1.958   6.040  1.0508  1.9167  0.0318
 8426TIP3   OH246768   2.892   4.966  15.276 -0.4871  0.6772 -0.2197
 8426TIP3    H146769   2.869   4.954  15.184 -2.1848 -2.8627  0.5114
 8426TIP3    H246770   2.920   4.880  15.306  3.5913  2.4028  1.8310
 8427TIP3   OH246771   6.096   2.532   6.240 -0.3737  0.7033  0.2536
 8427TIP3    H146772   6.091   2.492   6.152  1.1461  0.4398  0.2538
 8427TIP3    H246773   6.171   2.592   6.234 -0.1513  0.5533  1.4106
 8428TIP3   OH246774   4.393   5.009  14.216 -0.1319  0.5615 -0.1496
 8428TIP3    H146775   4.382   4.924  14.175 -2.4804  1.0961 -0.7513
 8428TIP3    H246776   4.467   5.049  14.169  0.3729 -0.7503 -0.5029
 8429TIP3   OH246777   0.512   0.601  12.822 -0.0460 -0.5703 -0.4952
 8429TIP3    H146778   0.597   0.630  12.855 -0.6457  0.9778 -0.2140
 8429TIP3    H246779   0.514   0.505  12.830  0.1502 -0.4010  3.3439
 8430TIP3   OH246780   3.913   1.488   1.047  0.0402 -0.0466 -0.5514
 8430TIP3    H146781   3.889   1.531   0.965 -0.2005 -1.3062 -1.1712
 8430TIP3    H246782   3.920   1.559   1.111 -1.5453  0.7855 -1.2382
 8431TIP3   OH246783   4.842   6.068   0.818  0.6221 -0.3716  0.1592
 8431TIP3    H146784   4.786   6.020   0.757 -0.3588  0.1534  0.6336
 8431TIP3    H246785   4.890   6.000   0.865 -0.4955 -0.8894  0.5871
 8432TIP3   OH246786   3.220   2.188   5.631  0.4860 -0.6584  0.3145
 8432TIP3    H146787   3.271   2.108   5.642 -2.7031 -2.6825  1.6737
 8432TIP3    H246788   3.169   2.173   5.551 -0.3801 -0.1328  0.7601
 8433TIP3   OH246789   1.466   4.448  15.992  0.2302 -0.0167 -0.1867
 8433TIP3    H146790   1.538   4.471  15.934 -1.2471  1.6519 -1.4749
 8433TIP3    H246791   1.476   4.507  16.067 -0.9519  1.7972 -1.3761
 8434TIP3   OH246792   4.848   6.158  16.646  0.9191 -0.0218  0.9735
 8434TIP3    H146793   4.874   6.248  16.626  2.1284 -0.5819 -0.1808
 8434TIP3    H246794   4.835   6.157  16.741 -0.0946  1.5861  0.8868
 8435TIP3   OH246795   4.614   2.095  13.527  0.5067 -0.1690 -0.4223
 8435TIP3    H146796   4.685   2.102  13.591 -0.4781  1.4461  0.5361
 8435TIP3    H246797   4.637   2.158  13.459  0.1489  0.1228 -0.2727
 8436TIP3   OH246798   3.907   5.609   1.497 -0.1496  0.6021 -0.0155
 8436TIP3    H146799   3.878   5.534   1.445  0.8589  0.1723  0.0224
 8436TIP3    H246800   3.927   5.573   1.583  1.5978  0.6480 -0.3721
 8437TIP3   OH246801   0.397   3.230   5.185  0.2554 -0.2616 -0.4095
 8437TIP3    H146802   0.329   3.171   5.216 -0.4365  0.2326 -0.9381
 8437TIP3    H246803   0.409   3.207   5.093 -0.5100  0.8521 -0.8041
 8438TIP3   OH246804   4.211   2.122   1.813 -0.1907  1.1252  0.6057
 8438TIP3    H146805   4.274   2.170   1.759 -0.1798 -0.0106 -0.4241
 8438TIP3    H246806   4.162   2.190   1.860  0.7003  2.0776  0.1825
 8439TIP3   OH246807   2.994   4.620  16.159 -0.7077  0.3236  0.1605
 8439TIP3    H146808   3.042   4.538  16.154 -0.5477  0.2292  2.3387
 8439TIP3    H246809   3.057   4.687  16.133 -1.1329 -0.2511 -2.6612
 8440TIP3   OH246810   5.919   2.181  12.488 -0.2579 -0.1067 -0.0274
 8440TIP3    H146811   5.950   2.192  12.578  0.2623  1.0041 -0.3295
 8440TIP3    H246812   5.982   2.229  12.435 -0.7562 -0.4593 -0.9581
 8441TIP3   OH246813   3.586   5.979  12.907 -0.1123 -0.5026  0.2215
 8441TIP3    H146814   3.507   6.027  12.930  0.4315  0.2885  0.4536
 8441TIP3    H246815   3.571   5.951  12.816  0.9850  3.1885 -1.2804
 8442TIP3   OH246816   1.681   3.456  13.355 -0.0648 -0.2066  0.2418
 8442TIP3    H146817   1.709   3.538  13.397  1.8158 -0.2122 -0.9199
 8442TIP3    H246818   1.754   3.396  13.369 -0.8493 -1.2673 -0.1211
 8443TIP3   OH246819   3.903   0.554   2.396  0.2672  0.2897  0.4463
 8443TIP3    H146820   3.947   0.500   2.461 -0.2916  1.2637  1.6805
 8443TIP3    H246821   3.973   0.605   2.355  0.5790 -0.0438  0.5639
 8444TIP3   OH246822   0.159   6.501  13.759 -0.2126  0.5279  0.4878
 8444TIP3    H146823   0.207   6.578  13.729  0.9160 -0.6480 -0.8966
 8444TIP3    H246824   0.105   6.476  13.684 -0.1609 -0.3267  0.7208
 8445TIP3   OH246825   5.335   1.549  15.031  0.6675 -0.2362  0.3881
 8445TIP3    H146826   5.349   1.465  14.987 -1.3769  0.2882 -1.4263
 8445TIP3    H246827   5.321   1.611  14.960  1.2356  1.4921  1.7298
 8446TIP3   OH246828   2.232   0.213   5.974  0.0432 -0.6255  0.2024
 8446TIP3    H146829   2.161   0.210   5.910  0.7805 -2.1248 -0.6013
 8446TIP3    H246830   2.278   0.294   5.956 -1.2972  0.2539  0.5796
 8447TIP3   OH246831   0.240   4.496   1.521  0.4572 -0.0312 -0.1873
 8447TIP3    H146832   0.175   4.492   1.452 -0.7488  0.8429  0.8505
 8447TIP3    H246833   0.218   4.423   1.579  1.4220 -0.7200 -0.6571
 8448TIP3   OH246834   0.335   5.047  15.357 -0.6566 -0.3996 -0.3731
 8448TIP3    H146835   0.413   5.036  15.412 -0.5158 -0.5615 -0.6064
 8448TIP3    H246836   0.306   4.958  15.339 -1.5590 -0.3429  0.6523
 8449TIP3   OH246837   0.816   5.342  16.768 -0.4454 -0.1395 -0.4000
 8449TIP3    H146838   0.904   5.323  16.800  0.0364 -1.3314 -2.2908
 8449TIP3    H246839   0.824   5.428  16.726 -0.3563  0.0405 -0.0229
 8450TIP3   OH246840   4.396   6.721   0.709 -0.2419  0.0867  0.1677
 8450TIP3    H146841   4.446   6.647   0.675 -0.0802  0.2129  0.1221
 8450TIP3    H246842   4.461   6.792   0.716  0.1865 -0.4416  2.5060
 8451TIP3   OH246843   6.472   2.477  11.718  0.3849  0.3646 -0.6967
 8451TIP3    H146844   6.504   2.392  11.687  0.0950 -0.0843  0.2046
 8451TIP3    H246845   6.376   2.469  11.712  0.2964  0.1027  0.6810
 8452TIP3   OH246846   2.377   1.895   4.410  0.6958  0.1401  0.4820
 8452TIP3    H146847   2.355   1.957   4.340  1.5685  0.1872  0.2276
 8452TIP3    H246848   2.473   1.896   4.413  0.7116 -0.9777  0.6848
 8453TIP3   OH246849   6.344   6.037   3.425  0.5998 -0.0885 -0.8516
 8453TIP3    H146850   6.275   6.009   3.365  1.5512 -0.4282 -1.8331
 8453TIP3    H246851   6.425   6.004   3.386  1.3434  0.4219  0.1833
 8454TIP3   OH246852   6.489   2.987  16.768  0.4475  0.7990  0.5443
 8454TIP3    H146853   6.519   2.914  16.822  0.2140  0.8039  0.6845
 8454TIP3    H246854   6.523   2.969  16.681  3.0270  2.0700  1.1799
 8455TIP3   OH246855   2.431   0.886   2.921  0.6669  0.5023 -0.0157
 8455TIP3    H146856   2.525   0.869   2.926  0.7093  1.0089  1.8144
 8455TIP3    H246857   2.411   0.934   3.002 -0.9360  1.5684 -0.9711
 8456TIP3   OH246858   5.701   2.344   1.299 -0.3558 -0.1222  0.1161
 8456TIP3    H146859   5.757   2.414   1.330  0.5797 -1.0526  0.5727
 8456TIP3    H246860   5.645   2.323   1.374  1.3847 -1.8458  1.0344
 8457TIP3   OH246861   4.789   0.670   0.141  0.0948 -0.0009 -0.0142
 8457TIP3    H146862   4.734   0.604   0.182  0.7537 -1.5271 -1.4861
 8457TIP3    H246863   4.823   0.628   0.062  2.6150  1.1881  0.3393
 8458TIP3   OH246864   3.328   4.021   1.043 -0.4633  0.3358 -0.1158
 8458TIP3    H146865   3.241   4.050   1.069 -0.7034 -0.0970 -0.4214
 8458TIP3    H246866   3.386   4.091   1.071 -1.1825  1.8407 -2.1505
 8459TIP3   OH246867   6.659   6.669  10.451  0.1196  0.3266  0.4160
 8459TIP3    H146868   6.724   6.601  10.470  0.4905  0.0907 -1.5185
 8459TIP3    H246869   6.582   6.621  10.421 -0.4442  0.6829  1.2455
 8460TIP3   OH246870   4.230   3.257  14.192 -0.1071  0.8366  0.4593
 8460TIP3    H146871   4.183   3.297  14.119 -0.0000  2.3582  1.1957
 8460TIP3    H246872   4.311   3.224  14.153 -0.6032  0.5056 -0.3295
 8461TIP3   OH246873   0.080   6.575  11.483 -0.4079 -0.6787  0.0205
 8461TIP3    H146874   0.120   6.524  11.413 -0.4926 -0.6785 -0.0284
 8461TIP3    H246875   0.069   6.512  11.554  1.1419 -0.3128  0.6151
 8462TIP3   OH246876   3.477   3.219   5.876 -0.5150  0.1470 -0.0389
 8462TIP3    H146877   3.449   3.308   5.897  1.2853  0.5385  0.9690
 8462TIP3    H246878   3.548   3.231   5.813 -1.0961 -0.6740 -0.8807
 8463TIP3   OH246879   5.832   1.849  16.927  0.0451 -0.4609 -0.9629
 8463TIP3    H146880   5.864   1.824  17.014  0.8721  1.0207 -0.8174
 8463TIP3    H246881   5.742   1.817  16.925  0.4122 -1.6398 -0.0559
 8464TIP3   OH246882   1.716   4.521   1.803  0.0965 -0.2902  0.6129
 8464TIP3    H146883   1.767   4.564   1.872 -1.7010  1.0878  1.1570
 8464TIP3    H246884   1.626   4.524   1.835 -0.5990 -0.9393 -1.1638
 8465TIP3   OH246885   1.032   3.204  15.315  0.6920 -0.5133 -0.2270
 8465TIP3    H146886   0.979   3.204  15.394  0.8835 -1.9699 -0.0636
 8465TIP3    H246887   1.123   3.204  15.347  0.7885  0.4689 -0.4786
 8466TIP3   OH246888   6.050   5.991  16.669  0.1460 -0.1427 -0.2287
 8466TIP3    H146889   6.056   5.904  16.709 -0.5116 -0.4772 -0.8373
 8466TIP3    H246890   5.985   5.981  16.599  2.5296 -0.0449 -2.6293
 8467TIP3   OH246891   0.178   1.795  12.801  0.0007  0.0382 -0.2568
 8467TIP3    H146892   0.158   1.766  12.712 -0.2019 -1.2004  0.1698
 8467TIP3    H246893   0.146   1.724  12.857 -1.2479  1.4457  0.9152
 8468TIP3   OH246894   4.762   5.948  12.585  0.8561  0.7989  0.0827
 8468TIP3    H146895   4.790   6.038  12.602  1.8993  0.3961  0.6064
 8468TIP3    H246896   4.800   5.898  12.657  1.3834 -0.2501 -0.8965
 8469TIP3   OH246897   0.844   5.003   3.622 -0.5284 -0.1411  0.3870
 8469TIP3    H146898   0.804   4.935   3.674 -1.9232  0.0840 -0.3606
 8469TIP3    H246899   0.938   4.998   3.643 -0.9060 -0.7968  2.0098
 8470TIP3   OH246900   6.249   5.853  14.199 -0.1162  0.4669 -0.3001
 8470TIP3    H146901   6.202   5.912  14.258  2.1376  1.3303  0.7894
 8470TIP3    H246902   6.288   5.912  14.134 -1.8289 -0.3897 -2.1929
 8471TIP3   OH246903   2.790   0.254   0.797  0.3564 -0.1626  0.1782
 8471TIP3    H146904   2.841   0.254   0.716 -0.8800 -1.6116 -0.6428
 8471TIP3    H246905   2.747   0.340   0.798 -1.6047 -1.0155 -2.0598
 8472TIP3   OH246906   4.389   3.103   5.637 -0.0991 -0.1181 -0.2364
 8472TIP3    H146907   4.341   3.021   5.630  0.0508 -0.2496  0.2440
 8472TIP3    H246908   4.429   3.114   5.551  1.6630 -1.6807  0.3094
 8473TIP3   OH246909   2.698   6.409  13.137  0.2340 -0.3600 -0.6045
 8473TIP3    H146910   2.724   6.434  13.049  1.8758 -0.7568 -0.2657
 8473TIP3    H246911   2.673   6.492  13.179 -0.8793 -0.2136 -1.5211
 8474TIP3   OH246912   3.819   1.374   0.785  0.2669 -0.1637  0.3847
 8474TIP3    H146913   3.745   1.367   0.845  0.0183  0.0660  0.1079
 8474TIP3    H246914   3.779   1.394   0.700  0.7392  1.5641  0.5412
 8475TIP3   OH246915   3.829   5.106   2.154 -0.1133 -0.4057  0.1382
 8475TIP3    H146916   3.901   5.046   2.175  0.0996 -0.4935 -0.7890
 8475TIP3    H246917   3.754   5.049   2.137  0.6502 -0.6431 -3.0540
 8476TIP3   OH246918   5.572   3.730   0.022  0.0708 -0.4739  0.3610
 8476TIP3    H146919   5.578   3.784   0.101  0.3238  0.0537 -0.0125
 8476TIP3    H246920   5.484   3.748  -0.012 -1.1265 -2.7644  1.9630
 8477TIP3   OH246921   3.875   1.901   2.505 -0.1299 -0.4770 -0.1089
 8477TIP3    H146922   3.879   1.895   2.410 -0.7513 -1.6032 -0.0854
 8477TIP3    H246923   3.954   1.857   2.536  0.2801  0.2493 -0.0997
 8478TIP3   OH246924   4.204   0.600  14.913 -0.1172  0.1395  0.0861
 8478TIP3    H146925   4.141   0.672  14.924 -1.4869 -0.8554 -0.8422
 8478TIP3    H246926   4.150   0.524  14.892  1.2380 -1.3211  1.5256
 8479TIP3   OH246927   3.960   6.004   1.028  0.1416  0.0650  0.3964
 8479TIP3    H146928   4.011   5.957   1.093  1.5790 -0.6096 -1.1457
 8479TIP3    H246929   3.961   5.947   0.950  3.1834  3.1077 -2.0931
 8480TIP3   OH246930   4.185   3.777  12.101 -0.0905 -0.3909 -0.0499
 8480TIP3    H146931   4.239   3.793  12.178  0.8462 -2.0998 -0.3019
 8480TIP3    H246932   4.239   3.806  12.027 -1.2585  1.9038 -0.0865
 8481TIP3   OH246933   4.085   3.441  13.095 -0.1487 -1.0250  0.7810
 8481TIP3    H146934   4.012   3.498  13.071 -1.0469 -2.3572  0.2356
 8481TIP3    H246935   4.139   3.495  13.152 -0.8299  0.4487  0.1029
 8482TIP3   OH246936   4.768   0.130   4.522  0.2078 -0.3548  0.3086
 8482TIP3    H146937   4.861   0.145   4.541  0.1220  0.2331  0.2678
 8482TIP3    H246938   4.744   0.199   4.461 -0.8230  0.8602  2.0098
 8483TIP3   OH246939   3.832   1.892   6.663 -0.3767 -0.5787  0.0494
 8483TIP3    H146940   3.788   1.809   6.643 -2.5217  0.5893 -0.4091
 8483TIP3    H246941   3.780   1.958   6.617  0.3869  1.1738  1.5861
 8484TIP3   OH246942   3.271   2.332  15.592 -0.0930 -0.2175 -0.6693
 8484TIP3    H146943   3.233   2.344  15.679  0.6002  0.8766 -0.5028
 8484TIP3    H246944   3.276   2.237  15.581 -0.3759 -0.3711  0.3924
 8485TIP3   OH246945   5.827   5.323   1.439  0.1004  0.2693 -0.1553
 8485TIP3    H146946   5.777   5.390   1.392 -1.5097  0.5218  1.7852
 8485TIP3    H246947   5.787   5.241   1.411 -1.2610  0.4515  1.1320
 8486TIP3   OH246948   3.578   0.288  15.461 -0.4263  0.5649 -0.7060
 8486TIP3    H146949   3.534   0.223  15.406 -1.3362 -0.2661  0.9367
 8486TIP3    H246950   3.579   0.249  15.548  2.7925  0.9666 -0.4463
 8487TIP3   OH246951   5.103   6.492  14.766 -0.6080 -0.3544  0.2331
 8487TIP3    H146952   5.154   6.477  14.846 -1.8211 -0.4955  1.0065
 8487TIP3    H246953   5.016   6.515  14.797 -1.2793 -1.0317 -1.0563
 8488TIP3   OH246954   4.299   2.052   6.216  0.4411 -0.1050 -0.1815
 8488TIP3    H146955   4.332   2.108   6.146  0.0905 -1.2107 -1.2815
 8488TIP3    H246956   4.367   1.985   6.226 -1.3324 -2.5317 -2.6189
 8489TIP3   OH246957   3.644   4.157   3.777  0.2331 -0.5704  0.2447
 8489TIP3    H146958   3.603   4.097   3.714  0.2065 -0.8394  0.5170
 8489TIP3    H246959   3.655   4.238   3.728 -0.9467 -0.3798  0.2678
 8490TIP3   OH246960   2.222   4.735   6.254 -0.8367  0.0621  0.4485
 8490TIP3    H146961   2.134   4.735   6.292 -0.6804  0.5943  0.8155
 8490TIP3    H246962   2.276   4.691   6.319 -1.0555 -1.4404 -0.3409
 8491TIP3   OH246963   3.344   1.499   5.168 -0.3124 -1.0124  0.4697
 8491TIP3    H146964   3.258   1.467   5.139 -0.5629 -0.3848  0.4852
 8491TIP3    H246965   3.404   1.426   5.153 -0.3089 -0.5592 -2.1949
 8492TIP3   OH246966   5.467   0.174   0.960 -0.2838 -0.6688  0.1018
 8492TIP3    H146967   5.382   0.144   0.926 -1.2331  1.4366  0.4716
 8492TIP3    H246968   5.445   0.244   1.021  1.4762 -3.0225  3.8109
 8493TIP3   OH246969   4.334   4.511   5.611  0.3794 -0.5139 -0.2354
 8493TIP3    H146970   4.352   4.419   5.597 -0.2393 -0.6611 -0.1170
 8493TIP3    H246971   4.406   4.557   5.568  1.3365 -1.0720  0.7536
 8494TIP3   OH246972   5.410   2.904   0.853 -0.3410  0.0514 -0.4103
 8494TIP3    H146973   5.409   2.825   0.908  0.7217  1.7921  2.3598
 8494TIP3    H246974   5.338   2.892   0.792 -0.9755 -2.5023  0.6999
 8495TIP3   OH246975   4.693   1.965  12.900 -0.1241 -0.8262  0.5896
 8495TIP3    H146976   4.629   1.988  12.832 -0.0349 -0.9951  0.4477
 8495TIP3    H246977   4.714   2.049  12.941  0.3441 -0.6179 -0.0548
 8496TIP3   OH246978   0.559   1.519   0.963 -0.8132  0.7743 -0.1408
 8496TIP3    H146979   0.526   1.444   1.013 -1.8567  0.0291 -1.8874
 8496TIP3    H246980   0.649   1.531   0.995 -0.4201 -1.5826 -0.2347
 8497TIP3   OH246981   4.803   2.701   4.300 -0.2617  0.3182  0.2083
 8497TIP3    H146982   4.771   2.661   4.381  0.1815 -1.9394 -0.6663
 8497TIP3    H246983   4.892   2.667   4.290 -0.6118 -0.1207 -1.6405
 8498TIP3   OH246984   0.758   3.670  12.517  0.8095 -0.2965  0.1800
 8498TIP3    H146985   0.818   3.721  12.463  0.1593  0.5721  0.2470
 8498TIP3    H246986   0.746   3.724  12.596 -1.5521  0.5321 -0.6450
 8499TIP3   OH246987   2.675   0.993   3.066  0.1469  0.0129 -0.2222
 8499TIP3    H146988   2.622   1.072   3.078  0.9862  0.5570 -0.0263
 8499TIP3    H246989   2.686   0.958   3.154  1.2812  0.6853 -0.0804
 8500TIP3   OH246990   5.852   2.220  13.717  0.7931 -0.1851  0.2465
 8500TIP3    H146991   5.810   2.148  13.765 -0.4165 -1.0572 -1.9509
 8500TIP3    H246992   5.932   2.238  13.766 -1.3398  0.5459  3.8498
 8501TIP3   OH246993   3.543   0.144  12.207  0.3964  0.2522  0.6485
 8501TIP3    H146994   3.628   0.139  12.163  0.5611  0.5617  0.9332
 8501TIP3    H246995   3.539   0.065  12.260 -0.5949 -1.1078 -1.3262
 8502TIP3   OH246996   0.811   2.357   2.816 -0.3272 -0.5360  0.4230
 8502TIP3    H146997   0.805   2.384   2.724 -0.3025 -0.5237  0.4252
 8502TIP3    H246998   0.900   2.326   2.826 -0.0322  0.3674  0.6902
 8503TIP3   OH246999   5.425   2.345   2.158 -0.1078 -0.0038 -0.7713
 8503TIP3    H147000   5.497   2.283   2.172  0.9754  1.2665 -0.5750
 8503TIP3    H247001   5.461   2.412   2.100 -1.1081  0.6918 -0.6130
 8504TIP3   OH247002   6.553   5.151  14.364  0.2258 -0.0810 -0.3206
 8504TIP3    H147003   6.512   5.216  14.421 -0.0268 -0.7999  0.3386
 8504TIP3    H247004   6.603   5.095  14.424  0.7840 -0.2437 -0.9262
 8505TIP3   OH247005   2.664   5.200   6.404  0.2182  0.2952 -0.3188
 8505TIP3    H147006   2.694   5.153   6.482 -1.1603  1.7053  1.1391
 8505TIP3    H247007   2.745   5.221   6.356  1.2990  1.1368  1.7603
 8506TIP3   OH247008   6.567   3.304  11.821 -0.7995  0.2928  0.1256
 8506TIP3    H147009   6.608   3.237  11.766  1.5150  3.0507 -1.8499
 8506TIP3    H247010   6.542   3.257  11.901  1.6521 -2.7004 -0.6366
 8507TIP3   OH247011   5.315   3.193  12.272  0.0145  0.2399  0.4651
 8507TIP3    H147012   5.367   3.114  12.259  1.8069  1.2342  1.1390
 8507TIP3    H247013   5.291   3.191  12.364  0.9214  0.9264  0.7358
 8508TIP3   OH247014   3.948   3.004  13.989 -0.3428  0.3929 -0.5333
 8508TIP3    H147015   4.002   2.933  13.954 -0.7087  0.3301 -0.9823
 8508TIP3    H247016   3.956   3.075  13.925  2.3486  1.8963  1.3121
 8509TIP3   OH247017   2.519   6.391  14.224  0.2986 -0.1349  0.1495
 8509TIP3    H147018   2.517   6.296  14.233  0.3396 -0.1175  0.3489
 8509TIP3    H247019   2.481   6.424  14.305  1.5175  0.0405  0.6770
 8510TIP3   OH247020   2.118   2.359  12.765 -0.2133 -0.4805  0.4665
 8510TIP3    H147021   2.192   2.403  12.808 -0.5102  0.8515 -0.3452
 8510TIP3    H247022   2.151   2.337  12.678 -1.3449  1.9662 -0.6678
 8511TIP3   OH247023   3.298   3.029   0.511  0.2227  0.7709 -0.1623
 8511TIP3    H147024   3.263   3.054   0.597  0.4471  0.1988  0.1019
 8511TIP3    H247025   3.380   2.983   0.531 -0.8617 -1.4694 -0.5093
 8512TIP3   OH247026   3.697   6.275  12.662 -0.8209  0.5666  0.1237
 8512TIP3    H147027   3.692   6.187  12.699 -0.2230  0.5108  0.0689
 8512TIP3    H247028   3.707   6.261  12.568 -1.0772  0.6979  0.0749
 8513TIP3   OH247029   1.637   1.500   1.145 -0.1890 -0.3927  0.1477
 8513TIP3    H147030   1.564   1.437   1.148 -1.8725  1.4236 -0.4970
 8513TIP3    H247031   1.686   1.476   1.066 -0.5784 -1.1125  0.1129
 8514TIP3   OH247032   4.860   2.221  12.132  0.0234 -0.5704  0.1095
 8514TIP3    H147033   4.904   2.264  12.059  2.0463 -1.0528  0.9620
 8514TIP3    H247034   4.847   2.291  12.196 -2.4654  0.0239 -0.9356
 8515TIP3   OH247035   3.047   4.239  14.217 -0.3224 -0.3299 -0.1226
 8515TIP3    H147036   3.075   4.329  14.233  0.3748 -0.6777  0.6490
 8515TIP3    H247037   2.960   4.248  14.178  0.4537  0.7276 -1.6864
 8516TIP3   OH247038   1.455   2.348  12.596  0.3405 -0.0863 -0.4284
 8516TIP3    H147039   1.522   2.365  12.530  0.7854 -1.9396 -0.5101
 8516TIP3    H247040   1.448   2.253  12.599 -1.4547  0.0286  0.4312
 8517TIP3   OH247041   2.632   3.525  12.387 -0.4529 -0.6562  0.0619
 8517TIP3    H147042   2.686   3.451  12.361  1.4123  0.1093  1.5307
 8517TIP3    H247043   2.682   3.602  12.359 -1.8974  0.0921 -0.5939
 8518TIP3   OH247044   2.220   4.248   3.099 -0.0610  0.2329 -0.4913
 8518TIP3    H147045   2.244   4.326   3.150  0.8269 -0.2597 -0.1313
 8518TIP3    H247046   2.236   4.273   3.008 -2.3006  1.3574 -0.6591
 8519TIP3   OH247047   0.334   4.671  15.941 -0.5244  0.1953 -0.6838
 8519TIP3    H147048   0.268   4.618  15.896  0.5805 -0.9907 -0.9800
 8519TIP3    H247049   0.414   4.658  15.890  0.6804 -0.9054  1.3715
 8520TIP3   OH247050   5.448   1.031   5.297  0.3324 -0.1094 -0.6331
 8520TIP3    H147051   5.451   1.110   5.351  1.2612 -1.0725  0.7869
 8520TIP3    H247052   5.383   0.975   5.340 -0.5852 -0.0123 -1.8364
 8521TIP3   OH247053   0.883   6.184  12.749  0.5906  0.1262  0.4935
 8521TIP3    H147054   0.920   6.133  12.677 -0.2259 -0.8586  0.7515
 8521TIP3    H247055   0.921   6.147  12.828 -0.3315 -0.3946  0.7105
 8522TIP3   OH247056   6.099   3.509  11.582  0.5349  0.3221  0.3241
 8522TIP3    H147057   6.077   3.420  11.554 -1.8919  0.0608  2.6371
 8522TIP3    H247058   6.165   3.497  11.650  0.0666  0.2394  0.7728
 8523TIP3   OH247059   0.535   2.289   6.106 -0.2575  0.0546 -0.3294
 8523TIP3    H147060   0.588   2.369   6.109 -0.1002 -0.0693  0.2709
 8523TIP3    H247061   0.519   2.268   6.198  0.3011 -1.0119 -0.4636
 8524TIP3   OH247062   2.562   1.775   5.024  0.6179 -0.2480  0.1382
 8524TIP3    H147063   2.540   1.682   5.032  0.9925 -0.4699 -1.1110
 8524TIP3    H247064   2.498   1.820   5.079  1.0302 -1.3042  1.5232
 8525TIP3   OH247065   3.810   5.520   6.302  0.0474 -0.2780  0.0195
 8525TIP3    H147066   3.762   5.602   6.291  0.2850 -0.0526  0.6028
 8525TIP3    H247067   3.899   5.547   6.327 -0.2981 -0.7028  1.9198
 8526TIP3   OH247068   3.933   0.659  13.355 -0.4178 -0.1268  0.2144
 8526TIP3    H147069   4.016   0.661  13.307  0.0048 -1.7315  0.8252
 8526TIP3    H247070   3.869   0.695  13.293  1.0367  3.2927  0.5117
 8527TIP3   OH247071   6.316   3.646  11.044  0.0534 -0.5156 -0.3284
 8527TIP3    H147072   6.303   3.573  11.103 -2.1601 -0.1730 -0.3186
 8527TIP3    H247073   6.322   3.723  11.101  1.7162 -0.5796 -0.3750
 8528TIP3   OH247074   3.143   6.178  14.738  0.0695  0.4872 -0.2610
 8528TIP3    H147075   3.208   6.224  14.684 -1.2050  1.1628 -1.2851
 8528TIP3    H247076   3.180   6.091  14.752 -0.2241 -0.2730 -3.5760
 8529TIP3   OH247077   2.412   4.715  11.828 -0.6424  0.0964  0.2423
 8529TIP3    H147078   2.424   4.676  11.741 -1.7051 -1.7380  0.8413
 8529TIP3    H247079   2.351   4.655  11.872 -0.0608  0.9236  2.2873
 8530TIP3   OH247080   5.874   1.673   0.672  0.1988 -0.4214 -0.1843
 8530TIP3    H147081   5.927   1.751   0.653  1.3244 -1.5989 -2.2641
 8530TIP3    H247082   5.784   1.705   0.675  0.7981  1.3133  1.4231
 8531TIP3   OH247083   6.515   1.523   5.029  0.0359 -0.6032 -0.8304
 8531TIP3    H147084   6.517   1.427   5.032 -0.2619 -0.6302 -1.3387
 8531TIP3    H247085   6.555   1.551   5.111 -0.1091 -1.1639 -0.5685
 8532TIP3   OH247086   6.447   3.900  15.120 -0.0813  0.0896 -1.1687
 8532TIP3    H147087   6.503   3.896  15.043  0.7974 -0.4859 -0.5230
 8532TIP3    H247088   6.457   3.989  15.153 -1.5110  0.7661 -2.4526
 8533TIP3   OH247089   0.680   1.119   2.060 -0.4992 -0.4127 -0.4102
 8533TIP3    H147090   0.773   1.117   2.041  0.0158 -0.5387  1.8265
 8533TIP3    H247091   0.672   1.178   2.135 -2.3444  0.2353 -1.0342
 8534TIP3   OH247092   0.922   2.082  12.179  0.2906 -0.3314 -0.3602
 8534TIP3    H147093   0.993   2.141  12.205  0.2828 -0.7187  0.5471
 8534TIP3    H247094   0.842   2.133  12.192  0.2194 -0.8286  1.2978
 8535TIP3   OH247095   5.469   4.962   1.863  0.6233 -0.1605  0.1864
 8535TIP3    H147096   5.399   4.918   1.814  0.6615 -2.1991  1.8107
 8535TIP3    H247097   5.424   5.019   1.924  0.3727 -0.7969  0.6140
 8536TIP3   OH247098   5.420   3.049  16.823  0.2432  0.1395 -0.4405
 8536TIP3    H147099   5.434   3.114  16.754  0.4789 -1.8606 -2.4035
 8536TIP3    H247100   5.354   2.989  16.786  0.2949 -0.9362  1.1258
 8537TIP3   OH247101   1.118   5.844   6.764  0.0372 -0.3845  0.4006
 8537TIP3    H147102   1.064   5.769   6.740 -1.5028  1.0229 -0.7353
 8537TIP3    H247103   1.088   5.915   6.707  0.2347  1.5833  2.5779
 8538TIP3   OH247104   6.162   1.977  12.251 -0.2199 -0.1157 -0.2149
 8538TIP3    H147105   6.125   2.063  12.273 -1.7395  0.0385 -2.8683
 8538TIP3    H247106   6.088   1.927  12.218  1.1607 -1.3651 -1.5777
 8539TIP3   OH247107   2.967   4.809   3.592 -0.1444 -0.5030  0.1612
 8539TIP3    H147108   2.936   4.896   3.568  0.4219  0.5726  2.9729
 8539TIP3    H247109   3.062   4.819   3.602 -0.2414 -1.0600  1.8611
 8540TIP3   OH247110   1.945   4.381   5.645 -0.3452  0.1566  0.1991
 8540TIP3    H147111   1.898   4.413   5.721 -0.2208  0.2291  0.2462
 8540TIP3    H247112   1.946   4.286   5.656  1.8340  0.2676  1.6133
 8541TIP3   OH247113   1.115   1.536   3.408  0.4301  0.1873  0.0657
 8541TIP3    H147114   1.045   1.490   3.360 -0.3964  0.2133  1.2144
 8541TIP3    H247115   1.072   1.570   3.486  1.8051 -0.0360  0.9444
 8542TIP3   OH247116   4.364   0.840  12.182  0.3315 -0.0802 -0.2030
 8542TIP3    H147117   4.283   0.798  12.210 -1.2611  0.1561 -3.8391
 8542TIP3    H247118   4.335   0.919  12.135  2.7183  0.4380 -0.9278
 8543TIP3   OH247119   3.152   0.297  13.678  0.5875  0.1235 -0.1864
 8543TIP3    H147120   3.152   0.245  13.758  1.7756  0.5306  0.0951
 8543TIP3    H247121   3.235   0.276  13.635  0.4516  0.7290 -0.7669
 8544TIP3   OH247122   0.200   4.894  11.949  0.3136 -0.4668  0.0695
 8544TIP3    H147123   0.162   4.842  11.878  1.1527 -0.6972 -0.2191
 8544TIP3    H247124   0.269   4.839  11.985 -0.2729 -0.4679  1.2558
 8545TIP3   OH247125   2.170   0.558  12.186 -0.2969 -0.3112  0.2440
 8545TIP3    H147126   2.227   0.540  12.261 -0.4516  0.6002  0.5958
 8545TIP3    H247127   2.095   0.500  12.198 -0.8743  0.6470  1.4385
 8546TIP3   OH247128   2.172   2.894  16.143 -0.0662  0.2569  0.4070
 8546TIP3    H147129   2.256   2.941  16.137 -0.2384  0.7317  1.4935
 8546TIP3    H247130   2.135   2.922  16.227 -0.0857 -1.9824  1.1994
 8547TIP3   OH247131   0.823   2.204   0.070 -0.8542  1.0419 -0.0905
 8547TIP3    H147132   0.763   2.278   0.084 -2.1869 -0.4692  3.2298
 8547TIP3    H247133   0.765   2.129   0.057  0.4118  0.1227 -0.5940
 8548TIP3   OH247134   2.648   0.631  12.878  0.0637 -0.0642 -0.0159
 8548TIP3    H147135   2.573   0.678  12.913  1.6293  2.3818  0.2929
 8548TIP3    H247136   2.668   0.565  12.945 -2.1397 -1.2103 -0.4169
 8549TIP3   OH247137   4.484   5.459   2.284 -0.2301 -0.3259  0.0650
 8549TIP3    H147138   4.441   5.532   2.238 -0.9906 -0.1062  1.0782
 8549TIP3    H247139   4.487   5.487   2.375 -0.7358 -1.6545  0.5150
 8550TIP3   OH247140   4.383   5.411  15.802 -0.3179 -0.6844 -0.3219
 8550TIP3    H147141   4.383   5.402  15.706 -2.4513  0.0957 -0.4526
 8550TIP3    H247142   4.295   5.384  15.828 -0.9054  2.2264  1.0381
 8551TIP3   OH247143   1.127   3.587  12.506  0.7343  0.1101  0.3979
 8551TIP3    H147144   1.185   3.619  12.575  2.3578  0.1208 -0.9113
 8551TIP3    H247145   1.124   3.492  12.520  0.6394  0.1666  0.7781
 8552TIP3   OH247146   5.824   4.132   6.489  0.2296  0.4868 -0.0676
 8552TIP3    H147147   5.800   4.217   6.452  2.3999  1.3156  0.2952
 8552TIP3    H247148   5.886   4.153   6.559  1.3213 -1.4229 -0.4037
 8553TIP3   OH247149   3.274   0.199   5.494  0.6240  0.2552 -0.1805
 8553TIP3    H147150   3.261   0.130   5.428 -0.2836  0.7679 -0.5523
 8553TIP3    H247151   3.277   0.151   5.577  2.4008 -0.4596 -0.6181
 8554TIP3   OH247152   1.337   3.048   3.104  0.2030 -0.0254 -0.3144
 8554TIP3    H147153   1.350   3.111   3.033  2.2327  0.4362  0.3914
 8554TIP3    H247154   1.407   2.984   3.092  1.0303  0.4507  1.6471
 8555TIP3   OH247155   0.573   1.199  13.537  0.1131 -0.1909  0.3068
 8555TIP3    H147156   0.613   1.150  13.465 -0.8327  0.7856 -0.9280
 8555TIP3    H247157   0.620   1.169  13.615  1.4958 -0.9316 -0.7572
 8556TIP3   OH247158   1.423   4.271  16.627 -0.6008  0.6299 -0.2509
 8556TIP3    H147159   1.454   4.361  16.618  0.8608  0.2378  0.5356
 8556TIP3    H247160   1.415   4.258  16.721  1.4324 -0.7438 -0.2166
 8557TIP3   OH247161   0.090   6.677   4.532  0.3816 -0.0039  0.3180
 8557TIP3    H147162   0.082   6.595   4.582 -0.7228  0.7344  1.3962
 8557TIP3    H247163   0.057   6.655   4.445 -1.7209 -0.2524  1.1374
 8558TIP3   OH247164   3.885   3.805  14.987  0.1209  0.4040 -0.0727
 8558TIP3    H147165   3.869   3.784  15.078  0.1147 -0.0562 -0.1799
 8558TIP3    H247166   3.929   3.728  14.951 -0.2263  0.4228 -0.5504
 8559TIP3   OH247167   2.137   5.406  15.351  0.8252 -0.0256  0.8592
 8559TIP3    H147168   2.108   5.432  15.439  0.1782  1.2290  0.2942
 8559TIP3    H247169   2.195   5.477  15.323 -0.5737  0.6173 -0.5284
 8560TIP3   OH247170   0.534   1.872   1.071 -0.3004 -0.0635 -0.2354
 8560TIP3    H147171   0.590   1.867   1.149  1.7203 -2.0659 -1.6761
 8560TIP3    H247172   0.448   1.844   1.102  0.0928  0.5134  1.5423
 8561TIP3   OH247173   1.876   2.662  11.365  0.1051  0.5491  0.0059
 8561TIP3    H147174   1.892   2.687  11.274 -0.8876  1.6232  0.0919
 8561TIP3    H247175   1.836   2.575  11.360  0.5755  0.3614 -0.5442
 8562TIP3   OH247176   4.816   4.765   1.239 -0.7897  0.2351  0.0998
 8562TIP3    H147177   4.733   4.800   1.272 -2.1002 -1.3069 -1.3774
 8562TIP3    H247178   4.831   4.688   1.294 -0.4520  0.3790  0.2083
 8563TIP3   OH247179   0.594   5.697   1.561 -0.0004  0.1768  0.1011
 8563TIP3    H147180   0.689   5.707   1.562  0.1402 -0.9925 -0.1761
 8563TIP3    H247181   0.571   5.678   1.652  0.2652 -1.3124 -0.1128
 8564TIP3   OH247182   5.535   4.414   4.214  0.0478  0.4340  0.4587
 8564TIP3    H147183   5.468   4.471   4.177  1.3074  1.1091 -0.8990
 8564TIP3    H247184   5.618   4.455   4.188  1.0355  0.1976  2.9258
 8565TIP3   OH247185   6.096   3.129   0.063 -0.3682  0.0018  0.0919
 8565TIP3    H147186   6.117   3.124  -0.030 -1.9246  2.4853 -0.5143
 8565TIP3    H247187   6.004   3.105   0.068 -0.2937 -0.1208  0.9846
 8566TIP3   OH247188   2.818   3.854   2.855  0.2538  0.2127  0.3345
 8566TIP3    H147189   2.823   3.771   2.903 -0.4910  0.1722  0.3559
 8566TIP3    H247190   2.818   3.921   2.923  2.1571  0.3321  0.2928
 8567TIP3   OH247191   5.004   1.351   3.106  0.4992 -0.2894 -0.5198
 8567TIP3    H147192   5.023   1.302   3.186 -2.8581 -1.7312 -0.4392
 8567TIP3    H247193   4.950   1.424   3.134 -0.8986 -0.9363 -1.4342
 8568TIP3   OH247194   1.871   5.286  12.713 -0.1775  0.5388  0.0433
 8568TIP3    H147195   1.890   5.227  12.786  0.1372  0.7607  0.1412
 8568TIP3    H247196   1.891   5.234  12.635  1.4931  0.9744  0.1465
 8569TIP3   OH247197   6.267   4.468   5.710  0.3951  0.2347  0.5202
 8569TIP3    H147198   6.211   4.502   5.780  0.2372  0.7132  0.1572
 8569TIP3    H247199   6.320   4.401   5.754 -1.6294 -1.4711  0.5208
 8570TIP3   OH247200   6.139   1.514   2.128 -0.2872 -0.5407  0.3579
 8570TIP3    H147201   6.145   1.596   2.080  0.9896  0.3119  1.8622
 8570TIP3    H247202   6.156   1.538   2.219 -1.5028 -2.2445  1.0954
 8571TIP3   OH247203   5.180   1.649   4.276  0.1759 -0.0032  0.2944
 8571TIP3    H147204   5.133   1.678   4.198  0.5720  1.0981  0.4554
 8571TIP3    H247205   5.147   1.705   4.346  2.1001  1.1884  0.3137
 8572TIP3   OH247206   1.336   1.649  16.176 -0.1095 -0.4252 -0.1621
 8572TIP3    H147207   1.430   1.662  16.189 -0.2380 -1.7042  2.6594
 8572TIP3    H247208   1.295   1.714  16.232 -0.8549 -1.6536  0.7601
 8573TIP3   OH247209   1.099   2.271  14.486 -0.0593 -0.6082  0.0608
 8573TIP3    H147210   1.045   2.295  14.561  0.1084  0.7581 -0.2392
 8573TIP3    H247211   1.175   2.228  14.525 -0.5424 -1.0172  0.5831
 8574TIP3   OH247212   5.248   4.823   4.133 -0.2561 -0.4916 -0.1459
 8574TIP3    H147213   5.281   4.903   4.174 -0.6406 -0.7828  0.7633
 8574TIP3    H247214   5.196   4.853   4.059  0.2277  0.0595 -0.2716
 8575TIP3   OH247215   5.846   3.402  11.315 -0.3982  0.1051  0.0212
 8575TIP3    H147216   5.756   3.433  11.323  0.0780  1.2580  1.2560
 8575TIP3    H247217   5.895   3.478  11.283  0.3285 -0.1599  0.4631
 8576TIP3   OH247218   2.942   1.689  12.355 -0.4896  0.4567  0.6324
 8576TIP3    H147219   2.900   1.681  12.440 -0.5093 -0.5551  0.5354
 8576TIP3    H247220   3.010   1.622  12.354 -1.6295 -0.7424 -0.7956
 8577TIP3   OH247221   3.177   0.774  13.127 -0.1905  0.1645  0.5138
 8577TIP3    H147222   3.174   0.772  13.223  0.0881  0.4207  0.5287
 8577TIP3    H247223   3.239   0.844  13.106  0.5528 -0.5871  0.1535
 8578TIP3   OH247224   6.095   0.088  12.305 -0.1699 -0.7853 -0.1334
 8578TIP3    H147225   6.180   0.072  12.265  0.5237  0.6365  0.6815
 8578TIP3    H247226   6.039   0.117  12.233  1.0849  1.8730 -0.1408
 8579TIP3   OH247227   2.175   3.364  14.473 -0.0905 -0.0122  0.4631
 8579TIP3    H147228   2.140   3.368  14.562 -2.2396 -1.2178 -0.2668
 8579TIP3    H247229   2.180   3.271  14.453 -0.8662  0.2625 -1.1188
 8580TIP3   OH247230   2.017   1.211  16.390 -0.0411 -0.0287  0.2146
 8580TIP3    H147231   2.043   1.283  16.448 -0.8107  1.5809 -1.3425
 8580TIP3    H247232   2.075   1.218  16.315 -0.5031 -0.6727 -0.2181
 8581TIP3   OH247233   6.253   5.737  14.950  0.0726 -0.1639  0.3122
 8581TIP3    H147234   6.229   5.689  14.872  0.6391 -0.9636  0.6188
 8581TIP3    H247235   6.175   5.731  15.007 -1.1433  2.1846 -0.9661
 8582TIP3   OH247236   2.076   4.186   6.994 -0.2434 -0.0148  0.7272
 8582TIP3    H147237   2.106   4.104   6.956  0.9847 -0.2804  2.1568
 8582TIP3    H247238   1.983   4.191   6.971 -0.0358 -1.1426 -0.4807
 8583TIP3   OH247239   4.406   1.818  16.172 -0.4829 -0.3016 -0.3916
 8583TIP3    H147240   4.493   1.829  16.135  0.2050  0.1529  1.2649
 8583TIP3    H247241   4.365   1.749  16.119  0.6427 -0.0914 -1.5714
 8584TIP3   OH247242   0.059   3.428   6.035 -0.0733 -0.1845  0.1601
 8584TIP3    H147243  -0.034   3.408   6.037 -0.4863  1.3904  2.9864
 8584TIP3    H247244   0.095   3.385   6.112  1.3293  0.0641 -0.3201
 8585TIP3   OH247245   3.687   2.644   2.038 -0.4099 -0.1603  0.0467
 8585TIP3    H147246   3.737   2.591   2.099 -3.8611 -1.0063  2.4902
 8585TIP3    H247247   3.685   2.593   1.957 -0.4144 -1.8980  1.0888
 8586TIP3   OH247248   6.447   1.961   2.956 -0.0268 -0.2189 -0.5022
 8586TIP3    H147249   6.372   1.963   3.015  0.0311 -0.1102 -0.4310
 8586TIP3    H247250   6.439   1.879   2.908  0.3565 -0.6958  0.2269
 8587TIP3   OH247251   6.535   0.784   2.536  0.3140 -0.4436  0.2657
 8587TIP3    H147252   6.445   0.816   2.533  0.9720  1.4927 -0.1447
 8587TIP3    H247253   6.548   0.740   2.452 -0.3432 -1.0328  0.4697
 8588TIP3   OH247254   6.468   6.284  11.209 -0.3106 -0.2089 -0.1043
 8588TIP3    H147255   6.560   6.307  11.199  0.2150 -1.3716  1.6412
 8588TIP3    H247256   6.469   6.205  11.263 -2.3152 -0.5123 -0.4438
 8589TIP3   OH247257   3.763   5.001   5.090 -0.6932  0.0104  0.0512
 8589TIP3    H147258   3.802   4.998   5.178  1.9659 -0.1851 -1.0462
 8589TIP3    H247259   3.807   5.075   5.047 -2.0618  0.2010 -1.1004
 8590TIP3   OH247260   3.046   4.041   3.757 -0.1477 -0.0851 -0.2574
 8590TIP3    H147261   3.139   4.031   3.777 -0.1576  0.0894 -0.1274
 8590TIP3    H247262   3.034   3.990   3.677 -0.2680 -1.3963  0.5743
 8591TIP3   OH247263   3.027   2.480  15.363  0.0133  0.1084  0.5005
 8591TIP3    H147264   3.093   2.520  15.306 -0.4521 -0.3012 -0.3501
 8591TIP3    H247265   3.016   2.542  15.435 -0.9091  1.6833 -0.9190
 8592TIP3   OH247266   0.670   2.758  17.494  0.0440 -0.2644 -0.0977
 8592TIP3    H147267   0.718   2.684  17.531 -2.2186 -2.3212 -0.9725
 8592TIP3    H247268   0.587   2.759  17.541 -0.6687  0.5776 -1.3062
 8593TIP3   OH247269   5.265   4.843  12.022  0.2442  0.5454  0.4516
 8593TIP3    H147270   5.359   4.841  12.004  0.6146 -2.6878  1.9233
 8593TIP3    H247271   5.225   4.870  11.940  2.3743 -0.3360 -0.9580
 8594TIP3   OH247272   3.625   5.348  17.128 -0.3559  0.1411 -0.4933
 8594TIP3    H147273   3.592   5.401  17.201 -1.1317  1.2300 -1.6014
 8594TIP3    H247274   3.646   5.412  17.060 -2.1521 -1.0004 -2.2155
 8595TIP3   OH247275   6.678   6.699  15.178  0.2525  0.1893  0.2768
 8595TIP3    H147276   6.619   6.691  15.253  1.7985  0.3667  1.5744
 8595TIP3    H247277   6.713   6.788  15.185 -0.0930  0.4473 -1.0714
 8596TIP3   OH247278   3.868   0.429   2.008 -0.2836  0.0625  0.0111
 8596TIP3    H147279   3.953   0.407   1.971 -1.1968 -1.2389 -1.4256
 8596TIP3    H247280   3.870   0.524   2.019  1.2944  0.0590 -0.1082
 8597TIP3   OH247281   1.290   2.752   5.064  0.5013  0.4471  0.4767
 8597TIP3    H147282   1.286   2.700   5.145 -1.5674  0.6628  0.5736
 8597TIP3    H247283   1.306   2.687   4.995  1.1076  0.1031  0.9288
 8598TIP3   OH247284   0.986   1.918  13.293  0.3037 -0.3781 -0.5854
 8598TIP3    H147285   1.029   1.942  13.211  1.5878  0.0037  0.1733
 8598TIP3    H247286   1.007   1.989  13.353  0.9020 -1.4994  0.5895
 8599TIP3   OH247287   4.583   1.527  13.501  0.2998 -0.5093  0.0882
 8599TIP3    H147288   4.586   1.618  13.471 -0.8974 -0.7580 -0.8296
 8599TIP3    H247289   4.612   1.531  13.593  0.8626  0.6997 -0.1226
 8600TIP3   OH247290   0.193   2.680   4.306 -0.3317  0.5009  0.2227
 8600TIP3    H147291   0.161   2.696   4.217  0.1835  0.0202 -0.0534
 8600TIP3    H247292   0.186   2.765   4.350  1.0291  1.1684 -0.7917
 8601TIP3   OH247293   1.071   2.996   3.351 -0.2399 -0.0335  0.2588
 8601TIP3    H147294   0.984   3.018   3.319 -1.2039 -0.5964  2.3206
 8601TIP3    H247295   1.122   3.076   3.340 -1.8249  1.2089  1.5483
 8602TIP3   OH247296   1.826   1.744  12.789 -0.4304 -0.2002  0.1952
 8602TIP3    H147297   1.778   1.661  12.795 -0.5348 -0.1160  0.5228
 8602TIP3    H247298   1.880   1.746  12.868 -0.1160 -0.1492 -0.0196
 8603TIP3   OH247299   5.659   3.830   5.343 -0.2375 -0.0639 -0.6616
 8603TIP3    H147300   5.634   3.908   5.392 -0.5742  1.3681 -2.9715
 8603TIP3    H247301   5.751   3.845   5.321 -0.2802 -0.3584 -1.0458
 8604TIP3   OH247302   5.224   5.704  15.783  0.1239 -0.0529 -0.3699
 8604TIP3    H147303   5.185   5.753  15.711  0.2343  0.2642 -0.2147
 8604TIP3    H247304   5.160   5.636  15.802 -0.1048  0.1285 -0.4819
 8605TIP3   OH247305   2.743   3.307  12.976 -0.0404 -0.0443 -0.8892
 8605TIP3    H147306   2.688   3.384  12.963  0.5756  0.0870 -3.0401
 8605TIP3    H247307   2.692   3.234  12.940 -0.6143 -0.6987  1.1186
 8606TIP3   OH247308   1.384   2.577  14.384  0.1490  0.2528 -0.8465
 8606TIP3    H147309   1.326   2.617  14.319 -0.8163 -0.1364 -0.2392
 8606TIP3    H247310   1.367   2.483  14.377 -0.9046  0.2747  0.7933
 8607TIP3   OH247311   2.910   2.798  17.050  0.5733  0.0931  0.2347
 8607TIP3    H147312   3.003   2.773  17.051  0.8392  1.0434  1.9342
 8607TIP3    H247313   2.864   2.721  17.085  0.7751 -0.1375 -0.0015
 8608TIP3   OH247314   4.942   0.111  12.135 -0.0826  0.5133  0.2050
 8608TIP3    H147315   4.988   0.118  12.219 -2.7803 -0.1652  1.8877
 8608TIP3    H247316   4.890   0.031  12.143 -0.7801  0.7009 -1.9551
 8609TIP3   OH247317   4.342   4.813  13.151  0.0302 -0.1600  0.0774
 8609TIP3    H147318   4.278   4.785  13.086  0.0200  0.2798 -0.1083
 8609TIP3    H247319   4.425   4.776  13.122  0.2179  0.8819 -0.7555
 8610TIP3   OH247320   0.743   1.810   2.007 -0.5069  0.2835 -0.4403
 8610TIP3    H147321   0.739   1.829   1.914  2.4758 -2.1785 -1.2451
 8610TIP3    H247322   0.811   1.868   2.041 -1.9439  1.5521  0.4198
 8611TIP3   OH247323   6.069   0.678  15.375 -0.3195 -0.0565  0.4905
 8611TIP3    H147324   6.106   0.626  15.446  0.7595  0.3622  0.2592
 8611TIP3    H247325   6.056   0.765  15.412 -2.2990 -0.4897  0.9327
 8612TIP3   OH247326   3.430   3.347   0.783  0.6684  0.6476  0.2909
 8612TIP3    H147327   3.394   3.266   0.819 -2.4036  1.9900  0.5571
 8612TIP3    H247328   3.447   3.402   0.860  1.8181  0.6210  0.0661
 8613TIP3   OH247329   6.526   3.918   0.611  0.2771 -0.2627 -0.2189
 8613TIP3    H147330   6.454   3.885   0.557 -0.1101 -0.8024  0.6175
 8613TIP3    H247331   6.591   3.848   0.610  0.5653  0.0052 -0.5312
 8614TIP3   OH247332   2.149   4.528  13.869  0.6572  0.2830  0.2496
 8614TIP3    H147333   2.132   4.560  13.781  2.2266 -1.9838 -1.0084
 8614TIP3    H247334   2.170   4.606  13.920 -1.0649  1.7266 -1.1475
 8615TIP3   OH247335   3.622   3.168  13.950  0.1718  0.7828  0.0502
 8615TIP3    H147336   3.707   3.208  13.970  1.0055 -1.4744  1.4439
 8615TIP3    H247337   3.558   3.236  13.972  1.5362  1.7547  1.2128
 8616TIP3   OH247338   0.671   0.688  13.652 -0.3338 -0.1970  0.0077
 8616TIP3    H147339   0.661   0.766  13.597 -0.7879  2.3532  3.3758
 8616TIP3    H247340   0.756   0.700  13.695 -0.4652 -1.5306  0.6818
 8617TIP3   OH247341   3.487   1.049  13.387 -0.9001 -0.3511 -0.4118
 8617TIP3    H147342   3.573   1.007  13.389 -1.2941 -1.1582  0.7028
 8617TIP3    H247343   3.504   1.141  13.404 -0.2327 -0.4413 -0.5566
 8618TIP3   OH247344   5.536   3.325   5.417 -0.1520 -0.0834 -0.1375
 8618TIP3    H147345   5.451   3.345   5.456  0.9313  1.5172  1.5851
 8618TIP3    H247346   5.545   3.230   5.427 -1.2803 -0.1357  0.6215
 8619TIP3   OH247347   0.385   6.517  12.505  0.3440 -0.4065 -0.0636
 8619TIP3    H147348   0.449   6.468  12.454 -1.2611 -0.3913 -2.2485
 8619TIP3    H247349   0.401   6.609  12.483  0.2559 -0.3254  0.2037
 8620TIP3   OH247350   2.768   2.464  15.319 -0.2854  0.2545 -0.8695
 8620TIP3    H147351   2.862   2.478  15.330 -0.3517  1.5051 -1.6046
 8620TIP3    H247352   2.728   2.506  15.395 -0.2072 -1.6402  0.2689
 8621TIP3   OH247353   1.534   6.667   4.061 -0.4883 -0.5974 -0.1208
 8621TIP3    H147354   1.573   6.728   4.124 -0.6898  0.4982 -1.0349
 8621TIP3    H247355   1.461   6.715   4.022 -1.1348 -1.6973 -0.3218
 8622TIP3   OH247356   6.623   4.458   5.128 -0.0769 -0.2191  0.0191
 8622TIP3    H147357   6.624   4.537   5.074  0.3809 -0.8760 -0.9469
 8622TIP3    H247358   6.531   4.445   5.149 -0.4854 -0.8738 -1.9916
 8623TIP3   OH247359   2.138   4.899   1.546 -0.2044  0.6083  0.0907
 8623TIP3    H147360   2.192   4.973   1.576 -1.5069  1.4792  0.3487
 8623TIP3    H247361   2.052   4.937   1.530 -0.5528 -0.6065 -1.0819
 8624TIP3   OH247362   0.611   6.734   5.372 -0.2085  0.3168  0.1769
 8624TIP3    H147363   0.600   6.644   5.342 -2.6260  0.3373  0.8163
 8624TIP3    H247364   0.675   6.727   5.443  1.7425 -0.4331 -1.5684
 8625TIP3   OH247365   4.047   4.175   3.554  0.0509  0.3216 -0.0362
 8625TIP3    H147366   4.078   4.254   3.598  0.5379  0.7789 -1.1506
 8625TIP3    H247367   3.953   4.174   3.569 -0.0085  1.2908 -0.2539
 8626TIP3   OH247368   1.416   0.752  15.211 -0.4808 -0.4842 -0.2780
 8626TIP3    H147369   1.465   0.686  15.163 -1.1666 -0.3465 -1.1872
 8626TIP3    H247370   1.469   0.770  15.288  1.1584  0.0660 -1.4968
 8627TIP3   OH247371   6.601   1.899   0.169 -0.0319 -0.2516  0.0913
 8627TIP3    H147372   6.509   1.921   0.184 -0.6292 -2.2581 -0.2787
 8627TIP3    H247373   6.644   1.983   0.152 -1.6272  0.8109  1.0574
 8628TIP3   OH247374   4.947   1.130   0.641  0.2778  0.0581  0.5586
 8628TIP3    H147375   4.945   1.034   0.640  0.3556  0.0550  0.7620
 8628TIP3    H247376   5.040   1.152   0.638  0.3592  0.1044  2.3058
 8629TIP3   OH247377   2.952   4.192  17.166  0.8903 -0.1293 -0.3094
 8629TIP3    H147378   3.026   4.139  17.194  1.8913  0.3880 -1.8327
 8629TIP3    H247379   2.989   4.251  17.100 -0.6658  0.8638 -0.3353
 8630TIP3   OH247380   1.344   2.324  11.931 -0.5209  0.3504 -0.2851
 8630TIP3    H147381   1.277   2.256  11.938 -1.1233  0.5371 -2.9757
 8630TIP3    H247382   1.352   2.360  12.019 -2.2512 -1.2757  0.5985
 8631TIP3   OH247383   6.266   0.595  13.754  0.1553 -0.2653  0.0050
 8631TIP3    H147384   6.308   0.525  13.805 -1.7534 -1.6814 -0.2442
 8631TIP3    H247385   6.284   0.675  13.803 -0.3114 -1.3793  2.1116
 8632TIP3   OH247386   5.948   2.677   3.845 -0.1872 -0.0176  0.3232
 8632TIP3    H147387   5.859   2.691   3.812 -0.7613 -0.1303  1.7859
 8632TIP3    H247388   5.953   2.583   3.861  0.9449 -0.3799 -1.7429
 8633TIP3   OH247389   5.682   1.373   3.965  0.2023  0.1788  0.2255
 8633TIP3    H147390   5.776   1.377   3.987  0.1787  0.4825  0.2725
 8633TIP3    H247391   5.668   1.281   3.940  0.4059  0.0114  0.7002
 8634TIP3   OH247392   6.449   1.226  12.807  0.0750 -0.5921 -0.2757
 8634TIP3    H147393   6.544   1.230  12.808  0.0843  1.5956  1.8487
 8634TIP3    H247394   6.428   1.142  12.847  1.1639 -0.4602  0.6343
 8635TIP3   OH247395   0.410   1.552   1.282 -0.0409  0.0465  0.2046
 8635TIP3    H147396   0.490   1.562   1.334  0.8042 -0.7901 -0.8741
 8635TIP3    H247397   0.394   1.638   1.245  0.3472  0.2260  0.4453
 8636TIP3   OH247398   3.473   0.693  14.156  0.0234  0.5433  0.2812
 8636TIP3    H147399   3.479   0.732  14.243  0.8706  1.9589 -0.3835
 8636TIP3    H247400   3.450   0.766  14.099 -2.5765 -0.7366 -0.4290
 8637TIP3   OH247401   5.578   1.655   4.991  0.0656 -0.0277  0.1239
 8637TIP3    H147402   5.582   1.739   4.945  0.7175  0.1456  0.4966
 8637TIP3    H247403   5.669   1.631   5.005 -0.1228 -0.6529  0.2973
 8638TIP3   OH247404   1.392   0.882   5.040 -0.2520 -0.0209 -0.1936
 8638TIP3    H147405   1.485   0.896   5.060 -0.1490 -0.1323 -0.5894
 8638TIP3    H247406   1.371   0.798   5.082  0.4445 -1.1934 -2.0629
 8639TIP3   OH247407   2.718   2.568   5.108 -0.0380  0.8385  0.1518
 8639TIP3    H147408   2.728   2.655   5.147  0.6927  0.2947  1.1994
 8639TIP3    H247409   2.780   2.568   5.035 -0.9975  1.6506 -0.7079
 8640TIP3   OH247410   3.825   5.523  14.032 -0.2635  0.4625 -0.1809
 8640TIP3    H147411   3.777   5.598  14.065 -0.7066  0.1025  0.0013
 8640TIP3    H247412   3.870   5.488  14.109  0.4654  0.9181 -0.3889
 8641TIP3   OH247413   3.767   5.400   3.383  0.3538  0.0415 -0.6577
 8641TIP3    H147414   3.808   5.341   3.318  0.0710 -0.8909 -0.0128
 8641TIP3    H247415   3.743   5.342   3.455 -2.0104  0.5754 -0.9605
 8642TIP3   OH247416   2.135   0.633   5.215 -0.2071 -0.1379 -0.5347
 8642TIP3    H147417   2.158   0.615   5.306 -1.5668 -0.8357 -0.2955
 8642TIP3    H247418   2.049   0.676   5.220 -0.8689 -1.2595 -1.5045
 8643TIP3   OH247419   3.656   3.319   5.710 -0.2841 -0.9615  0.1366
 8643TIP3    H147420   3.706   3.372   5.772  0.0795 -1.9624  0.7249
 8643TIP3    H247421   3.632   3.380   5.640 -0.3613  0.0944  1.0593
 8644TIP3   OH247422   6.319   1.134  17.216 -0.4312 -0.0647  0.9925
 8644TIP3    H147423   6.273   1.103  17.138  0.2997  2.1006 -0.3950
 8644TIP3    H247424   6.369   1.058  17.247 -0.0924 -0.7857 -1.1486
 8645TIP3   OH247425   4.652   3.700  15.149  0.2249  0.1314  0.8344
 8645TIP3    H147426   4.635   3.784  15.108 -1.5023 -0.4140  0.3687
 8645TIP3    H247427   4.611   3.706  15.236  0.0778 -0.2413  0.7931
 8646TIP3   OH247428   0.887   0.020  10.946 -0.7679 -0.3795 -0.0417
 8646TIP3    H147429   0.872   0.019  10.851  0.1827  0.9834 -0.2331
 8646TIP3    H247430   0.979   0.047  10.955 -0.7924 -0.6819  1.2734
 8647TIP3   OH247431   3.184   1.358  14.168  0.5173  0.2785  0.2644
 8647TIP3    H147432   3.254   1.358  14.234  0.5253 -1.4051  0.3171
 8647TIP3    H247433   3.108   1.322  14.215  0.6022 -1.2210 -0.6743
 8648TIP3   OH247434   0.173   3.713  14.569 -0.2293 -0.7627 -0.7689
 8648TIP3    H147435   0.180   3.618  14.557  0.0021 -0.7174 -1.0075
 8648TIP3    H247436   0.173   3.725  14.664  2.2802 -0.8406 -0.6880
 8649TIP3   OH247437   5.271   4.108  16.006  0.1014 -0.3386 -0.8245
 8649TIP3    H147438   5.269   4.203  16.005 -0.7120 -0.3279  0.7646
 8649TIP3    H247439   5.365   4.087  16.008  0.2792  0.4309 -0.6328
 8650TIP3   OH247440   4.182   4.295  12.643  0.2561 -0.5085  0.1057
 8650TIP3    H147441   4.192   4.227  12.575 -0.8480 -0.5737 -0.0093
 8650TIP3    H247442   4.200   4.249  12.725  0.4878 -0.7008 -0.0497
 8651TIP3   OH247443   6.257   6.589   6.422 -0.0893 -0.0311  0.3758
 8651TIP3    H147444   6.266   6.547   6.508  2.7577 -1.0205 -0.2822
 8651TIP3    H247445   6.282   6.680   6.437 -0.7383  0.0805  0.7977
 8652TIP3   OH247446   1.035   0.127  15.654  0.1719  0.1334 -0.5977
 8652TIP3    H147447   1.039   0.059  15.721  1.1917 -0.7243 -1.4859
 8652TIP3    H247448   0.987   0.086  15.581 -0.8821  1.0307 -0.4369
 8653TIP3   OH247449   6.177   6.224   2.126 -0.1666 -0.8549 -0.5951
 8653TIP3    H147450   6.241   6.177   2.180 -0.2628 -0.6118 -0.2692
 8653TIP3    H247451   6.155   6.303   2.176 -0.3919 -0.7139 -0.9060
 8654TIP3   OH247452   1.039   1.176  11.086 -0.5049  0.1436  0.4097
 8654TIP3    H147453   1.118   1.225  11.109  0.3367 -1.7523  1.9535
 8654TIP3    H247454   0.968   1.240  11.093  0.7132  1.5509  0.4611
 8655TIP3   OH247455   4.861   1.192   2.897  0.2681  0.2112 -0.5114
 8655TIP3    H147456   4.945   1.147   2.907  0.3166  0.5298  0.7742
 8655TIP3    H247457   4.862   1.260   2.964 -0.5948  0.8959 -1.1640
 8656TIP3   OH247458   6.521   2.052  12.866 -0.2191 -0.6201 -0.6369
 8656TIP3    H147459   6.431   2.045  12.834  0.4307 -0.0640 -2.7242
 8656TIP3    H247460   6.558   1.965  12.854 -0.1939 -0.5954 -0.7447
 8657TIP3   OH247461   4.203   2.848   4.928 -0.4010  0.0249  0.4633
 8657TIP3    H147462   4.188   2.918   4.865  0.4324  0.2683  0.5124
 8657TIP3    H247463   4.153   2.874   5.005 -1.6945 -0.4468 -0.2021
 8658TIP3   OH247464   0.894   5.312   6.137 -0.7953 -0.5995 -0.2631
 8658TIP3    H147465   0.962   5.263   6.183 -1.2467 -1.0321 -0.0460
 8658TIP3    H247466   0.916   5.302   6.044  0.8736  1.3700 -0.1574
 8659TIP3   OH247467   5.377   6.205   6.276  0.6931  0.2307  0.4301
 8659TIP3    H147468   5.434   6.224   6.201 -0.7578  2.5135 -0.1948
 8659TIP3    H247469   5.437   6.196   6.350  2.0015  0.2364 -0.5966
 8660TIP3   OH247470   4.203   1.651  15.010 -0.2018 -0.2380 -0.4716
 8660TIP3    H147471   4.233   1.631  15.098  0.7641 -2.8482 -1.2991
 8660TIP3    H247472   4.272   1.705  14.972 -0.4126  0.5138  0.1860
 8661TIP3   OH247473   1.603   1.779  11.672 -0.3953 -0.1642 -0.0090
 8661TIP3    H147474   1.646   1.694  11.658 -0.9978 -0.3659 -0.7193
 8661TIP3    H247475   1.522   1.773  11.621 -1.8726 -0.2541  2.1796
 8662TIP3   OH247476   4.877   1.831  17.019 -0.1709 -0.3248 -0.5538
 8662TIP3    H147477   4.898   1.765  16.953 -0.3946  1.1945 -2.1975
 8662TIP3    H247478   4.885   1.914  16.974  3.1794  1.0962  2.2137
 8663TIP3   OH247479   5.764   3.220  14.047 -0.4121  0.2410  0.5747
 8663TIP3    H147480   5.734   3.288  14.107  0.2466  1.5494 -0.4994
 8663TIP3    H247481   5.853   3.199  14.077 -0.2289  0.6163  0.3099
 8664TIP3   OH247482   1.625   4.121   0.542 -0.0107  0.6615  0.3385
 8664TIP3    H147483   1.657   4.079   0.622 -0.2766  1.0608  0.6513
 8664TIP3    H247484   1.665   4.208   0.543 -2.1450  1.7011  1.4280
 8665TIP3   OH247485   4.115   2.175   0.267 -0.2659 -0.2223  0.0495
 8665TIP3    H147486   4.191   2.232   0.278 -1.1856  1.1121 -0.2322
 8665TIP3    H247487   4.128   2.104   0.330  1.3378 -0.1765 -0.1967
 8666TIP3   OH247488   5.600   2.833  12.610  0.4981  0.2538  0.0434
 8666TIP3    H147489   5.571   2.856  12.699  1.4379  0.3134  0.3447
 8666TIP3    H247490   5.688   2.798  12.622  0.1292 -1.0136 -0.7139
 8667TIP3   OH247491   2.380   4.121   6.230 -0.2611  0.2109  0.2394
 8667TIP3    H147492   2.354   4.039   6.188  0.8929 -0.1523  0.2112
 8667TIP3    H247493   2.431   4.094   6.306  2.1552  0.8766 -1.0480
 8668TIP3   OH247494   5.055   6.718  12.607 -0.7136  0.1387  0.2343
 8668TIP3    H147495   5.024   6.805  12.583 -0.9507 -0.2969 -1.1344
 8668TIP3    H247496   5.145   6.732  12.638 -0.3519  0.7509 -1.0341
 8669TIP3   OH247497   1.423   5.199  12.061  0.1296 -0.5358 -0.0500
 8669TIP3    H147498   1.399   5.254  12.135 -1.4071 -3.1991  1.6326
 8669TIP3    H247499   1.387   5.243  11.985 -1.4324  0.5655  1.2604
 8670TIP3   OH247500   6.197   0.197  15.980  0.1959  0.1706  0.1748
 8670TIP3    H147501   6.129   0.255  16.015  1.1456  1.0262  0.6580
 8670TIP3    H247502   6.246   0.168  16.057  0.6058 -0.1466 -0.1965
 8671TIP3   OH247503   4.494   6.009   2.424 -0.1770  0.0013  0.1057
 8671TIP3    H147504   4.489   5.984   2.332 -0.1391 -0.4741  0.2337
 8671TIP3    H247505   4.583   6.042   2.435 -0.0998 -0.1865  0.0345
 8672TIP3   OH247506   4.067   4.924   5.227 -0.5102  0.3026 -0.0415
 8672TIP3    H147507   4.148   4.975   5.216 -2.5360  3.6093 -1.0163
 8672TIP3    H247508   4.083   4.872   5.305  2.6926  0.4337 -0.4374
 8673TIP3   OH247509   1.858   2.939   5.728  0.1961  0.2607  0.3375
 8673TIP3    H147510   1.870   2.938   5.823  0.5648 -1.2230  0.2968
 8673TIP3    H247511   1.854   3.032   5.705  0.0814  0.6390  1.8016
 8674TIP3   OH247512   5.589   5.712  13.362 -0.4947  0.2584 -0.0401
 8674TIP3    H147513   5.663   5.730  13.421 -0.7651 -1.1129  0.7578
 8674TIP3    H247514   5.602   5.773  13.289  1.0325  0.5451  0.4209
 8675TIP3   OH247515   5.682   3.093  10.936 -0.3477  0.7020  0.4627
 8675TIP3    H147516   5.762   3.041  10.943 -1.5112 -1.1209  1.1911
 8675TIP3    H247517   5.712   3.184  10.931  1.7136  0.1982  2.1482
 8676TIP3   OH247518   4.345   3.467  16.219  0.0834  0.2494  0.2247
 8676TIP3    H147519   4.339   3.388  16.164  0.8584  0.0965  0.3541
 8676TIP3    H247520   4.298   3.534  16.170 -2.6688 -0.8474  1.1549
 8677TIP3   OH247521   1.582   1.306  14.283 -0.3511  0.6747  0.1129
 8677TIP3    H147522   1.502   1.345  14.246 -0.4534  0.2222 -0.1566
 8677TIP3    H247523   1.550   1.244  14.348 -0.1782  1.2604  0.7691
 8678TIP3   OH247524   2.728   4.668   2.206 -0.3547 -0.7132  0.2371
 8678TIP3    H147525   2.793   4.671   2.136 -0.0861 -0.8331  0.4747
 8678TIP3    H247526   2.650   4.708   2.169  0.2919  0.7483  0.3910
 8679TIP3   OH247527   5.033   4.586  11.351  0.7759  0.0245 -0.0491
 8679TIP3    H147528   5.053   4.678  11.366  0.9862 -0.2994  1.7923
 8679TIP3    H247529   5.076   4.565  11.268 -0.3693  1.8974 -1.1721
 8680TIP3   OH247530   6.180   6.260   4.322 -0.1085 -0.4095 -0.3705
 8680TIP3    H147531   6.118   6.200   4.282  0.7287 -1.4515 -0.1349
 8680TIP3    H247532   6.138   6.287   4.404 -0.6127 -0.4454 -0.6172
 8681TIP3   OH247533   3.139   1.281   6.374 -0.3541  0.3943  0.2244
 8681TIP3    H147534   3.184   1.200   6.351 -0.2185  1.3721 -3.5299
 8681TIP3    H247535   3.047   1.265   6.351 -0.6258  0.8474  0.9327
 8682TIP3   OH247536   4.695   3.832   1.580 -0.0215  0.0255  0.0731
 8682TIP3    H147537   4.696   3.927   1.590 -1.4024  0.0118  0.5550
 8682TIP3    H247538   4.715   3.818   1.487  3.0857  0.6137  0.5579
 8683TIP3   OH247539   0.688   2.782  11.625  0.3475 -0.3833 -0.0440
 8683TIP3    H147540   0.697   2.795  11.531 -0.5673 -2.3205 -0.4523
 8683TIP3    H247541   0.649   2.863  11.657 -3.6335 -1.2471 -2.0906
 8684TIP3   OH247542   3.535   0.680  12.977  0.1046 -0.1691 -0.7238
 8684TIP3    H147543   3.602   0.664  12.911  0.3779 -3.2061  0.1481
 8684TIP3    H247544   3.461   0.626  12.950 -0.0714 -0.8394  1.0008
 8685TIP3   OH247545   2.039   5.184   2.824  0.4347 -0.0312 -0.0666
 8685TIP3    H147546   1.994   5.247   2.768  1.0554  0.8528  0.4044
 8685TIP3    H247547   2.042   5.104   2.772 -1.3336 -0.0211 -0.2589
 8686TIP3   OH247548   0.435   3.887  13.998  0.8331 -0.2781 -0.9734
 8686TIP3    H147549   0.511   3.897  14.055 -0.1676  0.9416  0.1850
 8686TIP3    H247550   0.413   3.976  13.971 -1.3421 -0.3857  0.2800
 8687TIP3   OH247551   2.467   2.562   2.383  0.0122 -0.1919 -0.6097
 8687TIP3    H147552   2.542   2.526   2.430  1.0992  0.9355 -1.4066
 8687TIP3    H247553   2.476   2.530   2.294 -1.2552 -1.1726 -0.4174
 8688TIP3   OH247554   3.540   5.213  16.429 -0.1164 -0.4400 -0.0840
 8688TIP3    H147555   3.527   5.142  16.493  0.1672  0.7283  1.3276
 8688TIP3    H247556   3.451   5.234  16.398 -0.2483 -1.0956 -0.1604
 8689TIP3   OH247557   2.487   5.821  14.782  0.1353 -0.9359  0.7784
 8689TIP3    H147558   2.401   5.784  14.800 -0.6409  0.3261 -0.1694
 8689TIP3    H247559   2.534   5.751  14.737 -1.1796 -0.9219 -0.6981
 8690TIP3   OH247560   4.426   5.184  16.381  0.1985  0.1070  0.8857
 8690TIP3    H147561   4.332   5.168  16.394 -0.0335  0.7486  0.1149
 8690TIP3    H247562   4.449   5.246  16.450 -0.2144  0.8127  0.4064
 8691TIP3   OH247563   4.289   1.984   4.063  0.5821  0.1323 -0.6058
 8691TIP3    H147564   4.203   2.014   4.091  0.4320 -0.5586 -0.2911
 8691TIP3    H247565   4.341   2.064   4.054 -0.2747  0.6082 -1.4503
 8692TIP3   OH247566   2.798   3.449  13.799  0.4937 -0.2895 -0.3579
 8692TIP3    H147567   2.863   3.417  13.861  1.5286  0.5336 -0.9898
 8692TIP3    H247568   2.799   3.544  13.809 -1.9908 -0.3159  0.9602
 8693TIP3   OH247569   3.469   2.589   0.938  0.1817 -0.2187  0.1812
 8693TIP3    H147570   3.555   2.595   0.980  1.5692 -3.8111 -1.6634
 8693TIP3    H247571   3.479   2.640   0.857  0.3498 -0.0446  0.3108
 8694TIP3   OH247572   6.650   2.076  17.087  0.4337  0.5520 -0.0163
 8694TIP3    H147573   6.695   2.125  17.018  0.5002  3.0399  1.6675
 8694TIP3    H247574   6.705   1.999  17.102  1.0240  0.5674 -1.8928
 8695TIP3   OH247575   2.200   5.811   2.459 -0.2969  0.6153 -0.6019
 8695TIP3    H147576   2.269   5.749   2.436 -1.4780 -0.3924 -1.6171
 8695TIP3    H247577   2.225   5.892   2.415  0.5591  0.4752 -0.4011
 8696TIP3   OH247578   4.666   5.767   1.287 -0.2186  0.6936 -0.0103
 8696TIP3    H147579   4.738   5.754   1.225 -0.6299  1.1326 -0.5864
 8696TIP3    H247580   4.702   5.737   1.371 -0.0543 -1.0738 -0.6616
 8697TIP3   OH247581   4.855   2.205  14.264  0.2901  0.1054 -0.7018
 8697TIP3    H147582   4.876   2.292  14.298  1.0506  0.6129 -2.3394
 8697TIP3    H247583   4.773   2.218  14.216  1.0102  0.2398 -1.9537
 8698TIP3   OH247584   5.677   2.259  15.034  0.0706  0.1992 -0.2828
 8698TIP3    H147585   5.613   2.301  15.092  0.0714 -1.0644  0.6825
 8698TIP3    H247586   5.633   2.254  14.949 -0.4386  0.8857 -0.0743
 8699TIP3   OH247587   1.118   3.279   3.533  0.0746 -0.4363 -0.1716
 8699TIP3    H147588   1.178   3.250   3.464  0.9799  1.1725 -0.0881
 8699TIP3    H247589   1.039   3.306   3.486  0.5219  0.2355 -0.5437
 8700TIP3   OH247590   2.659   1.950  15.007  0.6455  0.1909 -0.1835
 8700TIP3    H147591   2.697   1.946  15.095  0.3357  1.8468  0.0567
 8700TIP3    H247592   2.565   1.936  15.021  0.1541  3.2223  0.1724
 8701TIP3   OH247593   5.809   1.313  14.805  0.3144  0.0390 -0.3512
 8701TIP3    H147594   5.880   1.295  14.866 -1.1353 -1.8443  0.9142
 8701TIP3    H247595   5.844   1.379  14.746  2.1005  1.3170  1.9833
 8702TIP3   OH247596   4.514   4.029   3.920  0.5078 -0.2462 -0.4990
 8702TIP3    H147597   4.549   4.091   3.855  0.1912  0.2061 -0.2417
 8702TIP3    H247598   4.501   3.948   3.871  0.6202 -0.0159 -0.9185
 8703TIP3   OH247599   3.920   0.244   4.579  0.6291  0.1703 -0.3760
 8703TIP3    H147600   3.904   0.230   4.486 -0.0787 -1.0728 -0.0937
 8703TIP3    H247601   3.975   0.171   4.606 -0.9095 -0.6888  0.5987
 8704TIP3   OH247602   6.207   3.905  12.999 -0.0836  0.4008 -0.0834
 8704TIP3    H147603   6.284   3.916  13.055 -0.3209 -1.3124  0.6393
 8704TIP3    H247604   6.199   3.988  12.952  0.3672  1.7645  2.1150
 8705TIP3   OH247605   5.987   2.804   0.606  0.4835 -0.1692 -0.3040
 8705TIP3    H147606   5.917   2.742   0.586  2.0205 -2.9184  1.9677
 8705TIP3    H247607   6.031   2.819   0.523 -0.7246 -1.1660 -1.1575
 8706TIP3   OH247608   2.071   1.961   1.176 -0.1527  0.6024 -0.3003
 8706TIP3    H147609   2.107   1.874   1.195  0.7741  1.2404  0.9972
 8706TIP3    H247610   2.044   1.956   1.084 -0.5318 -1.1849 -0.1297
 8707TIP3   OH247611   2.420   0.320   1.049 -0.2800  0.0340 -0.1473
 8707TIP3    H147612   2.345   0.336   1.107 -1.8756 -0.7012 -1.9169
 8707TIP3    H247613   2.493   0.304   1.109 -2.0605 -1.7741  1.7279
 8708TIP3   OH247614   1.671   0.501   0.923  0.7622 -0.5651  0.3126
 8708TIP3    H147615   1.691   0.491   1.016  0.1754 -1.3761  0.3614
 8708TIP3    H247616   1.684   0.594   0.906  1.3120 -0.4882  1.0976
 8709TIP3   OH247617   4.128   3.512   2.292  0.0390  0.3614  0.0282
 8709TIP3    H147618   4.223   3.526   2.296  0.2993 -1.3523  0.3235
 8709TIP3    H247619   4.117   3.433   2.239 -1.1678 -0.0478  0.8416
 8710TIP3   OH247620   6.462   0.805   4.245  0.1747 -0.2155 -0.0122
 8710TIP3    H147621   6.397   0.874   4.254 -0.0580 -0.0810 -2.2726
 8710TIP3    H247622   6.436   0.739   4.310 -1.9107  0.0823 -0.4662
 8711TIP3   OH247623   4.366   0.595  10.666 -0.2256  0.1700  0.5282
 8711TIP3    H147624   4.388   0.521  10.610  0.6282  1.7264 -1.3461
 8711TIP3    H247625   4.271   0.605  10.658 -0.5719 -1.5633  1.9923
 8712TIP3   OH247626   1.559   6.353   2.590  0.5616 -0.4047  0.2663
 8712TIP3    H147627   1.634   6.412   2.585  1.2357 -0.8095  3.2596
 8712TIP3    H247628   1.574   6.302   2.670 -1.6308 -2.3289 -0.4359
 8713TIP3   OH247629   1.928   3.780   4.180  0.1535  0.1883 -0.6515
 8713TIP3    H147630   1.832   3.775   4.172  0.2476  0.5054 -2.3119
 8713TIP3    H247631   1.942   3.815   4.268 -1.3307  1.8387 -0.9976
 8714TIP3   OH247632   0.801   3.516  15.697 -0.0289 -0.1125 -0.0214
 8714TIP3    H147633   0.864   3.570  15.745  0.2244 -0.8292  0.4632
 8714TIP3    H247634   0.739   3.487  15.764 -0.8086  0.4813 -0.4687
 8715TIP3   OH247635   3.656   6.567   2.804  0.1076  0.0285 -0.3494
 8715TIP3    H147636   3.661   6.642   2.864  0.1630 -0.0646 -0.2370
 8715TIP3    H247637   3.638   6.492   2.860 -0.6205  0.0549 -0.5353
 8716TIP3   OH247638   4.014   2.895   4.164  0.0473 -0.2342  0.4213
 8716TIP3    H147639   4.021   2.902   4.069 -0.3754  3.1653  0.5162
 8716TIP3    H247640   4.086   2.948   4.198  0.8647 -2.2564  2.0842
 8717TIP3   OH247641   0.523   3.059  16.335  0.7377 -0.1977  0.4740
 8717TIP3    H147642   0.561   3.132  16.384  0.4305 -0.1398  0.6330
 8717TIP3    H247643   0.569   3.059  16.252 -0.4859  1.3414 -0.2672
 8718TIP3   OH247644   2.017   2.310  14.542 -0.0325  0.2956 -0.5450
 8718TIP3    H147645   2.038   2.217  14.530 -3.1634 -0.2965 -2.4488
 8718TIP3    H247646   1.979   2.315  14.630 -0.9926 -0.4921 -0.9016
 8719TIP3   OH247647   1.495   3.258  15.929 -0.0608  0.1277 -0.2189
 8719TIP3    H147648   1.446   3.204  15.866 -1.5911 -0.2403  1.2257
 8719TIP3    H247649   1.497   3.345  15.889 -0.6699 -0.1835 -0.9642
 8720TIP3   OH247650   4.769   1.118  15.094  0.4103 -0.5760 -0.9236
 8720TIP3    H147651   4.804   1.080  15.014  0.6532 -0.4227 -0.8888
 8720TIP3    H247652   4.846   1.139  15.147  0.3223  0.6843 -1.2620
 8721TIP3   OH247653   4.397   0.598  16.879  0.0449  0.7305  0.4217
 8721TIP3    H147654   4.488   0.568  16.878 -0.1949 -0.2220 -2.2120
 8721TIP3    H247655   4.346   0.517  16.883 -0.6562  1.1463  0.0059
 8722TIP3   OH247656   1.789   5.934   0.100  0.0450 -0.3509  0.4851
 8722TIP3    H147657   1.828   5.876   0.035 -0.4232 -0.0270 -0.0903
 8722TIP3    H247658   1.735   5.875   0.153  2.3252 -1.0562  2.1796
 8723TIP3   OH247659   1.779   1.496   6.410  0.2311 -0.1898  0.3693
 8723TIP3    H147660   1.833   1.451   6.345  0.3107 -2.1163  1.6940
 8723TIP3    H247661   1.807   1.587   6.406  1.5519 -0.6239 -0.9664
 8724TIP3   OH247662   6.316   4.378  10.893 -0.8767  0.1667  0.1022
 8724TIP3    H147663   6.292   4.419  10.976 -1.8601  2.2471 -1.1432
 8724TIP3    H247664   6.244   4.317  10.875 -0.5238 -0.4986  0.8784
 8725TIP3   OH247665   5.315   6.232  15.495 -0.0141  0.4922 -0.3233
 8725TIP3    H147666   5.333   6.326  15.497  1.3038  0.2578  0.2830
 8725TIP3    H247667   5.295   6.213  15.404 -0.9711  1.4614 -0.3384
 8726TIP3   OH247668   3.518   3.380  16.313  0.5617 -0.5011  0.9657
 8726TIP3    H147669   3.515   3.445  16.243  1.7886  0.0435  1.3897
 8726TIP3    H247670   3.554   3.301  16.272 -0.6696 -0.8531  0.5168
 8727TIP3   OH247671   6.420   4.366  15.599 -0.5571  0.0430 -0.0753
 8727TIP3    H147672   6.489   4.314  15.558 -0.6685 -0.5742  0.4849
 8727TIP3    H247673   6.339   4.323  15.572 -0.6910  0.3862 -0.2223
 8728TIP3   OH247674   4.067   5.402   4.905 -0.7383 -0.0464 -0.0723
 8728TIP3    H147675   4.128   5.364   4.967 -1.5617 -0.7573  0.3288
 8728TIP3    H247676   3.991   5.428   4.958 -0.8768  0.6374 -0.5796
 8729TIP3   OH247677   1.652   1.696  11.299  0.2681 -0.1685 -0.3301
 8729TIP3    H147678   1.588   1.647  11.246  0.8116  1.2867 -2.4447
 8729TIP3    H247679   1.606   1.775  11.326  0.5951 -0.0027 -0.2486
 8730TIP3   OH247680   4.695   4.341   0.527 -0.0153  0.2944  0.2762
 8730TIP3    H147681   4.671   4.433   0.532 -1.9297  0.0041 -1.8507
 8730TIP3    H247682   4.729   4.331   0.438 -1.2442 -1.3280 -0.0421
 8731TIP3   OH247683   2.607   3.811  16.524  0.1677  0.4021 -0.2991
 8731TIP3    H147684   2.562   3.742  16.573 -1.0051  1.1065 -0.3202
 8731TIP3    H247685   2.574   3.892  16.562 -0.7437  0.9776 -2.1758
 8732TIP3   OH247686   5.056   6.665  17.598  0.5523 -0.5036  0.2853
 8732TIP3    H147687   5.096   6.704  17.676 -0.3109 -1.8585  1.4649
 8732TIP3    H247688   5.027   6.579  17.627 -1.2628 -0.4101 -1.0896
 8733TIP3   OH247689   4.369   3.632   3.112  0.1402  0.3039 -0.1822
 8733TIP3    H147690   4.327   3.566   3.057 -0.5952  0.7988 -0.2359
 8733TIP3    H247691   4.460   3.633   3.083  0.7597 -2.3177  1.4028
 8734TIP3   OH247692   1.839   4.798   1.748  0.6384 -0.4026  0.1212
 8734TIP3    H147693   1.820   4.725   1.690 -0.8864 -0.8362  1.0735
 8734TIP3    H247694   1.912   4.768   1.802 -0.0686 -1.3259  0.6072
 8735TIP3   OH247695   1.018   6.322  16.577 -0.0320 -0.0578 -0.0935
 8735TIP3    H147696   1.104   6.288  16.552  0.2430  0.9489 -0.5676
 8735TIP3    H247697   0.972   6.247  16.614  0.1192 -1.2469 -2.1783
 8736TIP3   OH247698   4.347   0.774  16.693 -0.1655 -0.4686 -0.2789
 8736TIP3    H147699   4.371   0.735  16.777 -2.5744  0.9096  1.1591
 8736TIP3    H247700   4.411   0.844  16.680 -0.3557 -0.0524  0.9214
 8737TIP3   OH247701   6.398   5.718  17.148 -0.4024  0.0774  0.2794
 8737TIP3    H147702   6.309   5.699  17.176  0.0160  0.6453  2.1609
 8737TIP3    H247703   6.398   5.813  17.132 -0.5157 -0.1676 -1.3180
 8738TIP3   OH247704   1.563   2.870   4.894  0.1153 -0.1529 -0.1186
 8738TIP3    H147705   1.622   2.830   4.831  1.4074  1.2727  0.1282
 8738TIP3    H247706   1.477   2.868   4.851  0.1424 -2.8694 -0.2046
 8739TIP3   OH247707   2.687   2.101  12.559 -0.3098  0.2428 -0.6960
 8739TIP3    H147708   2.753   2.155  12.516 -1.5715  1.1799 -1.5086
 8739TIP3    H247709   2.678   2.024  12.502  0.9003 -0.4943  0.0439
 8740TIP3   OH247710   3.673   1.355  13.197 -0.2515  0.1751  0.2095
 8740TIP3    H147711   3.675   1.389  13.108  0.1048  0.2384  0.2408
 8740TIP3    H247712   3.581   1.336  13.214 -0.2016 -0.8677 -0.5685
 8741TIP3   OH247713   6.207   5.685   0.113  0.3956 -0.7618 -0.6370
 8741TIP3    H147714   6.132   5.637   0.077  1.5468 -2.6934 -0.6485
 8741TIP3    H247715   6.169   5.755   0.165 -1.4101 -1.5270 -0.8531
 8742TIP3   OH247716   2.697   4.324  14.563  0.3948  0.1022 -0.5315
 8742TIP3    H147717   2.682   4.405  14.612  1.2132  0.0957 -0.2494
 8742TIP3    H247718   2.616   4.275  14.573 -0.0313  0.7886 -0.5165
 8743TIP3   OH247719   2.485   5.132   0.700 -0.5017 -0.3729  0.4416
 8743TIP3    H147720   2.426   5.086   0.640 -0.7273  0.0261  0.3539
 8743TIP3    H247721   2.544   5.182   0.643  0.7996 -1.7986  0.4794
 8744TIP3   OH247722   3.525   2.981  17.461  0.4327 -0.0681 -0.2985
 8744TIP3    H147723   3.608   2.943  17.490  0.8770  0.8541 -0.3262
 8744TIP3    H247724   3.463   2.957  17.530  1.2316  1.1790  0.9148
 8745TIP3   OH247725   4.659   3.959   0.358  1.1260 -0.4170 -0.6109
 8745TIP3    H147726   4.722   3.961   0.286 -0.3212  0.2605 -1.9221
 8745TIP3    H247727   4.599   4.031   0.339  1.8419  1.1699  2.4128
 8746TIP3   OH247728   1.796   0.109  13.174  0.4944 -0.1711  0.0177
 8746TIP3    H147729   1.710   0.132  13.209 -0.2408  0.7832 -2.2122
 8746TIP3    H247730   1.847   0.082  13.250 -1.5284 -0.0066  1.5072
 8747TIP3   OH247731   4.044   1.794   4.868 -0.1828  0.3499 -0.0113
 8747TIP3    H147732   4.065   1.759   4.954  1.1266  1.8128  0.3000
 8747TIP3    H247733   4.072   1.727   4.806 -0.9741 -0.6337  0.6662
 8748TIP3   OH247734   1.246   2.439  13.074  0.5676 -0.5337 -0.2278
 8748TIP3    H147735   1.248   2.470  13.165  1.1825 -1.2959  0.0371
 8748TIP3    H247736   1.313   2.491  13.030  1.4151 -1.2478  0.1547
 8749TIP3   OH247737   0.281   1.216  17.048 -0.0393 -0.0686 -0.5065
 8749TIP3    H147738   0.240   1.168  17.120  1.8329 -1.9391 -0.5856
 8749TIP3    H247739   0.347   1.271  17.090  0.7035 -0.7800 -0.7034
 8750TIP3   OH247740   3.936   3.978  12.640 -0.0021 -0.2843  0.4652
 8750TIP3    H147741   4.000   3.918  12.677  0.0482 -0.4627  0.0984
 8750TIP3    H247742   3.851   3.944  12.670  0.1391  1.0747  2.5904
 8751TIP3   OH247743   6.594   4.722   0.692  0.6221 -0.1050  0.0589
 8751TIP3    H147744   6.576   4.676   0.773 -1.9384 -2.4698 -1.6844
 8751TIP3    H247745   6.654   4.665   0.644  0.1507  0.0434 -0.7223
 8752TIP3   OH247746   4.038   0.270   6.423 -0.1755 -0.0509  0.2636
 8752TIP3    H147747   4.131   0.253   6.404 -0.2045 -0.3645  0.4139
 8752TIP3    H247748   3.991   0.215   6.361 -0.2609  0.9557 -0.5855
 8753TIP3   OH247749   3.409   5.786   2.291  0.4544  0.2368 -0.2634
 8753TIP3    H147750   3.391   5.811   2.201  2.0941 -1.2914 -1.0837
 8753TIP3    H247751   3.323   5.788   2.334  0.0255  3.8765 -1.0059
 8754TIP3   OH247752   5.367   3.479  17.036  0.0080  0.1406  0.3452
 8754TIP3    H147753   5.364   3.572  17.014  1.2396  0.0448 -0.3553
 8754TIP3    H247754   5.403   3.476  17.124  1.3880  0.2969 -0.1870
 8755TIP3   OH247755   3.091   2.017  16.018 -1.1856  0.5158  0.2898
 8755TIP3    H147756   3.092   1.996  16.111  1.2071  0.4327  0.2995
 8755TIP3    H247757   3.127   2.105  16.013 -0.3392  0.1355 -0.6160
 8756TIP3   OH247758   2.673   3.870  12.938  0.0235  0.3784 -0.6113
 8756TIP3    H147759   2.734   3.923  12.886 -1.0375  1.8758 -0.3911
 8756TIP3    H247760   2.607   3.842  12.875  1.6591 -2.5660 -1.1898
 8757TIP3   OH247761   2.330   6.040   0.288  0.6075 -0.2224  0.1283
 8757TIP3    H147762   2.309   6.067   0.377 -0.4449 -1.9509  0.4412
 8757TIP3    H247763   2.290   6.107   0.232 -1.1171 -0.5785  0.8926
 8758TIP3   OH247764   1.537   4.439   6.243 -0.1148 -0.1750  0.0399
 8758TIP3    H147765   1.597   4.387   6.296 -1.3871 -0.4303  1.2761
 8758TIP3    H247766   1.532   4.523   6.288  1.5764  0.9459 -1.6954
 8759TIP3   OH247767   3.000   3.871   2.621  0.0496 -0.2358  0.5747
 8759TIP3    H147768   2.947   3.917   2.686  2.3095  3.1186  0.2863
 8759TIP3    H247769   2.958   3.890   2.538  1.5039  2.4377  0.3431
 8760TIP3   OH247770   5.925   5.263   0.564  0.0965  0.2296 -0.6427
 8760TIP3    H147771   5.952   5.297   0.479 -1.3179  1.4238 -0.6398
 8760TIP3    H247772   5.863   5.193   0.543  1.8325 -1.4088 -0.6093
 8761TIP3   OH247773   5.161   4.879  13.736  0.0450 -0.6162 -0.3846
 8761TIP3    H147774   5.249   4.914  13.751 -0.6821  0.8390  0.7923
 8761TIP3    H247775   5.102   4.944  13.775 -1.5685 -1.5181 -1.1913
 8762TIP3   OH247776   6.475   3.581   2.650 -0.1827 -0.0377  0.0339
 8762TIP3    H147777   6.461   3.664   2.604 -0.3005 -1.3123 -2.3708
 8762TIP3    H247778   6.412   3.521   2.611  0.7720 -1.6016  0.8005
 8763TIP3   OH247779   6.623   0.550  16.990 -0.3582  0.5248 -0.2070
 8763TIP3    H147780   6.538   0.556  17.033 -0.5565  1.3714 -0.6922
 8763TIP3    H247781   6.668   0.479  17.035 -0.4903  1.4809  1.5261
 8764TIP3   OH247782   4.705   2.595  16.854  0.9147 -0.6188 -0.2080
 8764TIP3    H147783   4.649   2.567  16.781  2.0494 -1.0186 -0.9494
 8764TIP3    H247784   4.665   2.555  16.931 -0.4220 -0.0153 -0.5623
 8765TIP3   OH247785   6.459   3.468  13.999  1.0677 -0.2582 -0.3817
 8765TIP3    H147786   6.538   3.503  14.039 -0.6528  0.5628  2.5813
 8765TIP3    H247787   6.417   3.543  13.957  0.3730  0.0145  0.7521
 8766TIP3   OH247788   4.647   5.674  15.075  0.0093  0.3267  0.1800
 8766TIP3    H147789   4.655   5.718  15.160 -2.2717 -0.2500  0.7563
 8766TIP3    H247790   4.563   5.704  15.040 -1.0140 -2.5122 -0.0118
 8767TIP3   OH247791   5.044   0.389  16.661  0.2360 -0.2794  0.6266
 8767TIP3    H147792   5.087   0.311  16.627 -1.0658 -0.9906  0.5591
 8767TIP3    H247793   5.089   0.407  16.744  0.2309 -1.3971  0.8865
 8768TIP3   OH247794   3.456   0.082   1.114 -0.2188 -0.2830 -0.2180
 8768TIP3    H147795   3.466   0.117   1.203 -1.2602  2.2208 -0.9788
 8768TIP3    H247796   3.411   0.152   1.066  0.7427 -1.3394 -2.8521
 8769TIP3   OH247797   3.915   2.734   5.735  0.1942  0.0982  0.1668
 8769TIP3    H147798   3.870   2.812   5.765 -1.6982 -1.4379  1.6176
 8769TIP3    H247799   3.870   2.709   5.654  2.1465  1.5597 -1.4723
 8770TIP3   OH247800   6.732   3.788   1.029 -0.0328 -0.0630  0.3348
 8770TIP3    H147801   6.783   3.714   1.061 -0.6028 -0.0308  1.3691
 8770TIP3    H247802   6.793   3.837   0.975  1.6133  0.8687  2.8300
 8771TIP3   OH247803   1.754   1.032  13.214 -0.7614  0.2902 -0.3691
 8771TIP3    H147804   1.700   1.105  13.243 -0.9146  0.2202 -0.4785
 8771TIP3    H247805   1.692   0.960  13.201 -0.8825  0.6764 -2.1227
 8772TIP3   OH247806   5.977   1.067   2.092 -0.1292  0.4548 -0.1428
 8772TIP3    H147807   6.012   1.154   2.111 -1.3192  0.7770  0.7237
 8772TIP3    H247808   5.936   1.040   2.174 -0.8762 -0.3791 -0.7767
 8773TIP3   OH247809   4.145   4.875  14.732 -0.3613  0.0427 -0.1106
 8773TIP3    H147810   4.052   4.892  14.747 -0.4396 -0.3630 -0.1255
 8773TIP3    H247811   4.149   4.782  14.707 -0.2743  0.6699 -2.7905
 8774TIP3   OH247812   5.088   1.702  15.578 -0.0075 -0.4573 -0.0438
 8774TIP3    H147813   5.132   1.785  15.592  0.3741 -0.6716  0.0494
 8774TIP3    H247814   5.003   1.712  15.623  0.4132 -0.4480  0.7770
 8775TIP3   OH247815   4.681   6.295  14.459  0.0721  0.0321  1.0819
 8775TIP3    H147816   4.658   6.335  14.543 -0.4181  1.2911  0.3598
 8775TIP3    H247817   4.763   6.337  14.433 -0.9350  1.3125 -0.1365
 8776TIP3   OH247818   1.734   0.289   5.381  0.4936  0.3605  0.1193
 8776TIP3    H147819   1.815   0.238   5.375  0.7308  0.8788 -1.9234
 8776TIP3    H247820   1.763   0.380   5.371 -0.3660  0.5167 -1.0997
 8777TIP3   OH247821   2.977   6.494   6.318  0.2125 -0.2866 -0.1756
 8777TIP3    H147822   3.017   6.564   6.267 -0.2980 -0.9160 -1.4752
 8777TIP3    H247823   2.913   6.539   6.374  1.8542  0.5863  1.0962
 8778TIP3   OH247824   0.524   3.612  16.657  0.4044 -0.2875 -0.3317
 8778TIP3    H147825   0.600   3.561  16.628  1.3113  0.4551  0.6832
 8778TIP3    H247826   0.552   3.653  16.739 -1.4934 -0.9285  0.6959
 8779TIP3   OH247827   5.311   2.123   6.381  0.2268 -0.3666  0.3406
 8779TIP3    H147828   5.300   2.180   6.457 -2.8234 -0.8540  0.3913
 8779TIP3    H247829   5.312   2.034   6.417  1.1527 -0.5184 -0.0333
 8780TIP3   OH247830   2.050   4.262  15.890  0.2267 -0.1541  0.3079
 8780TIP3    H147831   1.977   4.304  15.935 -0.5489  0.4242 -1.3792
 8780TIP3    H247832   2.030   4.273  15.797  1.6996 -1.3491 -0.1985
 8781TIP3   OH247833   3.233   1.521   3.336  0.6630 -0.3117  0.1218
 8781TIP3    H147834   3.211   1.433   3.306 -0.0887 -0.9743  2.4323
 8781TIP3    H247835   3.315   1.542   3.291  0.3283 -1.7397 -1.2573
 8782TIP3   OH247836   6.354   6.670  13.526 -0.5223 -0.4612  0.2867
 8782TIP3    H147837   6.442   6.686  13.561 -0.8730 -1.4882  1.7307
 8782TIP3    H247838   6.337   6.745  13.470  1.1938 -0.1366  0.1342
 8783TIP3   OH247839   2.116   2.850   0.164  0.0573 -0.1696  0.4352
 8783TIP3    H147840   2.093   2.794   0.091  0.1607  0.0113  0.2611
 8783TIP3    H247841   2.075   2.934   0.144 -0.1455 -0.1980  0.7222
 8784TIP3   OH247842   5.095   3.003  14.248  0.0567  0.0089  0.2756
 8784TIP3    H147843   5.012   3.040  14.279 -0.5666 -0.5510 -0.6925
 8784TIP3    H247844   5.095   3.018  14.154  1.0147 -0.0981  0.2506
 8785TIP3   OH247845   6.461   4.200   1.041  0.5865 -0.3878 -0.8541
 8785TIP3    H147846   6.475   4.148   1.120  0.0518  0.4065 -0.2287
 8785TIP3    H247847   6.367   4.196   1.026  0.0875  2.5672  0.7624
 8786TIP3   OH247848   6.343   5.894  17.542 -0.3120 -0.2296  0.6636
 8786TIP3    H147849   6.359   5.813  17.495 -1.1394 -0.4826  0.8026
 8786TIP3    H247850   6.374   5.877  17.631 -1.6100 -0.8424  1.0298
 8787TIP3   OH247851   2.984   3.087   6.398 -0.2689 -1.0010 -0.0166
 8787TIP3    H147852   2.963   3.137   6.476 -1.4619 -0.6050 -0.5724
 8787TIP3    H247853   2.901   3.049   6.370 -0.0494 -0.4564 -1.5475
 8788TIP3   OH247854   6.626   6.693  12.926 -0.0576  0.0512 -0.2862
 8788TIP3    H147855   6.624   6.690  13.021  1.2938  0.7280 -0.2236
 8788TIP3    H247856   6.690   6.626  12.901 -0.1399  0.1288 -0.7132
 8789TIP3   OH247857   5.890   5.816  15.000  0.1315  0.3221 -0.1850
 8789TIP3    H147858   5.912   5.896  15.049 -0.0225  0.2238  0.0424
 8789TIP3    H247859   5.818   5.777  15.048  1.7850 -1.2710  1.1373
 8790TIP3   OH247860   4.022   1.764   2.791  0.2654  0.1073  0.2305
 8790TIP3    H147861   4.011   1.700   2.861 -2.9070 -0.4475 -0.6371
 8790TIP3    H247862   4.044   1.711   2.714  1.7632  0.5355  0.3257
 8791TIP3   OH247863   1.024   6.618  12.957 -0.3965 -0.3159  0.0718
 8791TIP3    H147864   0.996   6.615  13.049  0.1575 -0.2286  0.2454
 8791TIP3    H247865   1.059   6.707  12.946  1.4722 -0.9760  0.3525
 8792TIP3   OH247866   2.298   3.821   0.872 -0.0209  0.4356 -0.1882
 8792TIP3    H147867   2.300   3.889   0.804 -1.5762 -0.3103 -1.0276
 8792TIP3    H247868   2.305   3.739   0.823  0.2938 -0.0650  0.6881
 8793TIP3   OH247869   3.275   6.513   5.543 -0.6680  0.0526 -0.9577
 8793TIP3    H147870   3.181   6.521   5.531 -0.5448 -0.1842 -2.2794
 8793TIP3    H247871   3.287   6.427   5.584 -0.9755 -0.4686 -1.9162
 8794TIP3   OH247872   0.327   3.787   2.557  0.8824  0.2262  0.4078
 8794TIP3    H147873   0.316   3.741   2.474  1.6673  2.3627 -0.9365
 8794TIP3    H247874   0.261   3.857   2.554  1.3213  0.6887  1.3264
 8795TIP3   OH247875   4.223   2.547   3.707 -0.4030 -0.6542  0.1669
 8795TIP3    H147876   4.186   2.480   3.764 -0.3562 -1.2136 -0.4521
 8795TIP3    H247877   4.147   2.598   3.677 -0.3116  0.5102  1.7840
 8796TIP3   OH247878   6.706   0.512   3.135  0.3106  0.1155  0.6664
 8796TIP3    H147879   6.644   0.457   3.183 -2.7011  2.0387 -0.7158
 8796TIP3    H247880   6.712   0.593   3.186  1.2494  0.1886  0.4642
 8797TIP3   OH247881   5.716   4.817  11.786  0.6072 -0.0907 -0.1571
 8797TIP3    H147882   5.781   4.876  11.825  0.1925  1.1729 -1.3116
 8797TIP3    H247883   5.738   4.816  11.693 -0.7539  0.0177 -0.4962
 8798TIP3   OH247884   3.512   1.328  12.521 -0.1678  0.7237  0.2387
 8798TIP3    H147885   3.530   1.241  12.557 -0.7214 -0.0964 -1.3748
 8798TIP3    H247886   3.423   1.348  12.550 -0.7165 -0.0545 -0.8466
 8799TIP3   OH247887   1.091   6.456  15.382 -0.0943 -0.6725  0.0361
 8799TIP3    H147888   1.055   6.426  15.298 -0.7809 -2.1144  0.8064
 8799TIP3    H247889   1.165   6.512  15.358 -1.1335  0.0989 -1.5505
 8800TIP3   OH247890   3.070   4.979  17.568 -0.6371 -0.2477  0.3432
 8800TIP3    H147891   3.062   5.040  17.494  0.1310 -2.5426 -1.7734
 8800TIP3    H247892   2.994   4.922  17.561  0.4316 -1.7018  0.0716
 8801TIP3   OH247893   0.967   6.322  10.677 -0.1327 -0.4929  0.4199
 8801TIP3    H147894   0.909   6.399  10.683  1.0714  0.3969  1.0721
 8801TIP3    H247895   0.993   6.320  10.585 -1.0671 -0.8072  0.1541
 8802TIP3   OH247896   0.462   3.469   0.852  0.2333 -0.0107 -0.6582
 8802TIP3    H147897   0.383   3.517   0.831  0.6913 -0.7660 -4.8802
 8802TIP3    H247898   0.431   3.385   0.887 -0.5873  1.4447  2.5027
 8803TIP3   OH247899   0.240   5.600   0.515 -0.0904 -0.0064 -0.0543
 8803TIP3    H147900   0.193   5.521   0.542 -1.5077  0.2954 -1.5005
 8803TIP3    H247901   0.313   5.567   0.463 -1.2751 -0.3955 -1.5612
 8804TIP3   OH247902   3.740   2.144  12.909 -0.6771 -0.5612  0.1568
 8804TIP3    H147903   3.812   2.096  12.951 -0.5362 -0.7595 -0.3108
 8804TIP3    H247904   3.692   2.076  12.861 -0.1934 -0.1573 -0.9166
 8805TIP3   OH247905   2.857   0.278   1.549  0.0284  0.4208 -0.3144
 8805TIP3    H147906   2.927   0.224   1.585 -1.4668 -1.7057 -0.4201
 8805TIP3    H247907   2.866   0.270   1.454 -0.0192  0.5855 -0.3327
 8806TIP3   OH247908   4.052   5.659   5.608 -0.0710 -0.5829  0.0236
 8806TIP3    H147909   4.119   5.678   5.542 -1.4596  0.6046 -1.1398
 8806TIP3    H247910   4.042   5.564   5.605  0.9562 -0.6951 -0.3784
 8807TIP3   OH247911   4.641   1.534  13.211 -0.1597 -0.4587  0.1297
 8807TIP3    H147912   4.575   1.468  13.229  1.1421 -1.8533 -0.0011
 8807TIP3    H247913   4.710   1.517  13.275  0.3665  0.5252 -0.1565
 8808TIP3   OH247914   3.866   6.346   0.310  0.3874  0.1745 -0.0763
 8808TIP3    H147915   3.782   6.392   0.312 -0.2105 -0.8698  1.7519
 8808TIP3    H247916   3.843   6.255   0.327  1.9116 -0.1176  0.5666
 8809TIP3   OH247917   5.881   4.574   3.487 -0.2775 -0.2226 -0.1791
 8809TIP3    H147918   5.891   4.532   3.402 -0.3535 -0.3586 -0.1213
 8809TIP3    H247919   5.920   4.513   3.549 -0.0730 -0.0475 -0.1355
 8810TIP3   OH247920   4.675   1.681   0.304 -0.1277  0.1773 -0.3032
 8810TIP3    H147921   4.722   1.671   0.387  0.1525  0.7693 -0.3825
 8810TIP3    H247922   4.743   1.673   0.237 -0.3811 -0.4689 -0.4869
 8811TIP3   OH247923   2.690   2.859  14.989 -0.3745  0.8697  0.0427
 8811TIP3    H147924   2.611   2.854  14.934  1.5342 -0.1267 -2.8145
 8811TIP3    H247925   2.721   2.949  14.978  0.0078  0.6701 -0.5490
 8812TIP3   OH247926   2.770   4.214   4.825 -0.4270  0.6442  0.5616
 8812TIP3    H147927   2.795   4.296   4.867 -2.3352  0.5851  1.9152
 8812TIP3    H247928   2.682   4.231   4.791 -0.5487 -0.6187  0.2136
 8813TIP3   OH247929   0.643   5.651  16.647  0.2546 -0.1887  0.4780
 8813TIP3    H147930   0.645   5.571  16.594 -0.4775 -0.9053  1.5082
 8813TIP3    H247931   0.580   5.633  16.716  0.9571  0.8461  1.4283
 8814TIP3   OH247932   0.543   4.516  13.540  0.4309 -0.0845  0.0445
 8814TIP3    H147933   0.467   4.573  13.551 -0.3867 -1.5170  2.5578
 8814TIP3    H247934   0.618   4.576  13.539 -0.5593  1.1912 -0.3462
 8815TIP3   OH247935   1.239   0.259  14.240  0.2915 -0.0939  0.5518
 8815TIP3    H147936   1.323   0.281  14.280 -0.1190 -0.6463  1.7759
 8815TIP3    H247937   1.174   0.296  14.300 -0.3519 -1.2353  0.5803
 8816TIP3   OH247938   5.438   3.394   1.871 -0.0294  0.1872  0.1576
 8816TIP3    H147939   5.440   3.304   1.903  1.2224  0.1821  0.1371
 8816TIP3    H247940   5.480   3.390   1.785  0.0846  0.7848  0.1789
 8817TIP3   OH247941   3.730   2.975   6.865  0.6810  0.3163 -0.3842
 8817TIP3    H147942   3.672   3.015   6.800  1.5091  1.1448 -0.6410
 8817TIP3    H247943   3.796   2.929   6.813 -0.1626 -1.2912 -0.0892
 8818TIP3   OH247944   0.818   3.049  16.703 -0.9543 -0.3882  0.6011
 8818TIP3    H147945   0.867   2.995  16.765 -1.0606  0.8064  1.7807
 8818TIP3    H247946   0.760   3.102  16.757 -2.2964 -0.4883 -0.6522
 8819TIP3   OH247947   3.836   0.966  15.247  0.2925  1.2600  0.0455
 8819TIP3    H147948   3.886   1.035  15.205 -0.7759  1.5902 -0.7393
 8819TIP3    H247949   3.746   0.978  15.214  0.1200 -0.6461 -0.3133
 8820TIP3   OH247950   2.214   1.524   4.802 -0.9400  0.2746 -0.5390
 8820TIP3    H147951   2.279   1.587   4.832 -0.7688  0.0735 -0.4843
 8820TIP3    H247952   2.249   1.492   4.719 -1.0203  0.2425 -0.5599
 8821TIP3   OH247953   2.531   2.282  11.486 -0.1103 -0.1361  0.5204
 8821TIP3    H147954   2.582   2.211  11.448  0.8511 -0.0603  1.6122
 8821TIP3    H247955   2.440   2.255  11.475  0.2396 -1.6562  1.1260
 8822TIP3   OH247956   4.692   1.447   3.800 -0.2234  0.9702  0.3271
 8822TIP3    H147957   4.625   1.505   3.836 -0.6772  0.4228  0.3753
 8822TIP3    H247958   4.736   1.410   3.877 -1.8261 -0.9431  0.3947
 8823TIP3   OH247959   5.542   2.850  14.235 -0.1505 -0.0120 -0.5784
 8823TIP3    H147960   5.610   2.826  14.298 -2.2226 -3.3280  0.6795
 8823TIP3    H247961   5.487   2.913  14.281 -0.4125 -0.7451  0.1272
 8824TIP3   OH247962   3.190   0.694   0.697  0.3129  0.5795  0.5896
 8824TIP3    H147963   3.209   0.730   0.784  1.7529  0.7462  0.2426
 8824TIP3    H247964   3.242   0.749   0.637  0.2188 -0.2257 -0.2498
 8825TIP3   OH247965   2.083   0.177  12.082  0.3469 -0.9382 -0.9028
 8825TIP3    H147966   2.105   0.102  12.027  0.2761 -2.1515  0.6545
 8825TIP3    H247967   2.070   0.249  12.021  0.8274 -2.0934 -2.4127
 8826TIP3   OH247968   5.519   0.919  13.927 -0.2107  0.2962 -0.1086
 8826TIP3    H147969   5.439   0.867  13.927 -0.3224  0.4705 -0.2227
 8826TIP3    H247970   5.587   0.857  13.954 -0.4386  0.2386  0.3468
 8827TIP3   OH247971   1.502   3.520   4.246 -0.2871 -0.1667 -0.1481
 8827TIP3    H147972   1.595   3.499   4.253  0.2692  2.5608  2.7036
 8827TIP3    H247973   1.457   3.444   4.284  1.0270 -0.1784  1.4777
 8828TIP3   OH247974   5.295   0.783  14.012 -0.2779  0.5599 -0.0142
 8828TIP3    H147975   5.313   0.699  14.055 -0.4967 -0.3984 -1.6822
 8828TIP3    H247976   5.287   0.760  13.919 -0.5264  2.4181 -0.4801
 8829TIP3   OH247977   1.513   5.796  13.528  0.0128  0.4791  1.1201
 8829TIP3    H147978   1.591   5.771  13.479 -0.6976 -1.0051  0.7080
 8829TIP3    H247979   1.481   5.874  13.483  0.7262  0.5509  0.7188
 8830TIP3   OH247980   4.271   5.353   5.085 -0.2441  0.7037 -0.3963
 8830TIP3    H147981   4.228   5.416   5.143 -2.2246 -1.2951  0.4496
 8830TIP3    H247982   4.268   5.270   5.133  1.6088 -0.2276 -1.7708
 8831TIP3   OH247983   1.671   5.790   5.614 -0.4157 -0.3396  0.1316
 8831TIP3    H147984   1.661   5.729   5.540 -0.2936 -1.1240  0.7477
 8831TIP3    H247985   1.593   5.844   5.611 -1.1908 -1.4192  0.3687
 8832TIP3   OH247986   2.629   2.939   2.977  0.7428 -0.0378  0.0559
 8832TIP3    H147987   2.708   2.966   2.931  0.2122 -1.2909 -1.6495
 8832TIP3    H247988   2.585   2.878   2.918  0.6193 -2.7222  2.6697
 8833TIP3   OH247989   2.161   0.676  14.698 -0.6347 -0.3119  0.0254
 8833TIP3    H147990   2.196   0.747  14.643 -0.2548 -0.4311  0.1092
 8833TIP3    H247991   2.178   0.597  14.647 -1.1217 -0.3385 -0.0990
 8834TIP3   OH247992   0.843   4.620  17.053 -0.7347 -0.5276  0.2504
 8834TIP3    H147993   0.865   4.693  17.110  0.4564 -0.6687  0.0022
 8834TIP3    H247994   0.870   4.649  16.966  0.6946 -1.6117  0.2904
 8835TIP3   OH247995   5.679   2.422   6.625 -0.8722  0.2751 -0.1369
 8835TIP3    H147996   5.600   2.476   6.620 -0.9791  0.0925 -0.4480
 8835TIP3    H247997   5.648   2.334   6.647 -0.6754  0.3923  0.6232
 8836TIP3   OH247998   4.275   2.961  15.540 -0.4393  0.9002  0.0352
 8836TIP3    H147999   4.354   3.011  15.564  0.5421 -0.4177 -0.3262
 8836TIP3    H248000   4.227   2.951  15.622 -0.3309  1.8613  0.2314
 8837TIP3   OH248001   4.057   2.218  16.594  0.1559  0.1874 -0.2560
 8837TIP3    H148002   4.100   2.295  16.557 -1.9681  1.8308  0.4992
 8837TIP3    H248003   4.047   2.158  16.520  2.7994  0.1027 -0.6444
 8838TIP3   OH248004   2.085   1.728   3.967 -0.0527 -0.4163  0.3895
 8838TIP3    H148005   2.067   1.654   3.910 -2.0279 -0.5105  1.0602
 8838TIP3    H248006   2.025   1.717   4.041  1.1732  0.6566  1.6066
 8839TIP3   OH248007   6.072   1.685  13.121 -0.2206 -0.5068 -0.2775
 8839TIP3    H148008   6.009   1.755  13.102  0.6285  0.5252  0.5487
 8839TIP3    H248009   6.102   1.704  13.210  1.8750 -0.4409 -0.9445
 8840TIP3   OH248010   4.834   3.969   4.118  0.1863  0.0699 -0.6473
 8840TIP3    H148011   4.906   4.031   4.121  0.1237  0.2051 -1.6761
 8840TIP3    H248012   4.757   4.022   4.096 -0.1289 -0.1689 -0.1702
 8841TIP3   OH248013   5.236   4.843  14.198  0.0486  0.5833  0.1104
 8841TIP3    H148014   5.271   4.905  14.134  1.3098 -0.6396 -0.4472
 8841TIP3    H248015   5.298   4.771  14.198 -0.4129  0.1101  2.0544
 8842TIP3   OH248016   5.331   4.886  13.124  0.2878  0.0197  0.2855
 8842TIP3    H148017   5.245   4.898  13.164  0.0738  0.4022 -0.2789
 8842TIP3    H248018   5.377   4.825  13.182  0.5523  1.7369  1.9479
 8843TIP3   OH248019   4.655   3.414  13.921  0.6798  0.1237  0.1478
 8843TIP3    H148020   4.588   3.390  13.857 -0.4642 -0.3933  1.4872
 8843TIP3    H248021   4.606   3.446  13.996  1.9852  0.5603  0.8530
 8844TIP3   OH248022   4.884   1.624   0.473  0.0627 -0.3037  0.3297
 8844TIP3    H148023   4.943   1.649   0.401 -0.3480 -1.5005 -0.4532
 8844TIP3    H248024   4.930   1.555   0.519 -0.1113 -0.2429  0.5950
 8845TIP3   OH248025   3.633   5.445  13.383  0.2248 -0.1500  0.3323
 8845TIP3    H148026   3.674   5.383  13.323  0.1631 -0.7940  0.9400
 8845TIP3    H248027   3.679   5.527  13.368  0.6138 -0.4538 -0.1648
 8846TIP3   OH248028   0.940   4.083   1.578 -0.1074  0.2529  0.4097
 8846TIP3    H148029   1.016   4.130   1.613  2.3223 -2.1219 -1.2317
 8846TIP3    H248030   0.959   4.074   1.485 -1.1881 -2.5055  0.3773
 8847TIP3   OH248031   4.765   3.594  12.744  0.1832 -0.0920  0.3759
 8847TIP3    H148032   4.728   3.668  12.697 -0.2683 -1.3928 -1.4210
 8847TIP3    H248033   4.827   3.633  12.806 -0.2199  1.7733 -0.3362
 8848TIP3   OH248034   0.968   4.359   3.128 -0.0799 -0.3878 -0.4334
 8848TIP3    H148035   1.019   4.279   3.117 -0.0611 -0.2417 -1.5185
 8848TIP3    H248036   0.975   4.379   3.222  1.5848 -0.5605 -0.4783
 8849TIP3   OH248037   5.479   1.148   6.725 -0.3739 -0.4073 -0.1588
 8849TIP3    H148038   5.399   1.121   6.681  1.1042 -0.7496 -2.8268
 8849TIP3    H248039   5.539   1.172   6.655  1.3676  1.4050  1.7946
 8850TIP3   OH248040   0.420   0.778   5.265  0.3282  0.3087 -0.3013
 8850TIP3    H148041   0.483   0.707   5.253  3.1242  1.7202  3.7050
 8850TIP3    H248042   0.377   0.759   5.349  0.9799  3.0063  0.7797
 8851TIP3   OH248043   4.463   0.381  14.979 -0.0501 -0.4547 -0.4809
 8851TIP3    H148044   4.421   0.311  14.929 -0.3082 -1.7422  1.3864
 8851TIP3    H248045   4.431   0.368  15.069  0.8682  1.3265  0.1518
 8852TIP3   OH248046   3.053   4.127   3.028 -0.7367 -0.1785 -0.4833
 8852TIP3    H148047   2.986   4.145   3.095 -1.1337  3.0861 -1.5802
 8852TIP3    H248048   3.003   4.101   2.951 -0.4028 -1.9559 -0.1311
 8853TIP3   OH248049   4.513   0.839   0.807  0.0860  0.0565  0.0655
 8853TIP3    H148050   4.423   0.838   0.774  0.0530  0.7378  0.1035
 8853TIP3    H248051   4.530   0.750   0.835 -1.0620  0.2056  1.3382
 8854TIP3   OH248052   3.869   4.641  13.442 -0.7933  0.6253 -0.1080
 8854TIP3    H148053   3.938   4.679  13.497  0.5913 -2.4469  0.4644
 8854TIP3    H248054   3.912   4.623  13.359 -1.4743  0.4986 -0.4338
 8855TIP3   OH248055   3.454   2.399   1.157 -0.2492  0.1387 -0.0916
 8855TIP3    H148056   3.535   2.373   1.114 -0.4436 -0.6668  0.0151
 8855TIP3    H248057   3.478   2.475   1.209  0.4859 -0.2114  0.0967
 8856TIP3   OH248058   3.664   1.680  16.686  0.1845  0.6016  0.1606
 8856TIP3    H148059   3.732   1.640  16.740 -0.8722  0.1158  1.2016
 8856TIP3    H248060   3.602   1.718  16.750 -1.2352 -0.2103 -0.6762
 8857TIP3   OH248061   6.430   5.498  15.022  0.4030  0.9812 -0.2043
 8857TIP3    H148062   6.505   5.470  14.970 -0.8867  0.8585 -2.0928
 8857TIP3    H248063   6.393   5.572  14.974  0.0780  1.9213  1.4047
 8858TIP3   OH248064   6.490   3.518  12.984  0.3423  0.5293  0.0301
 8858TIP3    H148065   6.559   3.457  12.960 -0.1397 -0.2902  0.6643
 8858TIP3    H248066   6.536   3.593  13.022  1.0904  1.5893 -2.7336
 8859TIP3   OH248067   1.575   3.194  12.574 -0.0482 -0.5980 -0.3995
 8859TIP3    H148068   1.621   3.134  12.515  1.1194 -0.1668  0.0350
 8859TIP3    H248069   1.483   3.182  12.553  0.3452 -0.1988 -2.5697
 8860TIP3   OH248070   1.655   4.920  12.167  0.1887 -0.8081  0.3572
 8860TIP3    H148071   1.681   4.888  12.254  2.0992  0.1360  0.1902
 8860TIP3    H248072   1.734   4.913  12.114 -0.0890  1.4018 -0.4762
 8861TIP3   OH248073   2.777   1.023  13.338  0.1398 -0.0421  0.0516
 8861TIP3    H148074   2.695   1.071  13.347 -0.6359 -1.1776 -0.6369
 8861TIP3    H248075   2.800   0.997  13.427  0.2622  1.0849  0.3595
 8862TIP3   OH248076   0.624   6.024   0.553  0.5524 -0.1705  0.1830
 8862TIP3    H148077   0.614   6.030   0.458  0.1450 -0.8043  0.1805
 8862TIP3    H248078   0.688   6.092   0.575  0.4142  0.1852 -0.5038
 8863TIP3   OH248079   3.764   3.788   4.459 -0.1231  0.5204  0.1519
 8863TIP3    H148080   3.731   3.708   4.499 -0.3981  1.0430  0.9989
 8863TIP3    H248081   3.796   3.761   4.373 -0.8804 -0.3712  0.1328
 8864TIP3   OH248082   4.360   3.149   0.995 -0.3271  0.2987  0.1374
 8864TIP3    H148083   4.385   3.169   1.085  0.1486 -0.1508  0.1095
 8864TIP3    H248084   4.420   3.199   0.941 -0.8549  0.8630  0.0621
 8865TIP3   OH248085   5.081   0.987   4.461 -0.1500 -0.0005 -0.0973
 8865TIP3    H148086   5.007   0.965   4.517  0.0557 -0.7493 -0.0977
 8865TIP3    H248087   5.156   0.990   4.521  0.0592 -0.7358 -0.3122
 8866TIP3   OH248088   4.763   3.162  16.574 -0.0733  0.2383 -0.0819
 8866TIP3    H148089   4.739   3.130  16.487 -2.2186 -1.0052  0.8650
 8866TIP3    H248090   4.685   3.211  16.604  0.2081 -0.2126  1.5024
 8867TIP3   OH248091   0.725   3.557   3.442 -0.2205 -0.1813 -0.3224
 8867TIP3    H148092   0.767   3.471   3.438  0.1082 -0.1847  1.8774
 8867TIP3    H248093   0.641   3.542   3.486 -0.3640  0.5516 -0.3235
 8868TIP3   OH248094   6.650   0.019   0.584 -0.0687 -0.0875  0.9178
 8868TIP3    H148095   6.730   0.072   0.590 -0.7948  1.0487  0.8708
 8868TIP3    H248096   6.614   0.040   0.498 -0.4609 -0.5351  0.9687
 8869TIP3   OH248097   0.694   3.070  11.734 -0.2756 -0.1456 -0.5102
 8869TIP3    H148098   0.761   3.098  11.672  0.3965  0.7259  0.5783
 8869TIP3    H248099   0.652   3.151  11.764  0.0535 -0.4442  0.8645
 8870TIP3   OH248100   3.419   1.308   0.251 -0.1397  0.4381  0.6789
 8870TIP3    H148101   3.362   1.254   0.306  1.2652 -1.0945  0.7428
 8870TIP3    H248102   3.375   1.311   0.166 -0.6416 -0.1398  0.9115
 8871TIP3   OH248103   0.382   0.313  11.855  0.1814 -0.5449 -0.3133
 8871TIP3    H148104   0.371   0.358  11.939  2.5178 -0.8538  0.2463
 8871TIP3    H248105   0.394   0.383  11.791 -1.9608 -0.2974 -0.4870
 8872TIP3   OH248106   0.244   5.867   2.200 -0.4055 -0.2769  0.4154
 8872TIP3    H148107   0.206   5.804   2.139  0.7231  0.2253 -0.8504
 8872TIP3    H248108   0.202   5.950   2.178 -1.2328 -0.3836  1.4868
 8873TIP3   OH248109   0.363   4.940   6.160  0.1707  0.1484 -0.4500
 8873TIP3    H148110   0.296   5.007   6.144  2.1503  2.6748  1.0638
 8873TIP3    H248111   0.331   4.891   6.235 -0.1763  1.0830  0.0290
 8874TIP3   OH248112   5.584   1.491  15.168  0.0810 -0.2707 -0.2345
 8874TIP3    H148113   5.602   1.410  15.121 -0.5841 -0.6553  0.1625
 8874TIP3    H248114   5.525   1.540  15.111 -0.8289 -0.7937  0.2480
 8875TIP3   OH248115   6.190   3.934   2.335 -0.0723  0.9382 -0.0027
 8875TIP3    H148116   6.113   3.979   2.300 -1.7704 -0.0581  2.1961
 8875TIP3    H248117   6.228   3.891   2.259 -1.1875  2.1528 -1.3161
 8876TIP3   OH248118   6.296   4.928   0.143  0.1137  0.4205 -0.0143
 8876TIP3    H148119   6.256   4.848   0.177  0.0798 -0.5657 -2.1886
 8876TIP3    H248120   6.222   4.983   0.117  0.1553  0.5929  0.2241
 8877TIP3   OH248121   1.032   4.419   2.178  0.6843  0.1392 -0.3187
 8877TIP3    H148122   1.003   4.504   2.213  0.6313  0.2603 -0.6549
 8877TIP3    H248123   1.031   4.431   2.083 -0.7374 -0.6997 -0.4301
 8878TIP3   OH248124   6.654   5.758   4.234  0.3722  0.0398  0.0631
 8878TIP3    H148125   6.747   5.754   4.215  0.3055  1.9055 -0.8674
 8878TIP3    H248126   6.642   5.698   4.307  1.7387 -2.6113 -1.7395
 8879TIP3   OH248127   4.705   1.494   6.029  0.6200  0.5723 -0.2902
 8879TIP3    H148128   4.729   1.450   6.110  1.0923 -1.1139 -1.3038
 8879TIP3    H248129   4.785   1.494   5.977  0.4717  2.1152 -0.5869
 8880TIP3   OH248130   4.981   1.512  14.275  0.1561  0.2140  0.4106
 8880TIP3    H148131   5.016   1.581  14.332 -1.0692  0.7786  0.5072
 8880TIP3    H248132   5.039   1.512  14.200  1.7941 -0.5260  1.6158
 8881TIP3   OH248133   2.456   2.936   5.814  0.2322 -0.0053  0.1491
 8881TIP3    H148134   2.495   3.001   5.755  1.0192  1.0513  1.7515
 8881TIP3    H248135   2.386   2.982   5.859  0.8556 -0.2015  1.3770
 8882TIP3   OH248136   3.857   1.639  12.255 -0.1194  0.2806  0.5812
 8882TIP3    H148137   3.787   1.670  12.313 -1.2042  0.2246 -0.6468
 8882TIP3    H248138   3.840   1.545  12.246 -0.5095  0.4422 -0.5107
 8883TIP3   OH248139   1.609   1.778  17.176 -0.5335 -0.0445 -0.0957
 8883TIP3    H148140   1.625   1.847  17.112  0.9195 -0.7417 -0.5400
 8883TIP3    H248141   1.670   1.708  17.151  1.2436  0.2449  2.9163
 8884TIP3   OH248142   5.402   0.899   0.729  0.0737  0.3589 -0.1658
 8884TIP3    H148143   5.324   0.856   0.694  0.1317  0.2569 -0.1676
 8884TIP3    H248144   5.427   0.846   0.804 -0.6587  1.1502  0.6711
 8885TIP3   OH248145   5.214   5.083  17.209  0.0305  0.3580  0.1042
 8885TIP3    H148146   5.243   5.169  17.181  1.2493  0.0370  0.3516
 8885TIP3    H248147   5.141   5.100  17.269  0.1300  1.1957 -0.0095
 8886TIP3   OH248148   6.442   3.011   5.089  0.6216 -0.1184 -0.9706
 8886TIP3    H148149   6.395   2.943   5.041 -1.2658 -1.3993  2.3465
 8886TIP3    H248150   6.374   3.074   5.112  1.2866  0.0599  0.5796
 8887TIP3   OH248151   4.032   0.014  14.586  0.8159 -0.8056  0.0324
 8887TIP3    H148152   4.063   0.055  14.506 -3.3400  2.2863 -0.3289
 8887TIP3    H248153   4.044   0.082  14.653 -0.5098 -1.3158  0.8211
 8888TIP3   OH248154   1.402   0.411  11.482 -0.2081 -0.4387 -0.0806
 8888TIP3    H148155   1.455   0.443  11.409 -0.7780 -0.5399 -0.5445
 8888TIP3    H248156   1.444   0.448  11.560  1.3336 -1.5844 -0.3182
 8889TIP3   OH248157   4.943   3.385   0.789 -0.1357  0.2944  0.5497
 8889TIP3    H148158   4.893   3.467   0.779  0.3801  0.8515  2.1921
 8889TIP3    H248159   4.940   3.367   0.883 -0.5313 -1.7903  0.1804
 8890TIP3   OH248160   3.568   2.741   0.023 -0.3590 -1.1538 -0.2039
 8890TIP3    H148161   3.477   2.765   0.004  0.0405  1.7117  1.0943
 8890TIP3    H248162   3.573   2.739   0.119  1.2001 -0.1206 -0.2405
 8891TIP3   OH248163   6.725   2.043   2.997  0.4151  0.2159 -0.2565
 8891TIP3    H148164   6.728   2.130   3.037 -1.7725 -0.7402  2.3203
 8891TIP3    H248165   6.633   2.032   2.972  0.0040 -2.2915  1.9822
 8892TIP3   OH248166   0.836   5.524  17.097 -0.4595 -0.0978  0.3394
 8892TIP3    H148167   0.775   5.453  17.075  0.1962 -0.6099  0.1512
 8892TIP3    H248168   0.819   5.542  17.190 -1.7096  0.5759  0.0014
 8893TIP3   OH248169   1.337   5.094   2.133  0.3358 -0.3782  0.3950
 8893TIP3    H148170   1.304   5.100   2.043  1.7255  0.5793 -0.0834
 8893TIP3    H248171   1.432   5.098   2.124  1.0610 -6.2269  1.4359
 8894TIP3   OH248172   3.017   5.853  11.602 -0.3598  0.6424  0.4642
 8894TIP3    H148173   2.991   5.859  11.511  0.0113  0.1276  0.3179
 8894TIP3    H248174   2.935   5.861  11.652 -0.6071  0.5230  0.0746
 8895TIP3   OH248175   6.206   1.526   0.382 -0.4468  0.1144 -0.0669
 8895TIP3    H148176   6.143   1.587   0.342  0.9721  1.9228  0.3218
 8895TIP3    H248177   6.179   1.440   0.350 -2.7449  0.8756 -0.3790
 8896TIP3   OH248178   0.416   5.888   4.004 -0.5836  0.0626 -0.9101
 8896TIP3    H148179   0.447   5.973   4.037  0.6703 -0.2164 -1.3115
 8896TIP3    H248180   0.462   5.877   3.921 -0.9783 -0.8776 -1.0084
 8897TIP3   OH248181   6.014   5.914  17.050  0.5382  0.0536  0.3363
 8897TIP3    H148182   6.004   6.002  17.014 -0.1410  0.1178  0.6746
 8897TIP3    H248183   6.070   5.927  17.127 -0.1016  0.2992  0.7739
 8898TIP3   OH248184   6.596   0.139   3.024 -0.5098  0.3545 -0.0808
 8898TIP3    H148185   6.662   0.122   3.091  1.2668  0.2963 -1.7840
 8898TIP3    H248186   6.607   0.069   2.960 -0.0512  2.0569 -1.9794
 8899TIP3   OH248187   0.775   6.524  14.326  0.1369 -0.5962  0.1995
 8899TIP3    H148188   0.781   6.602  14.271  0.6272 -1.8792 -1.6700
 8899TIP3    H248189   0.704   6.473  14.287 -0.3110 -1.0238  1.5197
 8900TIP3   OH248190   2.079   1.503  14.985 -0.1572  0.0830  0.5310
 8900TIP3    H148191   2.159   1.540  15.024 -0.8560 -0.7866  3.0106
 8900TIP3    H248192   2.092   1.512  14.891  2.5491  0.6158  0.8578
 8901TIP3   OH248193   4.230   4.336  16.437  0.4096 -0.0481 -0.3384
 8901TIP3    H148194   4.304   4.277  16.428  1.2683  1.0599 -0.8253
 8901TIP3    H248195   4.189   4.311  16.519  1.4370 -0.5741  0.0327
 8902TIP3   OH248196   1.119   3.219  17.563  0.3685  0.2978 -0.0882
 8902TIP3    H148197   1.044   3.267  17.599  0.1943  1.5157 -1.9643
 8902TIP3    H248198   1.118   3.136  17.610 -1.0717  0.9814  1.2018
 8903TIP3   OH248199   0.587   2.951   1.699 -0.0687 -0.0770  0.3203
 8903TIP3    H148200   0.586   3.046   1.707  0.4857 -0.0819  0.4820
 8903TIP3    H248201   0.621   2.934   1.611  0.1590 -0.1341  0.4207
 8904TIP3   OH248202   1.174   4.768   2.024 -0.3373  0.1429  0.6331
 8904TIP3    H148203   1.223   4.720   2.091  0.3490 -1.8679 -1.1812
 8904TIP3    H248204   1.240   4.817   1.975 -0.3661 -0.8661 -0.4660
 8905TIP3   OH248205   2.580   2.596  13.080  0.0817 -0.7400  0.1813
 8905TIP3    H148206   2.487   2.576  13.091  0.1721 -0.8472  0.8116
 8905TIP3    H248207   2.623   2.511  13.072  0.2474 -0.7429  0.9913
 8906TIP3   OH248208   2.560   4.503   5.756  0.4208 -0.4380 -1.1178
 8906TIP3    H148209   2.503   4.426   5.752 -1.8696  1.1425 -1.1838
 8906TIP3    H248210   2.568   4.530   5.665 -0.7139  0.6658 -0.9150
 8907TIP3   OH248211   3.544   2.278  11.760  0.2845  0.0317 -0.1239
 8907TIP3    H148212   3.620   2.254  11.706 -0.3995 -1.1773 -0.6130
 8907TIP3    H248213   3.572   2.262  11.850  0.5087 -0.7544 -0.3238
 8908TIP3   OH248214   4.910   2.379  13.888 -0.1614 -1.0768  0.1820
 8908TIP3    H148215   4.873   2.440  13.952 -1.7092 -0.7587 -0.9513
 8908TIP3    H248216   4.956   2.434  13.825 -1.3204 -1.0603 -0.6860
 8909TIP3   OH248217   0.779   4.595   4.867 -0.2507  0.5368 -0.2089
 8909TIP3    H148218   0.729   4.617   4.789  1.2885  0.6880 -1.2052
 8909TIP3    H248219   0.725   4.532   4.914 -1.3119  0.6187 -1.2842
 8910TIP3   OH248220   1.415   1.424   0.827  0.2880 -0.1934 -0.2707
 8910TIP3    H148221   1.446   1.351   0.881  1.3017 -1.0330 -1.9016
 8910TIP3    H248222   1.485   1.439   0.764 -0.6139  1.1192 -1.0226
 8911TIP3   OH248223   0.131   1.450  13.819  0.2960  0.0825  0.5843
 8911TIP3    H148224   0.147   1.367  13.865  0.6075  0.8182  1.8590
 8911TIP3    H248225   0.204   1.458  13.758 -1.6103 -2.3258 -2.3056
 8912TIP3   OH248226   5.940   3.169  15.354 -0.0414 -0.4294  0.3122
 8912TIP3    H148227   5.903   3.153  15.267  0.1914  1.5129 -0.1863
 8912TIP3    H248228   6.032   3.191  15.337 -0.2088  0.8163  0.9605
 8913TIP3   OH248229   2.387   2.931   0.211  0.2612 -1.0343 -0.6851
 8913TIP3    H148230   2.301   2.890   0.202  0.1381 -0.9177 -0.0800
 8913TIP3    H248231   2.395   2.988   0.134 -2.0493  2.2859  1.2833
 8914TIP3   OH248232   4.163   6.397   3.932  0.1374 -0.1404  0.4171
 8914TIP3    H148233   4.171   6.425   3.841 -0.4652 -0.2097  0.3343
 8914TIP3    H248234   4.157   6.478   3.982  0.3134 -0.1029  0.3756
 8915TIP3   OH248235   5.229   3.110   5.872  0.2964  0.1605  0.1579
 8915TIP3    H148236   5.222   3.031   5.926 -0.5839  0.2733  0.2146
 8915TIP3    H248237   5.167   3.096   5.801  0.1633  0.7909  0.1450
 8916TIP3   OH248238   4.588   4.736  16.363  0.1262 -0.5839 -0.1808
 8916TIP3    H148239   4.581   4.803  16.295 -2.2538 -0.9027 -0.3562
 8916TIP3    H248240   4.519   4.673  16.341 -0.9460 -0.5515  2.6500
 8917TIP3   OH248241   3.866   3.184   3.498  0.0672 -0.3486 -0.1764
 8917TIP3    H148242   3.811   3.239   3.553  0.8288  0.1536  0.1015
 8917TIP3    H248243   3.805   3.141   3.438 -0.4912  1.2903 -0.8375
 8918TIP3   OH248244   1.000   2.874   4.253  0.6193 -0.2245  0.9284
 8918TIP3    H148245   0.944   2.952   4.262  0.0309 -0.5673  0.3006
 8918TIP3    H248246   0.954   2.806   4.302  1.1505 -0.1844  1.5038
 8919TIP3   OH248247   1.198   2.954   2.249  0.0396 -0.0795  0.5275
 8919TIP3    H148248   1.271   3.015   2.263  0.6630 -0.8873  0.8396
 8919TIP3    H248249   1.130   2.986   2.309  1.6064 -1.6947  3.3702
 8920TIP3   OH248250   6.466   4.226   0.182  0.4917  0.0258  0.1130
 8920TIP3    H148251   6.404   4.193   0.248  0.8769 -1.5203 -0.2626
 8920TIP3    H248252   6.431   4.312   0.158 -2.7404 -1.5431 -1.5465
 8921TIP3   OH248253   0.419   3.806  13.724 -0.7284  0.6873  0.3376
 8921TIP3    H148254   0.503   3.759  13.729 -1.6790 -1.1553 -0.1166
 8921TIP3    H248255   0.396   3.823  13.816 -0.9810 -0.9509  0.6018
 8922TIP3   OH248256   6.645   2.294  13.590  0.2474  0.2345 -0.1358
 8922TIP3    H148257   6.554   2.292  13.619 -0.0743 -1.4767 -1.1195
 8922TIP3    H248258   6.678   2.379  13.618 -1.5332  0.7219  0.5814
 8923TIP3   OH248259   4.745   5.060  17.190  0.5780 -0.4615  0.0556
 8923TIP3    H148260   4.711   5.004  17.120 -1.2018  0.5386  0.0667
 8923TIP3    H248261   4.752   5.147  17.150 -0.2060  0.0684  1.0108
 8924TIP3   OH248262   2.548   1.108   0.852 -0.2487  0.0794  0.2397
 8924TIP3    H148263   2.466   1.104   0.903 -0.3942  1.1109  0.1075
 8924TIP3    H248264   2.524   1.073   0.767 -0.3698 -0.3069  0.4304
 8925TIP3   OH248265   5.780   3.146  16.614  0.7388  0.1174 -0.0021
 8925TIP3    H148266   5.833   3.145  16.693 -0.5942  2.2485  1.0213
 8925TIP3    H248267   5.690   3.139  16.646  0.1478  1.4187 -1.2698
 8926TIP3   OH248268   0.799   5.893   3.796  0.0324  0.3336  0.3903
 8926TIP3    H148269   0.766   5.827   3.735  1.3663 -0.8316  0.8880
 8926TIP3    H248270   0.884   5.919   3.761  0.4489  0.2504  1.2970
 8927TIP3   OH248271   2.049   5.847   2.696 -0.2163  0.5120 -0.0522
 8927TIP3    H148272   2.109   5.821   2.626 -0.1100 -1.0991  0.5970
 8927TIP3    H248273   1.962   5.836   2.657 -0.1563 -0.3124  0.0230
 8928TIP3   OH248274   0.226   3.623  11.499 -0.2825 -0.4815 -0.0288
 8928TIP3    H148275   0.156   3.656  11.443 -0.2498  1.3274  0.9319
 8928TIP3    H248276   0.181   3.566  11.562 -0.6338 -0.7391 -0.5086
 8929TIP3   OH248277   0.784   3.738  14.745 -0.0802  0.7158 -0.3084
 8929TIP3    H148278   0.765   3.659  14.795  1.9049  1.2505  1.3992
 8929TIP3    H248279   0.739   3.725  14.662  1.3135 -2.8477 -0.6595
 8930TIP3   OH248280   4.173   5.439   6.066 -0.0362  0.0271 -0.4432
 8930TIP3    H148281   4.128   5.483   5.994  1.8831  1.2040 -0.9953
 8930TIP3    H248282   4.157   5.346   6.052 -1.1419  0.3461 -1.3811
 8931TIP3   OH248283   1.353   6.426   0.199  0.0157 -0.5752  0.5633
 8931TIP3    H148284   1.432   6.441   0.251 -0.1129  0.3474  0.4977
 8931TIP3    H248285   1.338   6.331   0.205  1.5619 -0.8872 -0.0679
 8932TIP3   OH248286   0.387   2.809   4.036  0.3397 -0.2695 -0.7682
 8932TIP3    H148287   0.462   2.829   4.092 -0.7777 -1.3924  1.2730
 8932TIP3    H248288   0.423   2.751   3.969  1.1500 -1.7433  0.8442
 8933TIP3   OH248289   1.906   5.026   1.494 -0.3016 -0.1062 -0.5647
 8933TIP3    H148290   1.837   5.068   1.547 -0.0450 -0.4374  0.0392
 8933TIP3    H248291   1.893   5.061   1.406 -1.7719 -0.7740 -0.6494
 8934TIP3   OH248292   6.516   4.526   2.388  0.0525  0.4206 -0.0783
 8934TIP3    H148293   6.608   4.526   2.412 -0.2072 -0.1694  0.9796
 8934TIP3    H248294   6.481   4.608   2.422  0.8101  2.2004 -3.2108
 8935TIP3   OH248295   2.246   3.796  16.561 -0.4063  0.2528  0.2845
 8935TIP3    H148296   2.317   3.827  16.504 -0.2796  0.6506  0.6512
 8935TIP3    H248297   2.248   3.856  16.636 -1.7075  0.8255 -0.1185
 8936TIP3   OH248298   3.912   1.207   3.134 -0.1425 -0.1118  0.2251
 8936TIP3    H148299   3.919   1.202   3.039  1.6072  1.1664  0.2334
 8936TIP3    H248300   3.863   1.288   3.149 -0.7893 -0.5350  0.4165
 8937TIP3   OH248301   0.709   1.721   0.257  0.0364 -0.1318 -0.1861
 8937TIP3    H148302   0.782   1.673   0.295 -0.5107 -0.2970  0.7034
 8937TIP3    H248303   0.644   1.653   0.237  0.2950 -0.0432 -1.4136
 8938TIP3   OH248304   0.615   6.051  12.725 -0.3439 -0.2648  0.4520
 8938TIP3    H148305   0.639   5.960  12.741  0.4043  0.1584  1.9143
 8938TIP3    H248306   0.696   6.100  12.739 -0.5530  0.5746 -1.0564
 8939TIP3   OH248307   2.414   0.238  15.404 -0.4469 -0.0395  0.2906
 8939TIP3    H148308   2.465   0.267  15.479  0.0731 -1.1362  0.3716
 8939TIP3    H248309   2.402   0.317  15.351  1.3633  0.2446  0.2434
 8940TIP3   OH248310   2.848   1.444   5.750  0.3789  0.2290  0.1177
 8940TIP3    H148311   2.895   1.361   5.738 -0.1152 -0.0956  0.4111
 8940TIP3    H248312   2.861   1.490   5.667  1.4343  0.2617  0.2855
 8941TIP3   OH248313   5.909   3.085   1.194 -0.1563 -0.3949  0.1571
 8941TIP3    H148314   5.991   3.096   1.242  0.4064  3.1261 -1.2871
 8941TIP3    H248315   5.843   3.128   1.249 -0.2962 -0.0460 -0.2720
 8942TIP3   OH248316   1.504   0.553   4.944 -0.3022  0.4567  0.3380
 8942TIP3    H148317   1.471   0.587   5.027  0.2101 -1.1922  1.2466
 8942TIP3    H248318   1.551   0.473   4.967  0.8962  0.5995 -1.3982
 8943TIP3   OH248319   3.139   1.541  14.949  0.0270 -0.8389  0.1321
 8943TIP3    H148320   3.112   1.631  14.931 -0.0091 -1.0283 -0.7930
 8943TIP3    H248321   3.114   1.492  14.871 -0.8160 -1.8419  0.9993
 8944TIP3   OH248322   4.815   3.131   3.237 -0.0816 -0.3044  0.1298
 8944TIP3    H148323   4.858   3.097   3.158 -0.4466 -0.8446  0.1574
 8944TIP3    H248324   4.879   3.191   3.275 -0.0395  0.2372 -0.7617
 8945TIP3   OH248325   4.492   1.067  14.387  0.3715 -0.2894  0.1163
 8945TIP3    H148326   4.528   0.991  14.434  1.4783 -1.6942 -2.7372
 8945TIP3    H248327   4.566   1.128  14.381  0.4106 -0.3784 -0.2998
 8946TIP3   OH248328   4.551   3.326  16.684 -0.1909  0.1561  0.3603
 8946TIP3    H148329   4.487   3.291  16.623 -0.5818  2.9644 -0.9768
 8946TIP3    H248330   4.507   3.324  16.769 -1.0521 -0.3544 -0.0830
 8947TIP3   OH248331   2.320   6.714   6.080  0.3926  0.8012  0.4533
 8947TIP3    H148332   2.250   6.648   6.076  1.5218 -0.4046 -2.9381
 8947TIP3    H248333   2.280   6.794   6.045  0.3838  0.3941 -0.5093
 8948TIP3   OH248334   1.278   0.796   0.467 -0.0016  0.2059  0.0769
 8948TIP3    H148335   1.229   0.833   0.393 -1.0939  2.0586  1.6350
 8948TIP3    H248336   1.370   0.807   0.443 -0.3199 -0.1853 -1.4249
 8949TIP3   OH248337   3.129   3.549   3.722 -0.0960  0.2269  0.5567
 8949TIP3    H148338   3.109   3.622   3.781  0.6619 -0.8865  2.2784
 8949TIP3    H248339   3.047   3.531   3.677 -0.3518  1.9642  0.2815
 8950TIP3   OH248340   5.285   4.502   4.087 -0.0711  0.6188  0.4668
 8950TIP3    H148341   5.286   4.597   4.081 -0.2175  0.6194  0.4685
 8950TIP3    H248342   5.227   4.482   4.160  0.0789  0.5331  0.5637
 8951TIP3   OH248343   2.012   3.401   1.893  0.0821 -0.5018  0.4116
 8951TIP3    H148344   2.084   3.411   1.831 -0.6456 -0.5225 -0.4596
 8951TIP3    H248345   2.006   3.307   1.909  1.2596 -0.3932  1.7512
 8952TIP3   OH248346   2.818   4.652   1.248 -0.2166 -0.0966  0.6405
 8952TIP3    H148347   2.778   4.609   1.172 -0.6477 -0.2003  0.9185
 8952TIP3    H248348   2.867   4.726   1.211  1.2475 -1.3030  0.0753
 8953TIP3   OH248349   2.997   2.461  16.101  0.0163  0.1185 -0.7634
 8953TIP3    H148350   2.960   2.469  16.189 -1.0281 -0.0340 -1.1716
 8953TIP3    H248351   2.922   2.442  16.045  0.7020 -0.0454 -1.6565
 8954TIP3   OH248352   4.767   3.266   1.840  0.2489 -0.6106  0.2149
 8954TIP3    H148353   4.708   3.340   1.858  1.4257  1.0114 -2.0983
 8954TIP3    H248354   4.853   3.306   1.829  1.0394 -2.4159 -0.5386
 8955TIP3   OH248355   2.258   0.038   4.662 -0.4412  0.2243  0.4528
 8955TIP3    H148356   2.349   0.067   4.673  0.4043 -2.1228  0.1143
 8955TIP3    H248357   2.219   0.048   4.749  0.5541 -0.0199  0.9445
 8956TIP3   OH248358   3.476   0.489   4.912 -0.1421  0.1330  0.1310
 8956TIP3    H148359   3.410   0.421   4.909  0.1969 -0.2318  0.7556
 8956TIP3    H248360   3.554   0.446   4.948 -0.9945  1.6736  4.4346
 8957TIP3   OH248361   5.121   2.007   2.641 -0.0096 -0.0715  0.5414
 8957TIP3    H148362   5.149   1.920   2.669  1.1319  0.8956  2.6511
 8957TIP3    H248363   5.067   1.991   2.563 -0.1017 -2.6648  1.0460
 8958TIP3   OH248364   3.727   4.027  15.818  0.4212  0.3055  0.3790
 8958TIP3    H148365   3.670   4.067  15.884  1.3458  1.0608  0.7453
 8958TIP3    H248366   3.692   4.056  15.734 -0.2247  0.0751  0.5636
 8959TIP3   OH248367   5.946   1.659   3.642  0.1177 -0.2218  0.2310
 8959TIP3    H148368   5.925   1.570   3.614  0.3080 -0.6497  1.4038
 8959TIP3    H248369   5.963   1.652   3.736 -0.9621  1.2472  0.5787
 8960TIP3   OH248370   0.661   1.323   5.514  0.1776  0.3238  0.2926
 8960TIP3    H148371   0.620   1.236   5.522  1.7310 -0.4169  0.5083
 8960TIP3    H248372   0.588   1.381   5.491 -1.0322 -0.8944  0.8843
 8961TIP3   OH248373   1.517   1.942  16.281 -0.4255 -0.9724  0.2445
 8961TIP3    H148374   1.591   1.931  16.221 -0.8554 -0.8752 -0.3038
 8961TIP3    H248375   1.558   1.964  16.365  0.1701 -0.8968 -0.0610
 8962TIP3   OH248376   2.987   5.338   5.980  0.0825 -0.4260 -0.4022
 8962TIP3    H148377   3.063   5.328   5.923  1.3907 -1.1640  1.3959
 8962TIP3    H248378   2.952   5.249   5.989 -2.4473  0.1592 -2.9872
 8963TIP3   OH248379   1.051   6.306  13.825  0.2468 -0.1103  0.3386
 8963TIP3    H148380   0.976   6.247  13.819 -0.6480  1.1367 -1.7573
 8963TIP3    H248381   1.069   6.312  13.919  1.4467 -4.8857  0.6481
 8964TIP3   OH248382   2.899   1.496   0.788  0.4599 -0.4510 -0.1094
 8964TIP3    H148383   2.873   1.416   0.742  3.1732 -1.2857 -0.3395
 8964TIP3    H248384   2.876   1.567   0.729  1.0519 -1.3059 -1.4107
 8965TIP3   OH248385   5.425   1.937  14.410  0.1237  0.5174 -0.4302
 8965TIP3    H148386   5.389   2.024  14.425  0.9964  0.8963 -0.4382
 8965TIP3    H248387   5.369   1.898  14.343 -1.1513  0.5079  0.6109
 8966TIP3   OH248388   6.461   4.050  13.813 -0.2354 -0.0295 -0.3432
 8966TIP3    H148389   6.486   4.128  13.763  0.1288  0.6344  0.8429
 8966TIP3    H248390   6.436   3.986  13.746  0.7119  0.6635 -1.3940
 8967TIP3   OH248391   4.299   1.124  16.140 -0.0283 -0.3168  0.6452
 8967TIP3    H148392   4.270   1.214  16.157 -0.2944 -0.3331  0.2699
 8967TIP3    H248393   4.303   1.117  16.045 -0.4504 -0.8417  0.6609
 8968TIP3   OH248394   6.481   1.460   0.486  0.2456  0.4939 -0.0831
 8968TIP3    H148395   6.561   1.481   0.536  0.5683 -1.9332  0.5523
 8968TIP3    H248396   6.411   1.500   0.537  0.9249  1.5783  0.0473
 8969TIP3   OH248397   0.339   1.482   5.936  0.7746 -0.7087 -0.1675
 8969TIP3    H148398   0.276   1.553   5.952 -0.6621 -2.2897  1.6910
 8969TIP3    H248399   0.379   1.504   5.852 -2.0859  0.5350 -1.3479
 8970TIP3   OH248400   5.194   6.134  13.175  0.2642  0.2210 -0.0394
 8970TIP3    H148401   5.265   6.136  13.110  0.1555 -0.0362 -0.1672
 8970TIP3    H248402   5.137   6.063  13.145  0.3684 -0.0934  0.5048
 8971TIP3   OH248403   4.810   2.728  17.187 -0.5185  0.1896 -0.1648
 8971TIP3    H148404   4.723   2.728  17.226  0.3007  0.9886  1.7719
 8971TIP3    H248405   4.814   2.811  17.139  0.0880  1.5315  2.0570
 8972TIP3   OH248406   0.111   1.495   1.036 -0.4476 -0.3190  0.0813
 8972TIP3    H148407   0.095   1.548   0.958  2.6757  1.3978  0.4739
 8972TIP3    H248408   0.094   1.555   1.109 -2.6837 -1.7145  0.8192
 8973TIP3   OH248409   4.681   4.043   0.776 -0.7515 -0.0206  0.0457
 8973TIP3    H148410   4.719   3.965   0.734 -0.3679  0.2681 -0.1535
 8973TIP3    H248411   4.610   4.069   0.717  0.1740  0.7434 -0.7838
 8974TIP3   OH248412   0.541   0.575   2.150 -0.0752 -0.7979  0.4427
 8974TIP3    H148413   0.594   0.518   2.094 -0.0223  0.7250 -1.1456
 8974TIP3    H248414   0.578   0.564   2.237  2.1010 -0.7199 -0.4113
 8975TIP3   OH248415   0.997   4.152  16.888 -0.5409 -0.2061  0.1122
 8975TIP3    H148416   1.085   4.174  16.920  0.2673  0.9845 -2.5817
 8975TIP3    H248417   0.951   4.236  16.887 -1.0102 -0.4631 -0.3682
 8976TIP3   OH248418   1.828   3.914  12.320  0.4616 -0.0352 -0.1723
 8976TIP3    H148419   1.884   3.984  12.352  0.6704  0.0358 -0.6923
 8976TIP3    H248420   1.885   3.837  12.316  0.4323 -0.0466 -0.3669
 8977TIP3   OH248421   3.937   2.667   3.938 -0.3563 -0.1104 -0.0365
 8977TIP3    H148422   3.897   2.587   3.906  2.5929 -2.3092  1.2453
 8977TIP3    H248423   3.887   2.690   4.016 -0.2794 -1.7241  0.5161
 8978TIP3   OH248424   6.090   4.413  14.344  0.2272 -0.0424 -0.1490
 8978TIP3    H148425   6.179   4.405  14.380 -0.5065 -0.4205  1.7166
 8978TIP3    H248426   6.103   4.429  14.251  2.3002  1.3903  0.3015
 8979TIP3   OH248427   2.074   2.549  17.409  0.2701  0.4847 -0.3139
 8979TIP3    H148428   2.054   2.519  17.320  1.2607  0.6199 -0.5954
 8979TIP3    H248429   2.003   2.514  17.463  0.1344 -0.3505 -1.0129
 8980TIP3   OH248430   1.848   1.000  16.317 -0.1745 -0.1018  0.8169
 8980TIP3    H148431   1.836   0.922  16.372 -0.0831  0.9462  2.3922
 8980TIP3    H248432   1.913   1.052  16.363 -0.1197  0.8496 -0.2922
 8981TIP3   OH248433   5.513   5.274   4.575 -0.8321  0.0814  0.0450
 8981TIP3    H148434   5.538   5.356   4.533 -1.6325  0.7299  0.7886
 8981TIP3    H248435   5.560   5.273   4.658 -0.3784 -0.4984 -0.2107
 8982TIP3   OH248436   4.507   5.795  12.689  1.2258 -0.1184  0.0009
 8982TIP3    H148437   4.497   5.856  12.762 -0.2005 -0.2692 -0.0305
 8982TIP3    H248438   4.574   5.835  12.634  1.2027  0.7976  0.6072
 8983TIP3   OH248439   0.960   1.631   5.285 -0.0884 -0.4021  0.0578
 8983TIP3    H148440   1.052   1.626   5.313  0.7455  1.9211 -2.0042
 8983TIP3    H248441   0.923   1.700   5.339 -0.6951 -1.3442  0.8933
 8984TIP3   OH248442   2.828   3.804  16.176  0.1286  0.0222 -0.0863
 8984TIP3    H148443   2.807   3.803  16.083  1.2058 -0.3653 -0.3408
 8984TIP3    H248444   2.765   3.744  16.216 -1.3993  1.4155 -0.2990
 8985TIP3   OH248445   4.034   2.073  11.815 -0.4322 -0.0187  0.0115
 8985TIP3    H148446   3.960   2.023  11.779 -0.0665 -1.3886  1.0454
 8985TIP3    H248447   4.110   2.040  11.769 -0.1317 -0.7781  1.0157
 8986TIP3   OH248448   3.211   1.488  12.370 -0.6101  0.1280  0.1775
 8986TIP3    H148449   3.262   1.470  12.291  0.6308  0.5252  0.8804
 8986TIP3    H248450   3.253   1.563  12.411 -0.7744 -0.5264  1.6253
 8987TIP3   OH248451   2.236   1.712  16.176  0.2286 -0.4066 -0.9012
 8987TIP3    H148452   2.169   1.678  16.236 -1.2936 -0.2282 -2.4376
 8987TIP3    H248453   2.313   1.725  16.232 -1.5964  1.4326  1.4442
 8988TIP3   OH248454   4.533   3.079  15.634  0.4842 -0.0809  0.8694
 8988TIP3    H148455   4.493   3.137  15.699  2.2716  0.6899  1.3449
 8988TIP3    H248456   4.569   3.007  15.685  1.4741  0.2799  0.7005
 8989TIP3   OH248457   4.129   0.375   5.863 -0.8923  0.4002 -0.0293
 8989TIP3    H148458   4.201   0.408   5.916  0.2292  1.5305 -2.1609
 8989TIP3    H248459   4.064   0.345   5.927  0.9472  0.4209  1.9467
 8990TIP3   OH248460   5.851   4.464   0.402  0.1003 -0.4775 -0.1276
 8990TIP3    H148461   5.780   4.401   0.386 -1.4003  1.0879  0.0131
 8990TIP3    H248462   5.843   4.486   0.495 -1.2689  1.9462 -0.7211
 8991TIP3   OH248463   4.030   6.544  17.052  0.4991 -0.3607 -0.0358
 8991TIP3    H148464   3.956   6.599  17.078 -0.5172  0.3486 -3.8093
 8991TIP3    H248465   4.093   6.553  17.124 -1.8529  1.3405  1.9916
 8992TIP3   OH248466   1.697   0.583   5.689  0.3689  0.2368 -0.0906
 8992TIP3    H148467   1.704   0.509   5.749  0.0068  0.1084 -0.1987
 8992TIP3    H248468   1.782   0.588   5.646  0.5130  0.1104  0.1797
 8993TIP3   OH248469   4.046   6.636   3.395  0.1225 -0.3879 -0.4177
 8993TIP3    H148470   4.032   6.557   3.343 -0.3674 -0.6962  0.1762
 8993TIP3    H248471   4.025   6.708   3.336 -1.9266 -0.7629 -0.2206
 8994TIP3   OH248472   0.573   3.937   1.283 -0.5786  0.1039  0.3598
 8994TIP3    H148473   0.490   3.898   1.310  0.0866 -2.5364 -1.0133
 8994TIP3    H248474   0.567   3.942   1.188  0.5815  0.5395  0.2955
 8995TIP3   OH248475   2.398   6.055  10.984  0.4795 -0.0446  0.1646
 8995TIP3    H148476   2.453   6.112  11.038 -0.3919  2.2958 -1.2686
 8995TIP3    H248477   2.311   6.061  11.024  0.0912  0.7692 -0.7520
 8996TIP3   OH248478   4.505   3.110   0.595  0.4795 -0.7036  0.4699
 8996TIP3    H148479   4.463   3.108   0.509  0.5071 -2.3200  0.4739
 8996TIP3    H248480   4.561   3.188   0.592  0.4905 -0.7362 -0.9745
 8997TIP3   OH248481   4.091   0.152  15.495  0.0938  0.7210  0.1864
 8997TIP3    H148482   4.025   0.102  15.447 -0.0290  1.4827 -0.4620
 8997TIP3    H248483   4.094   0.111  15.581  1.0815 -1.3525 -0.7791
 8998TIP3   OH248484   0.173   2.227   6.394 -0.1647 -0.3389  0.5460
 8998TIP3    H148485   0.120   2.163   6.442  0.3250 -0.6379  0.6981
 8998TIP3    H248486   0.112   2.270   6.334 -0.7336 -0.1252  1.2755
 8999TIP3   OH248487   2.426   5.692   4.219  0.1973 -0.2088  0.6469
 8999TIP3    H148488   2.409   5.634   4.145  0.1847  1.3106 -0.6129
 8999TIP3    H248489   2.368   5.662   4.288 -0.8998 -0.7621 -0.4828
 9000TIP3   OH248490   4.332   1.280  14.997 -0.5598 -0.2354 -0.6201
 9000TIP3    H148491   4.405   1.319  15.045 -0.2877 -0.1904 -1.0731
 9000TIP3    H248492   4.359   1.282  14.905 -1.0063 -0.4847 -0.7600
 9001TIP3   OH248493   4.924   0.808  16.827  0.0412 -0.3262 -0.3083
 9001TIP3    H148494   4.902   0.827  16.918 -0.6768  1.9456 -0.8702
 9001TIP3    H248495   4.880   0.726  16.807 -1.2300  0.0220  0.9314
 9002TIP3   OH248496   3.826   0.731  11.925  0.5294  0.2474 -0.5361
 9002TIP3    H148497   3.822   0.813  11.974 -0.6792  0.1116 -0.3829
 9002TIP3    H248498   3.814   0.663  11.992  1.7830 -0.0806 -0.6254
 9003TIP3   OH248499   2.482   0.424  15.634  0.3179  0.0374  0.1882
 9003TIP3    H148500   2.557   0.364  15.638  0.2470  0.0118  1.6085
 9003TIP3    H248501   2.519   0.509  15.658  0.2126  0.3875 -0.8233
 9004TIP3   OH248502   3.801   2.357  12.536  0.1975 -0.2002  0.4603
 9004TIP3    H148503   3.719   2.402  12.520  1.1126  1.0670 -0.9684
 9004TIP3    H248504   3.831   2.329  12.449  0.2009 -2.6656  1.1882
 9005TIP3   OH248505   2.977   1.551   0.283 -0.4514 -0.3667  0.4876
 9005TIP3    H148506   3.034   1.620   0.248 -0.5766 -1.2339 -1.5799
 9005TIP3    H248507   3.027   1.513   0.356  1.8477 -1.3166 -1.4679
 9006TIP3   OH248508   2.985   1.758  14.540  0.4535 -0.7211  0.7936
 9006TIP3    H148509   2.974   1.847  14.573  2.2086 -0.0547 -0.2650
 9006TIP3    H248510   2.980   1.702  14.617  0.8659  0.4306  1.6748
 9007TIP3   OH248511   5.422   5.769  10.675 -0.0019  0.1296  0.1991
 9007TIP3    H148512   5.503   5.796  10.632 -0.9590  0.3868 -1.5358
 9007TIP3    H248513   5.370   5.729  10.605 -0.8008 -1.3420  1.5819
 9008TIP3   OH248514   6.184   1.152  13.396 -0.2327  0.4172 -0.5452
 9008TIP3    H148515   6.128   1.075  13.384 -0.8829  0.7515  0.2400
 9008TIP3    H248516   6.242   1.152  13.320 -1.4252  0.1656 -1.4831
 9009TIP3   OH248517   6.361   5.334   0.402 -0.1026  0.5194 -0.2003
 9009TIP3    H148518   6.450   5.365   0.415 -0.2319  1.6418 -1.7385
 9009TIP3    H248519   6.328   5.317   0.490  0.7110  2.7654  0.5803
 9010TIP3   OH248520   3.433   4.510  12.343 -0.0456  0.7206  0.4644
 9010TIP3    H148521   3.375   4.434  12.330 -1.8412  1.8394  1.5166
 9010TIP3    H248522   3.458   4.537  12.255 -2.9453  1.5034 -0.2164
 9011TIP3   OH248523   4.939   2.862   5.108  0.0574  0.2208 -0.3085
 9011TIP3    H148524   5.011   2.838   5.050  0.5144  2.8151 -0.9384
 9011TIP3    H248525   4.982   2.879   5.193  0.4102  2.5813 -0.8920
 9012TIP3   OH248526   1.559   5.922   2.917  0.1991 -0.1874 -0.3933
 9012TIP3    H148527   1.618   5.949   2.847 -0.9970  1.3045 -0.8821
 9012TIP3    H248528   1.615   5.911   2.994  0.9079  3.7564 -0.1334
 9013TIP3   OH248529   1.848   4.754   2.505  0.5204 -0.3053 -0.0953
 9013TIP3    H148530   1.937   4.726   2.486  1.2639  0.5229  1.9004
 9013TIP3    H248531   1.792   4.692   2.458  2.1244 -0.5087 -1.8294
 9014TIP3   OH248532   2.222   4.236   2.029 -0.2278 -0.1294 -0.4458
 9014TIP3    H148533   2.310   4.223   1.994  0.0824  0.7452 -0.0234
 9014TIP3    H248534   2.189   4.312   1.981 -1.0944 -0.9704 -1.2200
 9015TIP3   OH248535   1.712   3.078   2.821  0.3802  0.1014  0.3633
 9015TIP3    H148536   1.740   3.108   2.734 -0.0598  1.5441  0.6953
 9015TIP3    H248537   1.677   3.156   2.864  4.8091  0.6964  3.6146
 9016TIP3   OH248538   0.142   4.465   5.317 -0.3988 -0.2202  0.2673
 9016TIP3    H148539   0.138   4.507   5.403  2.1708  0.6170  0.0542
 9016TIP3    H248540   0.079   4.513   5.264  1.5038  2.6515  0.3908
 9017TIP3   OH248541   2.461   3.805   3.176  0.2299  0.0740  0.0216
 9017TIP3    H148542   2.470   3.892   3.137  0.2055  0.2292  0.3634
 9017TIP3    H248543   2.395   3.762   3.121  1.1511 -0.1772 -0.9253
 9018TIP3   OH248544   3.024   6.088   4.942  0.0864  0.1834 -0.7848
 9018TIP3    H148545   2.953   6.076   4.879  1.0840  0.8545 -2.0596
 9018TIP3    H248546   3.096   6.126   4.892  1.0291  0.4339  0.6862
 9019TIP3   OH248547   6.070   4.369   0.952  0.2771 -0.0368 -0.7598
 9019TIP3    H148548   6.144   4.400   0.901  0.2765 -0.6517 -1.1364
 9019TIP3    H248549   6.101   4.369   1.043  0.7198 -0.2593 -0.9134
 9020TIP3   OH248550   4.350   5.867  16.237  0.7112  0.4323 -0.4733
 9020TIP3    H148551   4.281   5.817  16.280 -0.6788  0.5911 -2.3809
 9020TIP3    H248552   4.369   5.817  16.157  0.8921  1.7755 -1.2930
 9021TIP3   OH248553   4.986   5.769  16.550 -0.3046  0.0696 -0.2699
 9021TIP3    H148554   5.073   5.800  16.524 -0.1342  0.4068  0.6694
 9021TIP3    H248555   4.956   5.718  16.475  0.5172  0.3162 -0.7860
 9022TIP3   OH248556   6.276   6.415   2.907  0.3579  0.3719  0.4916
 9022TIP3    H148557   6.183   6.432   2.896  0.2285 -0.8258 -0.4777
 9022TIP3    H248558   6.318   6.466   2.837  0.4399  0.9093  0.9266
 9023TIP3   OH248559   3.659   2.193  14.007 -0.1073 -0.5613  0.1937
 9023TIP3    H148560   3.707   2.208  14.088  0.9937 -2.9887  0.0759
 9023TIP3    H248561   3.588   2.134  14.031 -0.3644 -0.5089 -0.4204
 9024TIP3   OH248562   3.399   5.896  16.633  0.2648 -0.0124 -0.4492
 9024TIP3    H148563   3.322   5.939  16.670  0.4558 -1.3087  1.6104
 9024TIP3    H248564   3.469   5.915  16.695  1.2237 -0.2110 -1.4515
 9025TIP3   OH248565   3.240   6.031  12.356 -0.3185  0.4369  0.1106
 9025TIP3    H148566   3.151   6.050  12.327  0.2115  4.1217  0.3400
 9025TIP3    H248567   3.232   6.020  12.451 -0.4304  2.3091  0.3585
 9026TIP3   OH248568   5.386   5.157   5.056 -0.7468  0.0638  0.2387
 9026TIP3    H148569   5.404   5.191   5.144  0.5077 -0.3296  0.1480
 9026TIP3    H248570   5.310   5.100   5.068 -2.1825  1.9177  0.5941
 9027TIP3   OH248571   0.607   4.361   1.580  0.4328  0.2002  0.1788
 9027TIP3    H148572   0.604   4.376   1.486 -0.6630 -1.3838 -0.0731
 9027TIP3    H248573   0.665   4.430   1.613  0.4303  1.1029 -1.5678
 9028TIP3   OH248574   5.308   2.115   0.772  0.0289 -0.3814  0.7522
 9028TIP3    H148575   5.320   2.057   0.696  1.0952  0.3818  0.3041
 9028TIP3    H248576   5.359   2.074   0.841  0.7153 -0.0504  0.4586
 9029TIP3   OH248577   3.621   2.974  12.433 -0.0069  0.3598  0.6973
 9029TIP3    H148578   3.714   2.991  12.419  0.2428  1.3068  2.9496
 9029TIP3    H248579   3.577   3.012  12.357  1.4083  0.2260 -0.2180
 9030TIP3   OH248580   3.624   4.228  12.706 -0.1135  0.4471 -0.4117
 9030TIP3    H148581   3.679   4.283  12.761 -2.6564  0.8030  2.0041
 9030TIP3    H248582   3.588   4.288  12.640  0.0795  0.8619 -0.1443
 9031TIP3   OH248583   2.704   2.195   2.686  0.3258  0.1970 -0.0164
 9031TIP3    H148584   2.673   2.105   2.680  3.0987 -0.9349  0.8635
 9031TIP3    H248585   2.686   2.221   2.776 -0.4064  0.5159 -0.2493
 9032TIP3   OH248586   1.453   5.347  15.869  0.1418 -0.1246 -0.1788
 9032TIP3    H148587   1.370   5.302  15.884  0.3589 -0.0247  1.4283
 9032TIP3    H248588   1.459   5.353  15.773 -0.2485 -2.8717 -0.4796
 9033TIP3   OH248589   5.775   4.977  17.129 -0.2775  0.4600  0.4542
 9033TIP3    H148590   5.692   5.022  17.147 -0.4937  1.1093 -1.8933
 9033TIP3    H248591   5.759   4.927  17.049  0.9604 -1.2543  1.2050
 9034TIP3   OH248592   2.318   0.310   4.299 -0.1887  0.2683 -0.8000
 9034TIP3    H148593   2.263   0.233   4.315  0.4100 -0.2577 -1.1803
 9034TIP3    H248594   2.378   0.282   4.231 -0.8959  1.5610 -2.0016
 9035TIP3   OH248595   0.745   5.245  16.074  0.0047  1.2390  0.0487
 9035TIP3    H148596   0.725   5.213  15.986  0.6007  2.5918 -0.5986
 9035TIP3    H248597   0.703   5.182  16.133  0.0268  0.0340 -1.1915
 9036TIP3   OH248598   1.736   2.138  16.446  0.2642  0.0292 -0.1291
 9036TIP3    H148599   1.785   2.079  16.390 -0.1475  0.8556 -1.4108
 9036TIP3    H248600   1.795   2.157  16.519  0.2175 -2.3275  0.6014
 9037TIP3   OH248601   6.000   2.897   5.858 -0.0714  0.5482  0.6790
 9037TIP3    H148602   5.991   2.947   5.777  2.7815  1.0741  0.5541
 9037TIP3    H248603   5.945   2.943   5.922 -0.3819  1.6608 -0.3573
 9038TIP3   OH248604   1.952   4.553  15.780 -0.4787  0.1854 -0.2736
 9038TIP3    H148605   2.013   4.620  15.812 -0.0950  0.4006 -1.4160
 9038TIP3    H248606   1.961   4.556  15.685 -0.7229 -1.2393 -0.3618
 9039TIP3   OH248607   0.828   0.616   1.739  0.0687 -0.0340  0.4462
 9039TIP3    H148608   0.806   0.694   1.789 -0.5739 -0.1334  0.3292
 9039TIP3    H248609   0.744   0.573   1.723  0.1352  0.4544 -1.4554
 9040TIP3   OH248610   0.340   4.458  12.922  0.0752  0.9000 -0.8176
 9040TIP3    H148611   0.289   4.539  12.930 -0.1169  0.6353  1.0900
 9040TIP3    H248612   0.275   4.388  12.921  0.3365  0.5591  1.6767
 9041TIP3   OH248613   0.842   5.738  13.881 -0.1772 -0.2023 -0.4959
 9041TIP3    H148614   0.758   5.782  13.869  0.2447  0.8440  0.2329
 9041TIP3    H248615   0.870   5.762  13.969  0.3651 -1.4584 -0.3041
 9042TIP3   OH248616   0.686   6.111  11.713  0.2536  0.0127 -0.0422
 9042TIP3    H148617   0.615   6.122  11.650  0.9545 -0.5073 -0.9509
 9042TIP3    H248618   0.741   6.043  11.674  0.0444 -1.2336  1.7307
 9043TIP3   OH248619   2.671   2.099  13.913  0.3329  0.5584  0.1914
 9043TIP3    H148620   2.643   2.131  13.999  2.6976  0.7486  0.9897
 9043TIP3    H248621   2.759   2.065  13.929  0.5109 -0.1549 -2.0222
 9044TIP3   OH248622   5.304   2.023   4.566 -0.1610 -0.2572 -0.2251
 9044TIP3    H148623   5.359   2.088   4.524 -0.0180  0.6560  1.3205
 9044TIP3    H248624   5.355   1.942   4.564  0.9092  0.3914  0.4892
 9045TIP3   OH248625   4.214   4.787  16.587 -0.0170 -0.1814 -0.0745
 9045TIP3    H148626   4.259   4.821  16.509  0.8454  3.5574  1.8158
 9045TIP3    H248627   4.123   4.776  16.559  0.5397 -0.3960 -1.9628
 9046TIP3   OH248628   0.372   2.612   2.871  0.2148 -0.3207  0.7428
 9046TIP3    H148629   0.440   2.566   2.919  2.3682 -0.0355 -1.7710
 9046TIP3    H248630   0.337   2.547   2.811  0.5160  0.2916 -0.1230
 9047TIP3   OH248631   4.758   5.591  12.510  0.3758  0.3022 -0.1483
 9047TIP3    H148632   4.847   5.556  12.503  0.7802  1.0850  0.8717
 9047TIP3    H248633   4.733   5.574  12.601 -0.5091  0.1361 -0.4096
 9048TIP3   OH248634   5.105   0.330   4.171 -0.0129  0.2490  0.4369
 9048TIP3    H148635   5.194   0.356   4.148 -0.2239  0.4446 -0.1669
 9048TIP3    H248636   5.056   0.413   4.174  0.5205  0.6018  4.0736
 9049TIP3   OH248637   5.075   0.633  13.520 -0.2730 -0.2670  0.7227
 9049TIP3    H148638   5.115   0.605  13.438 -1.1427 -2.8846  1.1108
 9049TIP3    H248639   5.080   0.729  13.517  0.5980 -0.3077 -1.9101
 9050TIP3   OH248640   3.784   2.627  16.236 -0.1687  0.1228 -0.0036
 9050TIP3    H148641   3.719   2.680  16.284 -0.7996  0.5634 -1.2837
 9050TIP3    H248642   3.735   2.594  16.160  0.6108 -1.1393  0.0340
 9051TIP3   OH248643   3.652   6.149  13.734 -0.0950  0.3522 -0.0930
 9051TIP3    H148644   3.703   6.087  13.681 -1.8153 -0.2642 -1.1306
 9051TIP3    H248645   3.656   6.231  13.685 -1.6330 -0.2018 -1.2619
 9052TIP3   OH248646   4.797   4.949  17.418 -0.4813 -0.0567  0.0868
 9052TIP3    H148647   4.854   4.875  17.398  0.4318  0.5476  0.4249
 9052TIP3    H248648   4.771   4.983  17.333  0.7327  0.4710 -0.0935
 9053TIP3   OH248649   5.292   5.509   3.809 -0.2674  0.3088 -0.2660
 9053TIP3    H148650   5.253   5.561   3.739 -3.7018 -0.7623  0.6870
 9053TIP3    H248651   5.227   5.507   3.878  1.0645 -2.4991  1.0949
 9054TIP3   OH248652   1.034   5.254   5.175  0.5105  0.4793 -0.4457
 9054TIP3    H148653   0.970   5.251   5.104  1.2785  1.1698 -1.1888
 9054TIP3    H248654   0.993   5.203   5.246 -0.2228 -0.3323 -1.4088
 9055TIP3   OH248655   1.666   0.177   2.485 -0.1667  0.5661 -0.1941
 9055TIP3    H148656   1.583   0.213   2.518 -0.1529  0.4463 -0.0266
 9055TIP3    H248657   1.720   0.166   2.563  0.5809  2.0909 -0.4552
 9056TIP3   OH248658   3.509   0.196  12.889  0.5584 -0.1035  0.0752
 9056TIP3    H148659   3.509   0.141  12.811 -2.7453 -1.1164  0.6068
 9056TIP3    H248660   3.477   0.138  12.958 -5.2914  2.6529  0.2723
 9057TIP3   OH248661   5.117   4.681  17.636 -0.4379  0.5027  0.6084
 9057TIP3    H148662   5.084   4.649  17.552  0.5152 -1.5183  0.9509
 9057TIP3    H248663   5.195   4.731  17.614 -0.3593  0.2384  0.2764
 9058TIP3   OH248664   3.881   6.644   4.752 -0.1217  0.0502  0.0307
 9058TIP3    H148665   3.899   6.551   4.737 -2.8761 -0.3747 -1.1365
 9058TIP3    H248666   3.946   6.690   4.698  0.0554 -1.2420 -0.8942
 9059TIP3   OH248667   5.119   0.447   5.751 -0.0240 -0.5413  0.0191
 9059TIP3    H148668   5.139   0.529   5.707  1.4642 -1.2443 -0.6824
 9059TIP3    H248669   5.139   0.464   5.843 -0.7098  0.1636  0.0520
 9060TIP3   OH248670   2.799   2.739   3.958 -0.0573  0.3491  0.0146
 9060TIP3    H148671   2.780   2.684   3.882  1.2845 -1.2527  0.7873
 9060TIP3    H248672   2.751   2.699   4.030  1.2004 -0.0582  0.6576
 9061TIP3   OH248673   4.604   5.050  12.191 -0.2189  0.0607 -0.0331
 9061TIP3    H148674   4.534   4.999  12.150 -1.5218  1.0815  0.8616
 9061TIP3    H248675   4.566   5.083  12.272  1.1278  1.0931  0.2106
 9062TIP3   OH248676   2.277   2.132  12.315  0.8916  0.5528  0.5058
 9062TIP3    H148677   2.236   2.077  12.382  1.4285 -1.0085 -0.4186
 9062TIP3    H248678   2.342   2.076  12.274 -0.4568  0.9525 -2.3713
 9063TIP3   OH248679   1.483   0.885  14.897 -0.1711  0.6521 -0.4051
 9063TIP3    H148680   1.391   0.865  14.915 -0.2662  2.0483  0.8484
 9063TIP3    H248681   1.489   0.885  14.801 -1.7049  1.4456 -0.5356
 9064TIP3   OH248682   6.340   2.075   0.702 -0.0360 -0.3769  0.4173
 9064TIP3    H148683   6.319   2.046   0.791 -0.7958 -0.3276  0.2677
 9064TIP3    H248684   6.327   1.996   0.648  1.2749 -0.6393  0.4511
 9065TIP3   OH248685   0.213   4.717  11.277  0.0293  0.3601 -0.0070
 9065TIP3    H148686   0.121   4.716  11.251  0.3907 -0.0002 -1.3819
 9065TIP3    H248687   0.253   4.784  11.220  0.5281  0.8589  0.9121
 9066TIP3   OH248688   1.782   3.396   2.476  0.2757 -0.1907 -0.3941
 9066TIP3    H148689   1.724   3.467   2.450  0.6930 -0.0928 -1.0748
 9066TIP3    H248690   1.848   3.437   2.532  0.2229 -0.1355 -0.3727
 9067TIP3   OH248691   4.131   4.557   5.021 -0.3041 -0.3676  0.2203
 9067TIP3    H148692   4.071   4.482   5.024 -1.8434  0.8054  0.3165
 9067TIP3    H248693   4.076   4.630   4.994  1.0786  0.8105  0.4748
 9068TIP3   OH248694   1.099   0.799  15.619  0.4191 -0.1816  0.0174
 9068TIP3    H148695   1.123   0.709  15.598  1.8606  0.1465  0.1916
 9068TIP3    H248696   1.006   0.805  15.596 -0.2295 -2.2451  1.7671
 9069TIP3   OH248697   2.688   3.806  16.883 -0.2742  0.0124 -0.0208
 9069TIP3    H148698   2.655   3.801  16.973 -2.6524 -1.0775 -0.8786
 9069TIP3    H248699   2.748   3.881  16.884 -0.3415  0.1380  2.4057
 9070TIP3   OH248700   6.625   1.644   4.273  0.1886  0.3206  0.4907
 9070TIP3    H148701   6.705   1.592   4.269  1.2519  1.8306  1.3549
 9070TIP3    H248702   6.647   1.726   4.229 -1.5007  0.0567 -0.9594
 9071TIP3   OH248703   3.537   6.727  13.114 -0.2843  0.0797  0.2037
 9071TIP3    H148704   3.529   6.633  13.101 -0.2688  0.2032 -0.7775
 9071TIP3    H248705   3.624   6.740  13.151 -1.2996 -0.5262  3.0957
 9072TIP3   OH248706   4.644   6.299  17.469 -0.1611  0.5961  0.7475
 9072TIP3    H148707   4.666   6.207  17.453 -1.5455  0.6851 -2.5633
 9072TIP3    H248708   4.635   6.305  17.564 -2.1515 -3.2748  1.0215
 9073TIP3   OH248709   5.249   0.775  12.459  0.3178  0.0729  0.4829
 9073TIP3    H148710   5.301   0.830  12.518 -0.1206 -0.7527  1.6665
 9073TIP3    H248711   5.209   0.710  12.516 -0.0131 -0.8375 -0.7525
 9074TIP3   OH248712   2.555   5.317  12.081  0.3560 -0.0063 -0.9900
 9074TIP3    H148713   2.647   5.340  12.096  1.2863 -2.6360 -2.1170
 9074TIP3    H248714   2.532   5.260  12.155 -0.0581 -0.1353 -1.2133
 9075TIP3   OH248715   1.748   6.371   1.615 -0.0066  0.1411 -0.1565
 9075TIP3    H148716   1.803   6.362   1.536 -2.3851  1.2545 -2.0742
 9075TIP3    H248717   1.755   6.464   1.638  0.1779 -0.0536  0.5708
 9076TIP3   OH248718   4.101   3.357   5.815  0.1307  0.3393 -0.0267
 9076TIP3    H148719   4.177   3.405   5.847  1.6637 -0.7841 -1.7428
 9076TIP3    H248720   4.029   3.419   5.819  1.3587  1.7697  0.6897
 9077TIP3   OH248721   6.053   4.480  10.987  0.4955  0.3058 -0.4186
 9077TIP3    H148722   6.052   4.393  10.946 -0.9250  0.0796  0.0487
 9077TIP3    H248723   5.983   4.477  11.052  0.1297  1.9360 -0.6913
 9078TIP3   OH248724   4.639   5.491  13.128  0.3507 -0.6169 -0.1766
 9078TIP3    H148725   4.655   5.398  13.110  3.0206 -0.1315 -0.7594
 9078TIP3    H248726   4.546   5.503  13.109  0.0972 -2.9881 -0.8437
 9079TIP3   OH248727   3.460   3.462  13.841 -0.5195 -0.8475  0.3665
 9079TIP3    H148728   3.461   3.410  13.761 -0.2943  0.3838 -0.4457
 9079TIP3    H248729   3.372   3.499  13.845 -0.7856 -1.5252  1.1163
 9080TIP3   OH248730   6.543   6.357  15.837 -0.0593  0.3331  0.8069
 9080TIP3    H148731   6.453   6.354  15.870  0.5083 -0.0666  2.3944
 9080TIP3    H248732   6.580   6.435  15.877 -0.1526  1.4685 -1.1859
 9081TIP3   OH248733   5.030   4.330  17.506 -0.0515 -0.0374  0.1798
 9081TIP3    H148734   5.080   4.328  17.425 -0.3430  0.7056 -0.0291
 9081TIP3    H248735   4.986   4.416  17.505 -0.8355 -0.4185  0.6497
 9082TIP3   OH248736   6.484   1.955   2.578  0.9538  0.4428  0.5995
 9082TIP3    H148737   6.570   1.988   2.554  0.1583  1.4205 -1.0593
 9082TIP3    H248738   6.459   2.007   2.655  0.7471  2.0757 -0.5189
 9083TIP3   OH248739   6.224   0.068   0.484  0.7072  0.7817  0.1267
 9083TIP3    H148740   6.200   0.043   0.395  0.5638 -0.9888  0.6090
 9083TIP3    H248741   6.220  -0.015   0.533 -0.2327  1.8853  2.0048
 9084TIP3   OH248742   4.612   0.458   5.757 -0.0741 -0.7650 -0.5224
 9084TIP3    H148743   4.576   0.499   5.679  1.8833 -0.1599 -1.1793
 9084TIP3    H248744   4.606   0.364   5.741 -1.7494 -0.7155 -0.3679
 9085TIP3   OH248745   3.609   3.032  10.777  0.1786 -0.3861 -0.0677
 9085TIP3    H148746   3.636   2.946  10.809 -0.0038  0.0684  1.3676
 9085TIP3    H248747   3.675   3.092  10.813 -0.1392  0.1684 -0.4087
 9086TIP3   OH248748   0.248   3.708   0.468  0.4181  0.0089 -0.1064
 9086TIP3    H148749   0.316   3.710   0.400  1.8652  0.1879  1.2971
 9086TIP3    H248750   0.193   3.633   0.445  1.5337 -0.6075 -0.8445
 9087TIP3   OH248751   4.469   1.003  17.623  0.1427 -0.2101  0.2032
 9087TIP3    H148752   4.489   1.097  17.620  1.9965 -0.5778 -1.6651
 9087TIP3    H248753   4.491   0.977  17.713  0.9216  0.9160  0.3660
 9088TIP3   OH248754   1.179   3.123  14.081  0.4257 -0.2862  0.0198
 9088TIP3    H148755   1.135   3.077  14.153  1.2846  0.5746  1.1287
 9088TIP3    H248756   1.113   3.127  14.011 -0.3284 -1.3877  0.6466
 9089TIP3   OH248757   3.749   6.089   4.617  0.3055  0.1953  0.0531
 9089TIP3    H148758   3.736   6.158   4.681  0.7229 -0.4316  0.8405
 9089TIP3    H248759   3.842   6.095   4.594  0.3443 -0.0949  0.1258
 9090TIP3   OH248760   0.289   0.998  14.443  0.0608  0.1426  0.3045
 9090TIP3    H148761   0.268   0.938  14.515 -2.3939  2.2616  1.5263
 9090TIP3    H248762   0.358   1.054  14.479 -1.5272  1.5394  1.3201
 9091TIP3   OH248763   1.873   2.467   1.783 -0.1647 -0.2742  0.1521
 9091TIP3    H148764   1.897   2.475   1.691 -0.8249 -0.8446 -0.0734
 9091TIP3    H248765   1.777   2.464   1.783 -0.2955  1.8445  1.0212
 9092TIP3   OH248766   0.423   2.667  14.074  0.0087 -0.0646  0.0355
 9092TIP3    H148767   0.330   2.686  14.063  0.0408  0.0328 -0.0613
 9092TIP3    H248768   0.465   2.701  13.995 -0.2027 -2.3272 -1.1298
 9093TIP3   OH248769   4.966   6.187   3.475 -0.1994  1.1226  0.2324
 9093TIP3    H148770   5.009   6.269   3.451  0.5611  1.0093  1.1575
 9093TIP3    H248771   4.901   6.212   3.540  0.4407  0.9331  0.9629
 9094TIP3   OH248772   0.437   0.664   4.271  0.0604  0.1057 -0.7187
 9094TIP3    H148773   0.390   0.745   4.255  0.2532  0.5474  0.7837
 9094TIP3    H248774   0.529   0.686   4.261  0.2435  0.6033  1.5859
 9095TIP3   OH248775   1.183   5.957  11.548 -0.2613 -0.1364 -0.2754
 9095TIP3    H148776   1.157   6.049  11.545  1.8359  0.5132  0.1939
 9095TIP3    H248777   1.170   5.926  11.458 -0.7142  0.6771 -0.5035
 9096TIP3   OH248778   3.461   2.664   1.241 -0.6385  0.5859  0.9862
 9096TIP3    H148779   3.440   2.744   1.289  1.4553  1.5535  0.4379
 9096TIP3    H248780   3.532   2.690   1.182 -0.7886 -1.3868 -0.1537
 9097TIP3   OH248781   4.308   2.481  17.486 -0.0174  0.6576  0.6165
 9097TIP3    H148782   4.286   2.445  17.572  1.8115  0.0148  0.8590
 9097TIP3    H248783   4.385   2.432  17.458 -0.1243  1.3684 -1.0738
 9098TIP3   OH248784   6.524   1.773  11.841  0.3812  0.5959 -0.2539
 9098TIP3    H148785   6.613   1.755  11.812  0.6935  2.4316 -0.5935
 9098TIP3    H248786   6.532   1.787  11.935  0.3199  0.0379 -0.1649
 9099TIP3   OH248787   6.521   1.008  13.099 -0.1224  0.1634 -0.5059
 9099TIP3    H148788   6.568   0.929  13.126 -2.2222 -0.1890  2.5860
 9099TIP3    H248789   6.481   0.985  13.015  1.8833 -0.8428 -1.2700
 9100TIP3   OH248790   0.082   3.131   4.441  0.1126 -0.4262 -0.0901
 9100TIP3    H148791  -0.014   3.127   4.444 -0.0738  2.6776  2.0077
 9100TIP3    H248792   0.102   3.221   4.418  2.5466 -0.6859  0.7426
 9101TIP3   OH248793   4.603   0.879   3.218  0.1319 -0.2581 -0.2370
 9101TIP3    H148794   4.529   0.917   3.266  1.3319  0.5165  1.1019
 9101TIP3    H248795   4.585   0.785   3.217 -1.0829 -0.0501 -0.3543
 9102TIP3   OH248796   1.208   5.527   1.110  0.3619  0.2757 -0.0615
 9102TIP3    H148797   1.187   5.539   1.018 -2.2085 -0.8282  0.2864
 9102TIP3    H248798   1.304   5.532   1.114  0.5181  0.7255 -2.7005
 9103TIP3   OH248799   6.015   2.372   2.698 -0.7146 -0.1696 -0.1838
 9103TIP3    H148800   6.043   2.281   2.686  1.1735  0.6276 -2.5979
 9103TIP3    H248801   5.924   2.372   2.669 -0.3867 -1.1143 -1.3278
 9104TIP3   OH248802   6.127   3.830  13.245  0.1766  0.5965  0.0387
 9104TIP3    H148803   6.139   3.833  13.150 -1.0991 -1.9589 -0.2773
 9104TIP3    H248804   6.185   3.760  13.275 -2.1820 -1.3045  0.5170
 9105TIP3   OH248805   1.650   5.116   5.305  0.0845 -0.5096  0.1014
 9105TIP3    H148806   1.604   5.199   5.322  0.0384 -0.5680  0.2631
 9105TIP3    H248807   1.671   5.083   5.392  1.5247  0.1259  0.0231
 9106TIP3   OH248808   6.250   0.114  10.597 -0.4708 -0.2657  0.1395
 9106TIP3    H148809   6.199   0.192  10.577 -1.4507 -0.9285 -0.0704
 9106TIP3    H248810   6.341   0.142  10.592 -0.7901  0.7108 -0.5281
 9107TIP3   OH248811   0.252   5.381  12.163  0.3310 -0.2554  0.0224
 9107TIP3    H148812   0.218   5.371  12.251  1.4616  0.1703  0.5248
 9107TIP3    H248813   0.268   5.291  12.133 -0.9405 -0.4417 -0.1233
 9108TIP3   OH248814   3.884   4.231  13.098 -0.1714  0.0120  0.4162
 9108TIP3    H148815   3.872   4.212  13.191  2.2140  1.3326  1.0844
 9108TIP3    H248816   3.978   4.215  13.083 -0.2884  0.8874 -1.5039
 9109TIP3   OH248817   1.738   6.654   6.649 -0.4342 -0.2647 -0.4592
 9109TIP3    H148818   1.701   6.719   6.709  0.1204 -1.9344  1.7756
 9109TIP3    H248819   1.832   6.671   6.650 -0.2164 -1.3937  0.5777
 9110TIP3   OH248820   3.705   3.798   2.118 -0.1618 -0.7306 -0.1723
 9110TIP3    H148821   3.653   3.721   2.093  1.1386 -1.4173 -0.8712
 9110TIP3    H248822   3.734   3.779   2.207 -1.9082  0.1281  0.6288
 9111TIP3   OH248823   1.921   0.600  12.856  0.4288 -0.2583 -0.0083
 9111TIP3    H148824   1.841   0.596  12.804  0.3675 -1.0555  0.1417
 9111TIP3    H248825   1.952   0.509  12.861  0.5452 -0.1684  1.1706
 9112TIP3   OH248826   5.405   1.550   1.697 -0.3212 -0.1072 -0.4286
 9112TIP3    H148827   5.465   1.562   1.624 -0.1285 -0.8227 -0.4040
 9112TIP3    H248828   5.442   1.475   1.745  1.1858  2.0488  2.0524
 9113TIP3   OH248829   0.588   3.197   0.110  0.8531 -0.2346 -0.1745
 9113TIP3    H148830   0.541   3.202   0.027  0.7520 -0.4269 -0.1292
 9113TIP3    H248831   0.607   3.104   0.122 -0.1931 -0.3732  0.5939
 9114TIP3   OH248832   4.154   4.889  13.358 -0.0947 -0.2182 -0.4096
 9114TIP3    H148833   4.227   4.835  13.327  0.8042  0.4676  0.4486
 9114TIP3    H248834   4.109   4.917  13.278  1.5566  0.6742 -1.0900
 9115TIP3   OH248835   3.541   5.552   3.549  0.5130  0.0680  0.5184
 9115TIP3    H148836   3.542   5.535   3.455 -0.0978  1.5188  0.2213
 9115TIP3    H248837   3.631   5.575   3.571  0.4184  0.9919  0.0114
 9116TIP3   OH248838   3.269   1.561   1.770 -0.6093  0.3384 -0.6640
 9116TIP3    H148839   3.224   1.645   1.756 -0.8501  0.6308  1.4047
 9116TIP3    H248840   3.359   1.577   1.745  0.5509  2.8422  3.9440
 9117TIP3   OH248841   3.876   4.746  13.953  0.1356  0.3380  0.4769
 9117TIP3    H148842   3.832   4.664  13.930 -0.4271 -0.1628  3.0664
 9117TIP3    H248843   3.826   4.813  13.907  0.4912 -0.7148 -1.5377
 9118TIP3   OH248844   0.169   4.585  11.534 -0.4692  0.0047  0.2474
 9118TIP3    H148845   0.177   4.648  11.462  0.4416 -1.1139 -0.6829
 9118TIP3    H248846   0.259   4.556  11.551 -0.9310 -1.7343 -0.0118
 9119TIP3   OH248847   2.974   1.665   3.274  0.0933 -0.5525 -0.4774
 9119TIP3    H148848   3.000   1.752   3.243 -0.3630 -1.2043 -2.8319
 9119TIP3    H248849   3.049   1.609   3.254 -0.1061 -0.9515 -0.1168
 9120TIP3   OH248850   0.434   4.882  13.294  0.2342 -0.3770  0.0325
 9120TIP3    H148851   0.349   4.909  13.328 -0.2215 -1.2714 -0.3596
 9120TIP3    H248852   0.497   4.938  13.339 -0.5363  0.0946  0.5456
 9121TIP3   OH248853   4.221   4.122  12.402 -0.1175  0.1738 -0.4606
 9121TIP3    H148854   4.260   4.038  12.382  0.5720  0.8161 -1.9178
 9121TIP3    H248855   4.240   4.177  12.327 -0.1523  1.7841  0.6442
 9122TIP3   OH248856   5.325   4.794   6.197 -0.0561  0.1980  0.7973
 9122TIP3    H148857   5.374   4.862   6.150  1.0058 -0.4893  0.8758
 9122TIP3    H248858   5.233   4.814   6.180  0.2815  0.0462 -1.4986
 9123TIP3   OH248859   3.136   1.868   1.420  0.4936  0.7096 -0.3295
 9123TIP3    H148860   3.130   1.901   1.330 -0.7998 -0.9005 -0.8871
 9123TIP3    H248861   3.229   1.874   1.442  1.3610 -1.4499 -2.8676
 9124TIP3   OH248862   6.075   3.933   5.553 -0.2820  0.2554  0.0350
 9124TIP3    H148863   6.023   3.991   5.609 -1.1468 -0.7665  0.3272
 9124TIP3    H248864   6.124   3.879   5.615 -0.3885 -0.1188 -0.2044
 9125TIP3   OH248865   4.372   3.899   1.093 -0.1837 -0.2127 -0.5204
 9125TIP3    H148866   4.287   3.940   1.110 -0.2990 -0.6396 -0.0414
 9125TIP3    H248867   4.382   3.902   0.998 -0.7704 -0.2201 -0.5842
 9126TIP3   OH248868   5.332   3.137  15.399  0.6125 -0.2960 -0.8593
 9126TIP3    H148869   5.255   3.080  15.400 -0.1200  0.6677  0.5424
 9126TIP3    H248870   5.297   3.226  15.404  1.8066  0.1331  0.8992
 9127TIP3   OH248871   3.964   3.553  13.887  0.2626 -0.5552 -0.2342
 9127TIP3    H148872   4.022   3.625  13.912  2.1785 -2.5482  1.4867
 9127TIP3    H248873   3.881   3.595  13.864  1.8706  2.3087 -1.2716
 9128TIP3   OH248874   6.363   5.655  15.257  0.4930  0.0022  0.7929
 9128TIP3    H148875   6.388   5.693  15.341  3.6873 -1.9285  0.9030
 9128TIP3    H248876   6.397   5.716  15.192  0.8391 -0.0226  0.9470
 9129TIP3   OH248877   1.323   2.082   0.117  0.2491  0.1130  0.1839
 9129TIP3    H148878   1.231   2.065   0.096  0.5801 -2.4141  0.4715
 9129TIP3    H248879   1.320   2.139   0.194 -1.0843 -0.8091  0.8361
 9130TIP3   OH248880   2.626   3.869   6.167  0.1193 -0.1965 -0.2288
 9130TIP3    H148881   2.562   3.803   6.193  0.4829 -0.7879 -0.8014
 9130TIP3    H248882   2.581   3.952   6.179  0.2084 -0.4184  2.1819
 9131TIP3   OH248883   5.214   6.058   1.357  0.4045 -0.0285 -0.3923
 9131TIP3    H148884   5.207   6.153   1.358 -0.0966 -0.0378  2.3662
 9131TIP3    H248885   5.131   6.027   1.393  0.9272 -1.4888 -0.3939
 9132TIP3   OH248886   0.490   4.227   5.007  0.3340 -0.3093  0.7412
 9132TIP3    H148887   0.408   4.272   5.027 -0.0853 -1.7297  2.4061
 9132TIP3    H248888   0.558   4.292   5.021 -0.4564  0.7782 -0.2898
 9133TIP3   OH248889   2.728   2.883  16.869  0.1703  0.4076  0.3141
 9133TIP3    H148890   2.793   2.849  16.930 -0.7301 -0.4677  0.8255
 9133TIP3    H248891   2.771   2.956  16.826  2.1595 -1.2875 -0.7347
 9134TIP3   OH248892   0.368   2.849   1.838 -0.4378 -0.1410 -0.0317
 9134TIP3    H148893   0.407   2.917   1.893 -0.3848 -1.0649  1.1178
 9134TIP3    H248894   0.403   2.866   1.751  2.5150 -0.8543  0.9021
 9135TIP3   OH248895   2.807   6.693   1.391 -0.4011  0.1937 -0.4792
 9135TIP3    H148896   2.802   6.598   1.405  0.2741  0.2192 -0.0207
 9135TIP3    H248897   2.869   6.723   1.457  0.2093  0.8146 -1.3258
 9136TIP3   OH248898   5.190   1.635   6.829 -0.1097  0.2144  0.2679
 9136TIP3    H148899   5.144   1.619   6.912 -0.4544  0.2632  0.0875
 9136TIP3    H248900   5.132   1.600   6.762  0.5878 -0.6752  0.1075
 9137TIP3   OH248901   0.192   6.539   3.753  0.4050 -0.3888  0.0901
 9137TIP3    H148902   0.108   6.580   3.775  1.6353  2.2206  0.2677
 9137TIP3    H248903   0.218   6.494   3.833 -1.4134 -2.5196 -0.3925
 9138TIP3   OH248904   1.397   1.520   0.500  0.1073 -0.0063 -0.0741
 9138TIP3    H148905   1.490   1.538   0.514 -0.2567  0.3847  2.1616
 9138TIP3    H248906   1.396   1.443   0.442  1.7939  0.2727 -0.5196
 9139TIP3   OH248907   1.038   6.463  14.374  0.3195  0.6845 -0.0063
 9139TIP3    H148908   1.015   6.370  14.374  0.1310  0.6120  3.5354
 9139TIP3    H248909   0.954   6.507  14.358 -0.1269  0.2412  0.9980
 9140TIP3   OH248910   3.055   2.104  11.567 -0.5971 -0.4929  0.0927
 9140TIP3    H148911   3.121   2.140  11.627 -2.0959  2.2063  0.2677
 9140TIP3    H248912   3.105   2.068  11.494  1.0985  0.7225  0.6093
 9141TIP3   OH248913   5.800   5.140  17.386 -0.0018 -0.3754 -0.0135
 9141TIP3    H148914   5.731   5.081  17.417 -0.3341 -0.9513 -1.7351
 9141TIP3    H248915   5.753   5.211  17.342  0.4733 -0.6120 -0.9261
 9142TIP3   OH248916   3.077   2.985  17.189 -0.1709  0.1841 -0.3049
 9142TIP3    H148917   3.008   2.921  17.168  1.4317 -2.4723  1.9161
 9142TIP3    H248918   3.046   3.029  17.268 -0.9452  1.7701 -1.4342
 9143TIP3   OH248919   4.421   1.326   3.844 -0.3915 -0.5182  0.0526
 9143TIP3    H148920   4.452   1.293   3.929 -0.1404  0.1013  0.2064
 9143TIP3    H248921   4.498   1.363   3.802 -0.6469 -0.2049 -0.1529
 9144TIP3   OH248922   6.142   2.938   0.800 -0.4255 -0.5996 -0.6027
 9144TIP3    H148923   6.092   2.928   0.719  0.0902  1.3369 -1.2208
 9144TIP3    H248924   6.090   2.998   0.853 -0.1788 -0.8951 -0.0235
 9145TIP3   OH248925   1.381   2.062   4.231 -0.7652  0.1248 -0.0925
 9145TIP3    H148926   1.405   1.971   4.246  1.6088  0.8909  1.1833
 9145TIP3    H248927   1.432   2.088   4.154 -0.8746  0.5530 -0.0245
 9146TIP3   OH248928   1.065   1.316   3.928  0.1512 -0.0665 -0.7514
 9146TIP3    H148929   1.152   1.278   3.917  0.4929  0.3582  0.3092
 9146TIP3    H248930   1.026   1.265   4.000 -0.1988  0.2173 -0.7354
 9147TIP3   OH248931   2.276   5.010  11.420  0.4048 -0.0704  0.0714
 9147TIP3    H148932   2.263   4.961  11.338  0.7853 -0.7406  0.4030
 9147TIP3    H248933   2.265   4.945  11.489  0.6561  0.3697  0.5352
 9148TIP3   OH248934   1.947   5.350  13.748  0.0844 -0.1805 -0.5054
 9148TIP3    H148935   2.003   5.390  13.815  0.1054  0.1635 -0.7259
 9148TIP3    H248936   1.927   5.263  13.783  0.7643 -0.3153 -0.4200
 9149TIP3   OH248937   2.134   4.863   1.134  0.3371  0.4899  0.6581
 9149TIP3    H148938   2.168   4.805   1.203 -0.8932  1.3225  2.0321
 9149TIP3    H248939   2.209   4.915   1.107  1.3034 -1.1896 -0.0883
 9150TIP3   OH248940   3.387   4.188  14.229 -0.0562 -0.6543 -0.1906
 9150TIP3    H148941   3.360   4.243  14.302  0.1935 -0.1538 -0.4742
 9150TIP3    H248942   3.477   4.163  14.250  1.0484  1.7462 -1.6131
 9151TIP3   OH248943   1.837   6.119  17.438  0.3014 -0.0106 -0.1975
 9151TIP3    H148944   1.847   6.062  17.363 -1.8219 -1.4567  0.5439
 9151TIP3    H248945   1.793   6.197  17.404 -0.2676 -0.4774 -0.5477
 9152TIP3   OH248946   1.051   5.975   5.133 -0.1233  0.2328  0.7755
 9152TIP3    H148947   0.965   5.943   5.104 -0.0830  0.4095  0.4501
 9152TIP3    H248948   1.109   5.899   5.123 -0.1670  0.2152  0.6508
 9153TIP3   OH248949   3.643   1.271  11.448  0.1012  0.0244 -0.4487
 9153TIP3    H148950   3.595   1.213  11.389  0.2243 -0.9732  0.4133
 9153TIP3    H248951   3.635   1.231  11.534  0.0427  1.3870  0.2140
 9154TIP3   OH248952   3.340   4.055   3.755 -0.1808 -0.3712  0.1621
 9154TIP3    H148953   3.395   4.093   3.823 -1.0622 -0.0939  0.7428
 9154TIP3    H248954   3.396   3.992   3.710  0.6593  0.0561  0.5984
 9155TIP3   OH248955   3.094   5.718  12.492 -0.1510  0.0747 -0.4918
 9155TIP3    H148956   3.141   5.792  12.531  2.4742 -0.5972 -2.1017
 9155TIP3    H248957   3.063   5.750  12.407  0.1409 -0.3443 -0.7679
 9156TIP3   OH248958   0.155   3.123  15.221  0.0634  0.3021 -0.3910
 9156TIP3    H148959   0.155   3.204  15.272 -0.6153 -0.7873  1.4485
 9156TIP3    H248960   0.068   3.087  15.234  1.0235 -1.8013  0.7120
 9157TIP3   OH248961   4.031   5.315   4.180 -0.4321  0.0222  0.2021
 9157TIP3    H148962   3.944   5.286   4.152 -0.0960 -0.1568 -0.6803
 9157TIP3    H248963   4.015   5.363   4.261 -1.1556 -1.4809  0.9977
 9158TIP3   OH248964   1.636   5.060  17.466  0.3291  0.1813 -0.5593
 9158TIP3    H148965   1.642   5.050  17.561 -3.6376 -2.1530 -0.3824
 9158TIP3    H248966   1.550   5.100  17.451 -0.3343 -1.9575 -3.1996
 9159TIP3   OH248967   0.612   1.097  11.650 -0.4817  0.3819  0.1246
 9159TIP3    H148968   0.524   1.104  11.688 -0.7950 -1.0270 -0.2608
 9159TIP3    H248969   0.666   1.065  11.722 -0.0506  2.1597  0.6275
 9160TIP3   OH248970   0.121   5.840  16.304 -0.2336 -0.3022 -0.3095
 9160TIP3    H148971   0.194   5.812  16.249  0.8734 -1.3110  1.5652
 9160TIP3    H248972   0.076   5.758  16.328 -1.1529  0.1827 -0.3289
 9161TIP3   OH248973   1.686   6.187  15.972 -0.2781  0.0400 -0.3347
 9161TIP3    H148974   1.669   6.276  16.001 -1.4685 -0.6079  1.0971
 9161TIP3    H248975   1.647   6.182  15.884 -2.0533  0.3985  0.3781
 9162TIP3   OH248976   0.216   2.277  17.515  0.0972 -0.5991 -0.0875
 9162TIP3    H148977   0.242   2.368  17.500  2.0138 -0.6697  2.1303
 9162TIP3    H248978   0.121   2.280  17.525  0.0400  1.0150 -0.8448
 9163TIP3   OH248979   5.491   6.239   2.972  0.1969  0.6415  0.1136
 9163TIP3    H148980   5.511   6.196   2.889  0.1798  0.7434  0.0562
 9163TIP3    H248981   5.550   6.198   3.035 -1.2616 -0.9563  0.5036
 9164TIP3   OH248982   3.338   0.586   2.850  0.0487 -0.3584  0.0536
 9164TIP3    H148983   3.350   0.521   2.920  2.1955  0.3963  0.4366
 9164TIP3    H248984   3.246   0.612   2.858 -0.3482 -1.9159  1.1314
 9165TIP3   OH248985   4.225   4.197   6.598 -0.1800  0.4548 -0.3428
 9165TIP3    H148986   4.250   4.261   6.532  0.5699  1.0598  0.4877
 9165TIP3    H248987   4.198   4.250   6.674 -0.1211 -0.2106  0.1548
 9166TIP3   OH248988   4.242   0.544  15.615 -0.1266  0.0807  0.2194
 9166TIP3    H148989   4.178   0.498  15.561 -0.1133 -1.2216  1.2386
 9166TIP3    H248990   4.191   0.610  15.661 -0.4484  0.0808 -0.1283
 9167TIP3   OH248991   4.499   3.246  15.180 -0.5149 -0.2626 -0.0239
 9167TIP3    H148992   4.473   3.228  15.090 -0.5582 -3.5699  0.5315
 9167TIP3    H248993   4.591   3.271  15.174 -0.5014 -0.5002 -0.9554
 9168TIP3   OH248994   0.541   2.456   6.485 -0.3405  0.3300 -0.1098
 9168TIP3    H148995   0.500   2.527   6.437 -0.5606 -0.3248 -0.9051
 9168TIP3    H248996   0.575   2.498   6.565 -2.2896  0.9528  0.4609
 9169TIP3   OH248997   5.692   5.616   4.834  0.2097 -0.2121 -0.1818
 9169TIP3    H148998   5.748   5.560   4.780  1.9099 -0.1769  1.4244
 9169TIP3    H248999   5.685   5.569   4.917  1.1453  1.5764  0.9813
 9170TIP3   OH249000   4.114   3.967  14.780  0.1248  0.0104 -0.2873
 9170TIP3    H149001   4.168   4.043  14.760 -1.4378  0.9464 -1.1203
 9170TIP3    H249002   4.156   3.894  14.734  2.9243 -0.2114  2.2723
 9171TIP3   OH249003   6.224   0.585   2.902 -0.2146 -0.2095  0.1558
 9171TIP3    H149004   6.210   0.589   2.807 -0.4617 -2.9316 -0.0016
 9171TIP3    H249005   6.314   0.615   2.915 -0.7083  1.7798 -0.7137
 9172TIP3   OH249006   3.787   1.216   5.236  0.0192  0.3082  0.1810
 9172TIP3    H149007   3.861   1.214   5.297 -0.1284  2.3554  0.5146
 9172TIP3    H249008   3.737   1.293   5.263 -0.9601  0.2964 -1.5044
 9173TIP3   OH249009   1.962   2.345  14.853 -0.5435  0.1722 -0.1131
 9173TIP3    H149010   1.877   2.388  14.848 -1.2727 -0.9949  1.4064
 9173TIP3    H249011   2.023   2.414  14.879 -0.6231  1.4021 -2.8017
 9174TIP3   OH249012   5.778   1.260  13.339 -0.3651 -0.1529 -0.0604
 9174TIP3    H149013   5.827   1.181  13.315  0.8832  0.4029  0.5485
 9174TIP3    H249014   5.837   1.332  13.315 -0.8383  0.5357  0.7982
 9175TIP3   OH249015   3.999   4.187   3.895 -0.7744  0.3040  0.3600
 9175TIP3    H149016   3.972   4.127   3.825 -1.8859  2.3824 -1.1202
 9175TIP3    H249017   3.917   4.218   3.933 -0.3506  2.1413 -0.1023
 9176TIP3   OH249018   0.101   5.122   1.444 -0.0658 -0.0363 -0.1311
 9176TIP3    H149019   0.068   5.067   1.515 -0.7854 -1.0273 -1.2087
 9176TIP3    H249020   0.023   5.163   1.407  0.1712 -0.4595 -1.1175
 9177TIP3   OH249021   6.025   3.479  14.503 -0.5430 -0.4856  0.5270
 9177TIP3    H149022   6.035   3.549  14.438 -1.7738 -0.7137  0.0537
 9177TIP3    H249023   6.106   3.481  14.553  0.8806 -0.9509 -1.6353
 9178TIP3   OH249024   3.927   3.777  11.844 -0.3486  0.2319  0.1673
 9178TIP3    H149025   3.864   3.807  11.909 -1.0677  0.8495 -0.7967
 9178TIP3    H249026   3.963   3.696  11.881 -2.9563 -1.1094 -0.0344
 9179TIP3   OH249027   5.685   0.804   0.529 -0.2568 -0.9025  0.0009
 9179TIP3    H149028   5.723   0.870   0.472 -0.7798  1.0778  1.8367
 9179TIP3    H249029   5.742   0.803   0.606 -2.8492  0.9761  2.1037
 9180TIP3   OH249030   2.404   3.095   6.105  0.0160  0.6208 -0.1136
 9180TIP3    H149031   2.373   3.179   6.140 -0.0577  0.7373 -0.4512
 9180TIP3    H249032   2.323   3.045   6.088 -0.0183  1.0307 -1.2594
 9181TIP3   OH249033   2.665   0.371  17.121 -0.2097  0.1104 -0.8608
 9181TIP3    H149034   2.718   0.379  17.201 -0.6456 -0.4016 -0.5142
 9181TIP3    H249035   2.649   0.277  17.112  0.7851  0.0362 -2.1928
 9182TIP3   OH249036   3.977   1.662   2.291 -0.3409  0.1487 -0.1929
 9182TIP3    H149037   4.022   1.603   2.231  0.2771 -0.3607  0.7457
 9182TIP3    H249038   3.964   1.611   2.371 -1.9536  0.5302 -0.1864
 9183TIP3   OH249039   1.034   0.343  17.167  0.4692 -0.4466 -0.3845
 9183TIP3    H149040   0.969   0.334  17.097 -0.0595  1.4230 -0.1932
 9183TIP3    H249041   1.067   0.432  17.157  1.7261 -0.7667  0.6377
 9184TIP3   OH249042   4.300   0.522  14.618  0.4069 -0.0160 -0.3634
 9184TIP3    H149043   4.298   0.584  14.691  2.0322  1.2499 -1.3264
 9184TIP3    H249044   4.389   0.487  14.618 -0.3126 -2.0244 -0.1721
 9185TIP3   OH249045   1.533   3.647  16.009 -0.3074  0.5651 -0.5279
 9185TIP3    H149046   1.550   3.602  15.926 -1.1660 -0.4819 -0.1675
 9185TIP3    H249047   1.528   3.576  16.074 -1.0512  1.2317  0.1708
 9186TIP3   OH249048   5.138   1.674   3.854  0.1499 -0.0924  0.0432
 9186TIP3    H149049   5.196   1.740   3.892  0.0300  0.8005 -1.2449
 9186TIP3    H249050   5.064   1.670   3.915  0.7779 -0.0084  0.8229
 9187TIP3   OH249051   0.045   0.622  15.763 -0.0748  0.3668  0.3062
 9187TIP3    H149052   0.103   0.548  15.782  0.0896  0.7515  1.4048
 9187TIP3    H249053  -0.038   0.581  15.736  0.2950 -0.1989 -0.0093
 9188TIP3   OH249054   4.059   0.091   3.201  0.1033  0.0196  0.0698
 9188TIP3    H149055   4.028   0.075   3.112  1.4497 -1.9405 -0.1111
 9188TIP3    H249056   4.093   0.180   3.199 -0.5636  0.2689 -1.1590
 9189TIP3   OH249057   1.409   1.020  15.891 -0.2104 -0.2499  0.7258
 9189TIP3    H149058   1.328   0.996  15.846  0.0971 -0.3183  0.1961
 9189TIP3    H249059   1.442   1.096  15.843 -0.0443 -0.1209  1.0397
 9190TIP3   OH249060   2.901   0.269   1.279  0.5241 -0.5051 -0.0341
 9190TIP3    H149061   2.945   0.328   1.217  0.7848  1.4382  1.8605
 9190TIP3    H249062   2.949   0.186   1.271  1.1560 -0.0210 -1.7111
 9191TIP3   OH249063   6.636   2.035  12.217  0.2522 -0.0642 -0.3706
 9191TIP3    H149064   6.612   1.997  12.301  1.8091 -0.9010 -0.2576
 9191TIP3    H249065   6.650   1.960  12.159  1.2017  0.4021 -0.7762
 9192TIP3   OH249066   6.653   2.521  13.767  0.2523 -0.2737 -0.3909
 9192TIP3    H149067   6.670   2.538  13.859  0.4200 -0.2146 -0.4337
 9192TIP3    H249068   6.675   2.602  13.722 -1.3133  0.2349 -0.3060
 9193TIP3   OH249069   5.402   3.070   1.947 -0.1097  0.0077  0.1936
 9193TIP3    H149070   5.345   3.115   1.884  1.6323  2.1419 -0.0053
 9193TIP3    H249071   5.384   3.114   2.030 -0.1250 -0.6255  0.5278
 9194TIP3   OH249072   1.243   5.941  12.458 -0.3070  0.2160 -0.2413
 9194TIP3    H149073   1.228   5.851  12.489 -0.0829  0.8049  1.7381
 9194TIP3    H249074   1.264   5.932  12.365  2.3712 -2.0390  0.4684
 9195TIP3   OH249075   2.567   3.187   4.018  0.2629 -0.4405  0.1489
 9195TIP3    H149076   2.472   3.186   4.011  0.1053 -0.9249  1.9326
 9195TIP3    H249077   2.595   3.100   3.991  0.1410 -0.5698  0.4491
 9196TIP3   OH249078   4.794   4.578  10.823  0.2034  0.3020  0.0909
 9196TIP3    H149079   4.842   4.503  10.789 -2.1155 -0.9331 -0.6560
 9196TIP3    H249080   4.752   4.545  10.903 -0.5068  0.9091 -0.0191
 9197TIP3   OH249081   2.334   3.281  16.388  0.3135 -0.3399  0.2960
 9197TIP3    H149082   2.424   3.271  16.416  0.5319 -1.6658 -0.7456
 9197TIP3    H249083   2.316   3.375  16.394  1.5408 -0.1419  1.1012
 9198TIP3   OH249084   6.218   1.941   6.047  0.1501 -0.0005 -0.2305
 9198TIP3    H149085   6.308   1.959   6.073 -0.4364  0.1345  1.9577
 9198TIP3    H249086   6.166   2.003   6.098 -1.1221  1.0442 -2.6789
 9199TIP3   OH249087   5.079   0.112  11.089  0.2029  0.2988 -0.6490
 9199TIP3    H149088   5.128   0.190  11.063  2.0856  0.5147  2.8922
 9199TIP3    H249089   5.129   0.039  11.052  2.3592  0.5997  1.4696
 9200TIP3   OH249090   1.259   4.934  12.781  0.0593 -0.2073 -0.8046
 9200TIP3    H149091   1.205   4.865  12.742 -1.2201  1.0527 -1.3169
 9200TIP3    H249092   1.200   5.008  12.791  1.2805  0.6710  0.2241
 9201TIP3   OH249093   1.822   2.705  10.819 -0.2593 -0.6382  0.2996
 9201TIP3    H149094   1.730   2.694  10.797 -0.2140  0.8984 -0.8203
 9201TIP3    H249095   1.830   2.798  10.841  1.2669 -0.4516 -0.9268
 9202TIP3   OH249096   0.922   2.890   5.822 -0.2044  0.7442 -0.1886
 9202TIP3    H149097   0.940   2.946   5.746 -1.8960 -0.7799 -1.8046
 9202TIP3    H249098   1.008   2.876   5.862  0.8896  0.8422 -2.3634
 9203TIP3   OH249099   3.749   3.258  15.529  0.0513 -0.5579  0.2133
 9203TIP3    H149100   3.730   3.235  15.438  2.2009 -1.8845  0.0350
 9203TIP3    H249101   3.799   3.339  15.524  0.0378 -0.5496  0.2167
 9204TIP3   OH249102   1.219   2.861  16.113  0.1897  0.3631 -0.0388
 9204TIP3    H149103   1.209   2.906  16.197 -0.1206  0.5895 -0.1947
 9204TIP3    H249104   1.180   2.921  16.049  2.6480  1.3757 -0.6994
 9205TIP3   OH249105   4.290   1.101  16.868 -0.0425 -0.5658 -0.5003
 9205TIP3    H149106   4.373   1.091  16.820  0.9255  1.2217  0.6837
 9205TIP3    H249107   4.295   1.037  16.938  0.2869 -0.5398 -0.4987
 9206TIP3   OH249108   4.053   2.707  12.000  0.3151 -0.8576  0.4139
 9206TIP3    H149109   4.055   2.740  12.090 -0.7336  0.4421 -0.0073
 9206TIP3    H249110   4.074   2.784  11.946 -2.6574 -0.6382 -0.6292
 9207TIP3   OH249111   2.373   1.647  16.601  1.1116  0.0634  0.2736
 9207TIP3    H149112   2.299   1.696  16.566 -0.8118 -1.6896  1.6119
 9207TIP3    H249113   2.383   1.572  16.543  1.0901 -0.2849  0.7066
 9208TIP3   OH249114   0.816   6.141   5.680 -0.2849  0.4868 -0.6738
 9208TIP3    H149115   0.785   6.231   5.671  1.0845  0.8747 -1.7864
 9208TIP3    H249116   0.911   6.149   5.682 -0.0974 -1.0349 -2.0535
 9209TIP3   OH249117   6.407   2.845   5.651 -0.2365 -0.1905  0.3841
 9209TIP3    H149118   6.476   2.780   5.663 -0.5048 -0.6551 -0.5082
 9209TIP3    H249119   6.331   2.794   5.621  0.5155  0.8279 -3.8821
 9210TIP3   OH249120   5.602   5.095  11.628 -0.2973 -0.1327  0.3750
 9210TIP3    H149121   5.555   5.158  11.574  1.1786  1.4335  0.8375
 9210TIP3    H249122   5.658   5.047  11.566 -0.6834 -0.2922  0.1504
 9211TIP3   OH249123   2.569   4.092  15.907  0.0940  0.2323  0.3398
 9211TIP3    H149124   2.492   4.127  15.863  1.6492  2.0211 -1.1097
 9211TIP3    H249125   2.577   4.145  15.987 -0.6040 -0.4667  0.8730
 9212TIP3   OH249126   3.899   6.509  14.088  0.0037  0.1438 -0.0150
 9212TIP3    H149127   3.822   6.479  14.137  1.1553 -0.4880  1.5141
 9212TIP3    H249128   3.897   6.458  14.007 -1.5109  0.5925 -0.2757
 9213TIP3   OH249129   3.488   2.148   3.388  0.2136 -0.2702 -0.1270
 9213TIP3    H149130   3.473   2.175   3.298 -1.3687  1.1120  0.4869
 9213TIP3    H249131   3.560   2.085   3.383 -1.6885 -2.5090 -2.7029
 9214TIP3   OH249132   1.094   3.998   0.967 -0.3678  0.0086  0.3815
 9214TIP3    H149133   1.031   3.955   0.909 -0.3007  0.6499 -0.1801
 9214TIP3    H249134   1.048   4.078   0.996  0.9819  1.7741 -1.9363
 9215TIP3   OH249135   5.693   2.685  15.077  0.1454  0.1482  0.2389
 9215TIP3    H149136   5.696   2.762  15.021 -0.3439  0.7204  0.9867
 9215TIP3    H249137   5.662   2.615  15.019  0.7458  0.4625 -0.4835
 9216TIP3   OH249138   6.721   4.975  12.522 -0.3830  0.4278 -0.4394
 9216TIP3    H149139   6.652   4.957  12.586 -1.0345 -0.0460 -1.2469
 9216TIP3    H249140   6.786   5.026  12.570 -1.6615  1.5643  0.1353
 9217TIP3   OH249141   3.653   3.157  17.030 -0.0117 -0.4736  0.6170
 9217TIP3    H149142   3.583   3.148  17.095 -0.9704 -0.7773 -0.4233
 9217TIP3    H249143   3.611   3.137  16.947  1.3207 -0.6348 -0.0462
 9218TIP3   OH249144   5.632   3.400   2.536 -0.5705  0.1411 -0.2544
 9218TIP3    H149145   5.635   3.356   2.451  0.0962  1.3368 -0.8807
 9218TIP3    H249146   5.588   3.338   2.594 -1.3340 -0.5641 -1.5509
 9219TIP3   OH249147   5.748   5.708  16.356 -0.7961  0.2978  0.2837
 9219TIP3    H149148   5.831   5.675  16.322 -0.5124  0.7048  0.5683
 9219TIP3    H249149   5.773   5.779  16.415 -1.0537 -2.2390  3.7255
 9220TIP3   OH249150   5.919   5.732  16.842  0.2442 -0.1556  0.0278
 9220TIP3    H149151   5.845   5.781  16.807  1.3591  1.0669 -0.7210
 9220TIP3    H249152   5.944   5.780  16.922 -0.4197 -1.1926  0.8855
 9221TIP3   OH249153   0.698   0.781  12.029  0.2370  0.1494  0.7128
 9221TIP3    H149154   0.687   0.688  12.046 -1.5258  0.2325  0.3009
 9221TIP3    H249155   0.769   0.808  12.087  0.4819 -1.3606  1.1549
 9222TIP3   OH249156   2.082   4.827   0.865 -0.3229  0.3243 -0.0661
 9222TIP3    H149157   2.044   4.914   0.853  0.2125  0.7283  1.0108
 9222TIP3    H249158   2.085   4.815   0.960  1.1392 -0.1782 -0.1501
 9223TIP3   OH249159   2.489   2.119  12.818 -0.2039  0.3254  0.0380
 9223TIP3    H149160   2.553   2.052  12.796 -0.6951 -0.1036 -0.1038
 9223TIP3    H249161   2.451   2.090  12.901 -0.9633  0.0120 -0.4075
 9224TIP3   OH249162   0.247   4.504   6.637  0.1333 -0.1998  0.1875
 9224TIP3    H149163   0.209   4.481   6.552 -0.8296 -0.6126  0.7253
 9224TIP3    H249164   0.273   4.596   6.627 -1.1006  0.1271 -0.1618
 9225TIP3   OH249165   6.677   5.843   2.890  0.3336 -0.0085 -0.5778
 9225TIP3    H149166   6.716   5.916   2.939  2.6346 -1.5216 -0.0040
 9225TIP3    H249167   6.598   5.880   2.850  0.6691  2.4023  0.8214
 9226TIP3   OH249168   2.492   4.693   4.177  0.5821  0.1307 -0.3962
 9226TIP3    H149169   2.493   4.769   4.119 -1.6174  1.9216  1.7037
 9226TIP3    H249170   2.537   4.723   4.256 -1.0474 -0.4264  0.7872
 9227TIP3   OH249171   3.766   0.727  13.155  0.3782 -0.5766 -0.1683
 9227TIP3    H149172   3.689   0.706  13.102 -0.3677  0.0163  0.6482
 9227TIP3    H249173   3.780   0.821  13.141  0.8143 -0.6339 -0.1279
 9228TIP3   OH249174   4.647   0.324   3.433 -0.8464  0.1033  0.3868
 9228TIP3    H149175   4.655   0.373   3.514 -1.9431  0.8234  0.0837
 9228TIP3    H249176   4.552   0.320   3.417 -0.7051 -0.9824 -0.2771
 9229TIP3   OH249177   3.426   6.337  12.615  0.5247  0.0779  0.0506
 9229TIP3    H149178   3.399   6.335  12.523 -0.3816 -1.9574  0.3001
 9229TIP3    H249179   3.515   6.301  12.614  1.5701  2.5160 -0.2691
 9230TIP3   OH249180   2.628   2.693   4.857 -0.5838 -0.3682 -0.4996
 9230TIP3    H149181   2.540   2.655   4.850 -0.6178  0.0017 -3.0657
 9230TIP3    H249182   2.641   2.704   4.951 -2.7752 -1.5751  0.0377
 9231TIP3   OH249183   5.462   0.890   1.934 -0.2923  0.2548  0.4341
 9231TIP3    H149184   5.404   0.964   1.955  0.9722  0.9473  1.6210
 9231TIP3    H249185   5.504   0.916   1.852  1.1431  1.5387  1.5105
 9232TIP3   OH249186   2.521   3.258  15.756  0.1531 -0.4267 -0.1885
 9232TIP3    H149187   2.566   3.174  15.762  0.3640 -0.3219 -0.3019
 9232TIP3    H249188   2.578   3.312  15.702  0.7743  0.2848  1.1299
 9233TIP3   OH249189   1.590   6.396   1.859 -0.5637 -0.2498 -0.7690
 9233TIP3    H149190   1.554   6.485   1.855 -0.0093  0.0728  0.6097
 9233TIP3    H249191   1.680   6.408   1.889 -1.0535 -1.3409  1.3884
 9234TIP3   OH249192   0.292   5.184   6.493 -0.0080 -0.2091 -0.5281
 9234TIP3    H149193   0.287   5.176   6.398  0.8168  0.3296 -0.6211
 9234TIP3    H249194   0.345   5.109   6.521  0.6968  0.2525 -0.6067
 9235TIP3   OH249195   4.867   2.087   2.089 -0.5198  0.4452  0.4839
 9235TIP3    H149196   4.930   2.119   2.024 -1.0160 -2.3885 -1.5898
 9235TIP3    H249197   4.782   2.109   2.052 -0.8116  1.1898  1.5595
 9236TIP3   OH249198   3.560   4.404  14.293 -0.0979 -0.2665  0.4682
 9236TIP3    H149199   3.577   4.332  14.232  0.7474 -0.7199  1.2115
 9236TIP3    H249200   3.633   4.464  14.281 -1.4439  1.1583 -1.0581
 9237TIP3   OH249201   3.769   1.511  11.507 -0.0680 -0.5098 -0.6446
 9237TIP3    H149202   3.731   1.427  11.483  0.4030 -0.8503 -0.2332
 9237TIP3    H249203   3.729   1.533  11.591 -0.7700  0.0594 -1.1236
 9238TIP3   OH249204   1.188   3.564  13.293 -0.1876  0.3260  0.3000
 9238TIP3    H149205   1.282   3.552  13.306 -0.0307  0.7638 -0.3948
 9238TIP3    H249206   1.156   3.476  13.271 -0.1536 -0.0623  1.6957
 9239TIP3   OH249207   5.184   1.499  17.568 -0.6686 -0.7511 -0.4860
 9239TIP3    H149208   5.136   1.444  17.506  1.2390 -2.2926 -0.6858
 9239TIP3    H249209   5.244   1.440  17.612  0.7234  0.9850  0.0845
 9240TIP3   OH249210   2.487   0.051  14.913 -0.4125 -0.5080 -0.4012
 9240TIP3    H149211   2.535   0.118  14.863  1.9707 -1.8731 -0.0932
 9240TIP3    H249212   2.500   0.076  15.005 -2.1644  0.2623 -0.3160
 9241TIP3   OH249213   6.303   4.661   1.673  0.1963  0.7080  0.8755
 9241TIP3    H149214   6.251   4.644   1.594 -0.8017  0.6317  1.5315
 9241TIP3    H249215   6.325   4.574   1.706  2.6378  0.6832 -0.5604
 9242TIP3   OH249216   2.633   1.224   4.958  0.0552  0.6638 -0.6745
 9242TIP3    H149217   2.614   1.184   4.873 -0.2066  0.3242 -0.4602
 9242TIP3    H249218   2.648   1.150   5.017  0.6637  0.9043 -0.5188
 9243TIP3   OH249219   1.279   2.190  15.804  0.3499 -0.4322 -0.1181
 9243TIP3    H149220   1.306   2.281  15.816 -0.5632 -0.0122 -1.1408
 9243TIP3    H249221   1.356   2.139  15.832  0.3345  0.5696  1.9777
 9244TIP3   OH249222   1.187   2.172  14.855  0.1198 -0.1428 -0.3694
 9244TIP3    H149223   1.231   2.101  14.809 -0.5329  0.0654 -1.3472
 9244TIP3    H249224   1.102   2.136  14.879 -0.3562  0.4019 -1.1850
 9245TIP3   OH249225   6.313   3.102   5.561 -0.4143  0.9744 -0.3750
 9245TIP3    H149226   6.351   3.014   5.572  0.4716  1.1650 -1.6200
 9245TIP3    H249227   6.357   3.155   5.627 -0.4737  0.6194 -0.0470
 9246TIP3   OH249228   0.984   3.057   2.499 -0.0866 -0.0434  0.6147
 9246TIP3    H149229   0.970   3.112   2.423  2.1307 -2.4984 -1.7823
 9246TIP3    H249230   0.897   3.024   2.522 -1.0220  2.1320  0.3367
 9247TIP3   OH249231   3.676   2.331   0.970 -0.2768 -1.0224  0.4809
 9247TIP3    H149232   3.747   2.296   1.023 -0.5521 -2.3535  0.0200
 9247TIP3    H249233   3.716   2.402   0.920  0.6933 -1.6456  0.3448
 9248TIP3   OH249234   5.465   2.841   1.790 -0.1890 -0.3771 -0.3789
 9248TIP3    H149235   5.450   2.912   1.852  0.4893  2.5377 -3.2290
 9248TIP3    H249236   5.377   2.807   1.770 -0.6042  0.1455  0.5158
 9249TIP3   OH249237   4.547   1.212   3.365  0.6203 -0.2597 -0.1624
 9249TIP3    H149238   4.609   1.229   3.435  1.5370 -1.6510 -0.6115
 9249TIP3    H249239   4.462   1.241   3.400  1.1661 -0.3214  1.2416
 9250TIP3   OH249240   4.131   2.738  12.717  0.0864 -0.2481 -0.5087
 9250TIP3    H149241   4.135   2.662  12.660  1.2223 -0.7907  0.2617
 9250TIP3    H249242   4.087   2.706  12.796 -1.2971  0.4446 -0.9665
 9251TIP3   OH249243   0.093   6.277  16.844  0.0927  0.1675  0.2978
 9251TIP3    H149244   0.051   6.361  16.825  2.5806  1.0781 -1.6751
 9251TIP3    H249245   0.118   6.283  16.936 -0.7170  1.1077  0.4755
 9252TIP3   OH249246   5.698   1.494  15.841 -0.0560  0.4530  0.3791
 9252TIP3    H149247   5.639   1.429  15.802  2.8488 -1.6435 -0.8524
 9252TIP3    H249248   5.754   1.522  15.768  0.8209  1.9753  1.5867
 9253TIP3   OH249249   3.213   2.851   5.220  0.3363  0.3917 -0.1650
 9253TIP3    H149250   3.139   2.803   5.257 -0.5975  1.5035 -0.5221
 9253TIP3    H249251   3.278   2.854   5.290  0.2133 -0.9086  0.0348
 9254TIP3   OH249252   0.963   4.607   2.375  0.1012  0.5181  0.1254
 9254TIP3    H149253   0.888   4.625   2.431 -0.2077  0.8653 -0.3874
 9254TIP3    H249254   1.019   4.684   2.385  0.5035  0.1590  0.6822
 9255TIP3   OH249255   0.048   6.371  12.224  0.4577  0.5956  0.2045
 9255TIP3    H149256  -0.011   6.420  12.167 -0.3387 -1.1767 -0.5414
 9255TIP3    H249257   0.133   6.414  12.212  0.1685  0.6767 -1.8086
 9256TIP3   OH249258   4.720   1.919   6.305 -0.2730  0.4210  0.2516
 9256TIP3    H149259   4.804   1.944   6.267 -1.3694  0.8307 -2.0498
 9256TIP3    H249260   4.728   1.942   6.398  2.6698 -0.9831  0.4504
 9257TIP3   OH249261   5.705   6.204  14.630  0.1477 -0.4308 -0.0340
 9257TIP3    H149262   5.771   6.139  14.606 -0.5929 -1.3198  0.2912
 9257TIP3    H249263   5.627   6.152  14.651 -0.7059  0.6064 -0.5607
 9258TIP3   OH249264   0.842   6.271   2.615  0.6476  0.3556  0.3164
 9258TIP3    H149265   0.784   6.197   2.632  0.2520  0.3505 -1.0015
 9258TIP3    H249266   0.928   6.232   2.604  0.5686  0.1644  0.3745
 9259TIP3   OH249267   5.132   2.036   3.485  0.2718  0.0449  0.0793
 9259TIP3    H149268   5.151   2.079   3.401  1.8172 -1.0623 -0.1822
 9259TIP3    H249269   5.125   1.943   3.463 -2.4522  0.0147  0.7265
 9260TIP3   OH249270   5.133   0.866  10.691  0.6004 -0.4324 -0.5665
 9260TIP3    H149271   5.047   0.899  10.717  0.3207 -2.6760  1.8465
 9260TIP3    H249272   5.132   0.774  10.720  3.6224 -0.6622 -0.9477
 9261TIP3   OH249273   4.751   4.869   3.198  0.2444  0.4608 -0.0507
 9261TIP3    H149274   4.785   4.792   3.243  2.1314  0.1033 -1.9236
 9261TIP3    H249275   4.781   4.943   3.250  1.5185  0.0341 -0.1473
 9262TIP3   OH249276   0.836   1.141   1.483  0.0772  0.5228 -0.3742
 9262TIP3    H149277   0.907   1.204   1.496 -1.0320  1.6014  0.7655
 9262TIP3    H249278   0.762   1.195   1.455 -1.3541  0.0120  2.1269
 9263TIP3   OH249279   1.741   1.426  13.541 -0.5771 -0.3839 -0.3185
 9263TIP3    H149280   1.767   1.371  13.467 -1.1160  0.2752 -1.0191
 9263TIP3    H249281   1.645   1.430  13.536 -0.6895 -1.0818  0.9778
 9264TIP3   OH249282   2.665   0.349  14.963  0.2749  0.4253  0.0951
 9264TIP3    H149283   2.690   0.430  15.007 -0.6208 -0.3159  2.1377
 9264TIP3    H249284   2.570   0.354  14.955  0.2788 -0.1353 -0.3509
 9265TIP3   OH249285   6.712   3.284   5.629 -0.1908  0.0448  0.1668
 9265TIP3    H149286   6.773   3.298   5.702 -0.9703  0.0179  0.8395
 9265TIP3    H249287   6.738   3.348   5.564  1.0847 -0.5188  0.0875
 9266TIP3   OH249288   1.697   0.806   4.087  0.0722  0.0476  0.5268
 9266TIP3    H149289   1.738   0.751   4.153  0.9670  0.4274  0.2985
 9266TIP3    H249290   1.685   0.748   4.012 -0.3790 -0.2203  0.7957
 9267TIP3   OH249291   3.567   2.508   1.478  0.7483 -0.4384  0.6473
 9267TIP3    H149292   3.533   2.563   1.407 -0.8133 -0.6621  1.2004
 9267TIP3    H249293   3.634   2.563   1.520  0.1949  0.5073  0.3258
 9268TIP3   OH249294   1.199   6.252  12.246 -0.4686 -0.2449 -0.4582
 9268TIP3    H149295   1.213   6.238  12.153 -1.3557  0.7400 -0.7612
 9268TIP3    H249296   1.123   6.198  12.267  0.1223 -0.9710 -0.1498
 9269TIP3   OH249297   4.639   3.827  12.655 -0.3142 -0.1757  0.4121
 9269TIP3    H149298   4.547   3.822  12.678  0.0638 -0.0212  2.0567
 9269TIP3    H249299   4.655   3.920  12.638 -0.0053  0.1702  2.3322
 9270TIP3   OH249300   2.386   1.420   3.461  0.3472  0.1070  0.3579
 9270TIP3    H149301   2.324   1.350   3.481  1.0312 -0.0061  2.2361
 9270TIP3    H249302   2.360   1.492   3.518  1.6594  0.2166  0.8499
 9271TIP3   OH249303   2.336   1.449   3.766  0.5171 -0.3288  0.1316
 9271TIP3    H149304   2.249   1.479   3.738  1.6520  2.9968 -0.2702
 9271TIP3    H249305   2.336   1.461   3.861  0.3725 -0.8631  0.2020
 9272TIP3   OH249306   0.224   6.601   6.405 -0.1185  0.2055  0.2274
 9272TIP3    H149307   0.241   6.676   6.348 -0.1017  0.2460  0.2852
 9272TIP3    H249308   0.309   6.560   6.417  0.2779  1.4331  1.9479
 9273TIP3   OH249309   6.652   6.450  12.530  0.2064 -0.1729  0.1899
 9273TIP3    H149310   6.738   6.407  12.537  0.4602  0.5239  2.3741
 9273TIP3    H249311   6.670   6.542  12.551 -1.1031 -0.0759  0.9589
 9274TIP3   OH249312   1.579   2.835  16.793 -0.2739  0.2662 -0.1719
 9274TIP3    H149313   1.490   2.807  16.773  0.2803 -0.1260 -2.3930
 9274TIP3    H249314   1.610   2.772  16.858 -1.0943 -0.5734 -0.5753
 9275TIP3   OH249315   5.252   3.920   5.571  0.1933 -0.0404 -0.5473
 9275TIP3    H149316   5.276   3.956   5.656  2.3853 -0.0236 -1.1140
 9275TIP3    H249317   5.301   3.838   5.565 -1.9192 -1.3800 -0.7821
 9276TIP3   OH249318   3.692   6.274   1.179  0.6381  0.3361 -0.2966
 9276TIP3    H149319   3.701   6.344   1.113  1.9700  1.6279  1.1714
 9276TIP3    H249320   3.640   6.314   1.248 -1.2681 -1.2086 -0.7553
 9277TIP3   OH249321   0.046   3.179  15.869 -0.4394 -0.3965  0.1532
 9277TIP3    H149322   0.079   3.182  15.779  0.8655  0.3656  0.6304
 9277TIP3    H249323  -0.018   3.250  15.873 -0.2948 -0.2483 -0.1135
 9278TIP3   OH249324   6.685   0.004  13.445  0.3674 -0.0713 -0.1635
 9278TIP3    H149325   6.664   0.030  13.535  1.0172  0.5885 -0.1906
 9278TIP3    H249326   6.735   0.078  13.410  1.2280 -0.8566 -0.6495
 9279TIP3   OH249327   3.819   0.884  12.903  0.3602 -0.1460 -0.1096
 9279TIP3    H149328   3.795   0.874  12.811 -1.1855  0.0330  0.2568
 9279TIP3    H249329   3.754   0.945  12.938  1.5075  0.5461  0.8915
 9280TIP3   OH249330   2.877   6.480  11.873  0.3180  0.2244  0.6020
 9280TIP3    H149331   2.880   6.385  11.879 -1.4625  0.2098  2.2886
 9280TIP3    H249332   2.871   6.499  11.780  1.4330 -1.2447  0.2024
 9281TIP3   OH249333   5.134   0.263   2.704  0.9665  0.1745 -0.1395
 9281TIP3    H149334   5.064   0.221   2.654  0.5062 -0.2535  0.8431
 9281TIP3    H249335   5.214   0.217   2.677  0.4901 -1.2392  0.7991
 9282TIP3   OH249336   0.086   3.292   5.154 -0.3506  0.2424  0.2608
 9282TIP3    H149337   0.074   3.261   5.064  0.2132 -0.0525  0.2826
 9282TIP3    H249338  -0.002   3.289   5.193 -0.4308 -0.5725  0.0200
 9283TIP3   OH249339   2.718   6.138   3.761  0.4740 -0.9974  0.3623
 9283TIP3    H149340   2.731   6.116   3.669  0.7582  0.8781 -0.0945
 9283TIP3    H249341   2.706   6.054   3.805  0.4043 -1.9302 -1.3688
 9284TIP3   OH249342   3.922   0.617  16.889  0.9993  0.5274 -0.8869
 9284TIP3    H149343   3.827   0.614  16.872 -0.2177  1.9082  4.1272
 9284TIP3    H249344   3.953   0.689  16.834 -1.1494  1.0734 -1.4987
 9285TIP3   OH249345   0.219   4.515   0.295  0.3124 -0.3235 -0.0173
 9285TIP3    H149346   0.303   4.561   0.288  0.0865  0.7262  2.6261
 9285TIP3    H249347   0.164   4.555   0.228  0.7403  2.0013  0.8993
 9286TIP3   OH249348   1.997   6.671  13.894  0.0662 -0.4772 -0.6222
 9286TIP3    H149349   2.074   6.614  13.887  0.5911 -0.0488  1.1518
 9286TIP3    H249350   1.929   6.614  13.930  0.5571 -0.0423  1.0397
 9287TIP3   OH249351   4.139   1.461  14.076  0.2029  0.4956  0.2098
 9287TIP3    H149352   4.155   1.546  14.117  1.0994  0.4277  0.0096
 9287TIP3    H249353   4.135   1.400  14.149  0.5230  0.5635  0.2837
 9288TIP3   OH249354   2.976   3.746   1.851  0.2658  0.2952 -0.4692
 9288TIP3    H149355   2.888   3.777   1.870  0.3189  0.7910 -1.0375
 9288TIP3    H249356   2.987   3.669   1.908  0.0793  1.1970  0.8428
 9289TIP3   OH249357   4.508   2.670  11.753 -0.5429 -0.3319 -0.2503
 9289TIP3    H149358   4.476   2.728  11.822 -1.9103 -0.5187 -0.6914
 9289TIP3    H249359   4.461   2.699  11.675  0.7537 -0.3171 -1.0566
 9290TIP3   OH249360   4.154   1.588   2.602  0.1080 -0.2214 -0.4011
 9290TIP3    H149361   4.200   1.601   2.519 -0.2369 -0.4721 -0.6367
 9290TIP3    H249362   4.171   1.496   2.624 -0.1757 -0.2826 -0.4316
 9291TIP3   OH249363   0.845   1.594   4.248 -0.4325  0.2308  0.3055
 9291TIP3    H149364   0.926   1.626   4.288  0.0413  0.0253 -0.4725
 9291TIP3    H249365   0.862   1.595   4.154 -1.5994  0.9134  0.0698
 9292TIP3   OH249366   0.857   0.615   5.383  0.1309 -0.0029  0.5065
 9292TIP3    H149367   0.851   0.668   5.462  0.5873  0.3293  0.3206
 9292TIP3    H249368   0.930   0.556   5.399  0.8109  0.6824 -0.0315
 9293TIP3   OH249369   4.732   2.892  17.490 -0.4903  0.0933 -0.6691
 9293TIP3    H149370   4.803   2.955  17.485 -0.3393  0.1986  1.6855
 9293TIP3    H249371   4.767   2.820  17.542 -1.7139 -0.4015 -0.4748
 9294TIP3   OH249372   6.692   2.928   5.039 -0.6338  0.0426  0.7758
 9294TIP3    H149373   6.618   2.985   5.061 -0.3239  1.7536 -2.0692
 9294TIP3    H249374   6.652   2.847   5.010 -1.4201  0.7537 -0.2058
 9295TIP3   OH249375   1.892   1.683   5.968  0.0085  0.0414 -0.0143
 9295TIP3    H149376   1.967   1.742   5.982  0.2211 -0.4565  1.0970
 9295TIP3    H249377   1.896   1.660   5.876  1.5870 -0.4282  0.1290
 9296TIP3   OH249378   5.121   5.390   2.476 -0.1964  0.0198  0.1364
 9296TIP3    H149379   5.165   5.364   2.557  0.5056 -0.5882 -0.4139
 9296TIP3    H249380   5.189   5.436   2.426 -0.7256  0.7104  0.0436
 9297TIP3   OH249381   0.056   0.721  13.000 -0.0946  0.4646  0.2779
 9297TIP3    H149382   0.030   0.641  12.954  0.5110 -0.7547  1.9474
 9297TIP3    H249383   0.073   0.693  13.090 -0.6759  2.6349  1.1451
 9298TIP3   OH249384   0.938   1.291  12.948 -0.5299 -0.4256 -0.4500
 9298TIP3    H149385   0.848   1.268  12.972 -0.5376  0.9075  0.9745
 9298TIP3    H249386   0.943   1.386  12.961  1.3202 -0.5909  0.4059
 9299TIP3   OH249387   0.239   0.396  15.797 -0.8896 -0.1027 -0.1372
 9299TIP3    H149388   0.191   0.337  15.856  0.8029 -2.9596 -1.3771
 9299TIP3    H249389   0.294   0.337  15.744  0.1856  2.5692 -2.2385
 9300TIP3   OH249390   1.357   6.162  13.913 -0.3376  0.3923  0.7018
 9300TIP3    H149391   1.357   6.177  14.007 -1.9337  0.8047  0.6628
 9300TIP3    H249392   1.265   6.148  13.891  0.1076 -0.6082 -0.6648
 9301TIP3   OH249393   1.709   4.825  15.967  0.4101  0.0346 -0.3294
 9301TIP3    H149394   1.704   4.779  15.883 -1.5713  0.5316 -0.5394
 9301TIP3    H249395   1.672   4.764  16.031 -1.4396  0.9160 -0.4702
 9302TIP3   OH249396   4.442   5.173  17.428 -0.2668  0.7077  0.0199
 9302TIP3    H149397   4.378   5.160  17.498  2.2622  1.7862  2.7529
 9302TIP3    H249398   4.474   5.085  17.408  0.3611  0.5117  1.7200
 9303TIP3   OH249399   0.835   0.784   1.476  0.3548  0.2305 -0.0686
 9303TIP3    H149400   0.866   0.696   1.455 -0.2017 -0.0632  0.3125
 9303TIP3    H249401   0.764   0.799   1.414  1.7886  1.2633 -1.5599
 9304TIP3   OH249402   5.107   6.179   0.055 -0.3987  0.2032 -0.0905
 9304TIP3    H149403   5.166   6.222   0.117 -0.0036 -0.0685 -0.2765
 9304TIP3    H249404   5.158   6.172  -0.026  0.1240 -2.0209  0.3781
 9305TIP3   OH249405   0.240   5.041   2.379 -0.4850  0.2334 -0.4777
 9305TIP3    H149406   0.224   5.047   2.285 -2.9176  1.6898 -0.0643
 9305TIP3    H249407   0.195   5.117   2.416 -0.7233 -0.9915  1.9805
 9306TIP3   OH249408   0.234   5.375   1.218  0.3159 -0.1948  0.1864
 9306TIP3    H149409   0.327   5.393   1.225  0.4176  1.0579 -2.8591
 9306TIP3    H249410   0.191   5.457   1.244  0.0359 -0.6754  1.3034
 9307TIP3   OH249411   1.974   0.920   0.127  0.0074 -0.6929  0.3731
 9307TIP3    H149412   2.052   0.971   0.148  0.0545 -0.4783 -0.2819
 9307TIP3    H249413   1.998   0.829   0.146  0.3290 -0.5973  0.4261
 9308TIP3   OH249414   5.443   5.238  16.539 -0.0063  0.0297  0.2482
 9308TIP3    H149415   5.443   5.270  16.629  2.9282 -1.1166  0.7890
 9308TIP3    H249416   5.480   5.311  16.488 -1.5372  0.6272 -0.0513
 9309TIP3   OH249417   5.312   2.009  12.198  0.2182 -0.4423  0.1596
 9309TIP3    H149418   5.270   1.924  12.209  1.4610 -0.8720  2.2188
 9309TIP3    H249419   5.309   2.025  12.104 -0.1629 -2.7201 -0.2866
 9310TIP3   OH249420   1.507   4.133  12.336  0.2009 -0.1024 -0.6153
 9310TIP3    H149421   1.413   4.139  12.320 -0.1633  1.0449  1.5396
 9310TIP3    H249422   1.543   4.215  12.302  0.3115 -0.2152 -0.7723
 9311TIP3   OH249423   6.348   2.708   0.447 -0.2333  0.2894  0.6336
 9311TIP3    H149424   6.433   2.739   0.480  0.4893 -2.5085  1.7008
 9311TIP3    H249425   6.321   2.641   0.510 -3.6547  1.5422  0.7408
 9312TIP3   OH249426   4.728   4.240  14.945  0.1629  0.3540  0.0287
 9312TIP3    H149427   4.649   4.276  14.986 -0.3149  0.6332 -1.0753
 9312TIP3    H249428   4.800   4.278  14.994 -0.3888  0.3209  0.8822
 9313TIP3   OH249429   5.579   4.473  13.236 -0.3042 -0.5421 -0.0021
 9313TIP3    H149430   5.513   4.427  13.185 -1.7327  0.7188  0.6445
 9313TIP3    H249431   5.592   4.419  13.314 -2.6975  0.4948  1.2381
 9314TIP3   OH249432   4.793   5.471   0.633 -0.3724  0.1130  0.1880
 9314TIP3    H149433   4.705   5.507   0.645 -0.0616  1.1430 -0.4669
 9314TIP3    H249434   4.803   5.464   0.539 -0.6253 -2.3216  0.2817
 9315TIP3   OH249435   1.245   2.232   6.277 -0.4961 -0.4921  0.4512
 9315TIP3    H149436   1.168   2.176   6.275 -0.6070 -0.3608  0.9475
 9315TIP3    H249437   1.309   2.182   6.328  0.2458 -1.2228 -1.1263
 9316TIP3   OH249438   3.789   1.560   5.052 -0.3108 -0.3789 -0.2720
 9316TIP3    H149439   3.756   1.591   4.967 -0.3299 -4.8492 -2.1662
 9316TIP3    H249440   3.709   1.545   5.104 -0.5786 -1.0003 -0.8436
 9317TIP3   OH249441   5.605   3.076   4.911 -0.0403  0.3198  0.0087
 9317TIP3    H149442   5.510   3.082   4.921  0.1346 -0.2412  2.5097
 9317TIP3    H249443   5.620   2.987   4.878 -0.2510 -1.4526  4.0797
 9318TIP3   OH249444   1.502   1.343  13.476 -0.1845 -0.6465  0.3046
 9318TIP3    H149445   1.408   1.328  13.488  0.0952 -3.4749 -0.1805
 9318TIP3    H249446   1.515   1.336  13.381  0.2589  1.9963  0.1158
 9319TIP3   OH249447   6.332   0.055  17.168 -0.4409 -0.4278  0.0703
 9319TIP3    H149448   6.381   0.031  17.246  1.6030  0.8391 -0.7480
 9319TIP3    H249449   6.330   0.151  17.169 -1.2505 -0.4162 -0.9300
 9320TIP3   OH249450   2.067   1.479   1.483 -0.0082  0.0801  0.6490
 9320TIP3    H149451   2.095   1.545   1.420  1.0303  0.6958  1.7150
 9320TIP3    H249452   1.980   1.453   1.454  0.7585 -0.2936 -1.5420
 9321TIP3   OH249453   2.062   2.926  11.331 -0.4312 -0.1403  0.4812
 9321TIP3    H149454   1.977   2.971  11.327 -0.1623  0.3389 -0.1265
 9321TIP3    H249455   2.041   2.838  11.361 -0.9800  0.3623  1.6386
 9322TIP3   OH249456   0.271   0.414  16.856  0.2335  0.1246 -0.0844
 9322TIP3    H149457   0.229   0.328  16.858  2.1958 -1.1647 -3.9401
 9322TIP3    H249458   0.200   0.475  16.836 -0.6977 -1.1494 -0.8391
 9323TIP3   OH249459   5.162   1.996  13.137  0.1853  0.5378  0.7026
 9323TIP3    H149460   5.118   1.938  13.199 -0.2103  0.5721  0.4565
 9323TIP3    H249461   5.094   2.057  13.109 -0.0344 -0.4004 -0.9027
 9324TIP3   OH249462   3.155   4.651  17.529  0.1499 -0.6960 -0.1599
 9324TIP3    H149463   3.171   4.667  17.622 -2.3771 -0.2306  0.2801
 9324TIP3    H249464   3.181   4.560  17.515  2.6738 -0.1324  0.3969
 9325TIP3   OH249465   3.210   4.655  17.023  0.2402  0.4257 -0.1509
 9325TIP3    H149466   3.254   4.715  16.963 -1.9338  2.3971  0.0536
 9325TIP3    H249467   3.222   4.696  17.109  0.2391 -0.4285  0.2635
 9326TIP3   OH249468   1.688   3.530   1.925  0.3993 -0.2008 -0.4619
 9326TIP3    H149469   1.633   3.451   1.921  2.1672 -1.6891  2.0464
 9326TIP3    H249470   1.647   3.584   1.992 -0.1064  0.5167 -1.3148
 9327TIP3   OH249471   5.244   6.013   2.257 -0.2719 -0.1684 -0.3179
 9327TIP3    H149472   5.274   5.926   2.284  0.7783 -0.2546 -1.6640
 9327TIP3    H249473   5.227   6.058   2.339  0.7275 -1.1192  0.4480
 9328TIP3   OH249474   1.793   5.624  13.721 -0.0046 -0.0612  0.1458
 9328TIP3    H149475   1.730   5.623  13.792  1.6274  1.2729  1.7202
 9328TIP3    H249476   1.827   5.534  13.717 -0.6887 -0.3400  0.5099
 9329TIP3   OH249477   0.750   4.845   5.131  0.4739  0.2285 -0.7546
 9329TIP3    H149478   0.787   4.884   5.211  0.1332  0.7602 -0.8499
 9329TIP3    H249479   0.753   4.751   5.147 -0.4158  0.3468  0.2580
 9330TIP3   OH249480   6.221   2.386  11.490  0.2524  0.1288 -0.3563
 9330TIP3    H149481   6.280   2.311  11.481  0.3009  0.2236 -0.8453
 9330TIP3    H249482   6.207   2.417  11.400 -1.1163 -0.3384 -0.3269
 9331TIP3   OH249483   1.868   6.006  11.603  0.7145 -0.4881 -0.0760
 9331TIP3    H149484   1.925   6.023  11.528  1.4306 -1.1713  0.3059
 9331TIP3    H249485   1.912   5.937  11.652  1.8419  2.0132  2.6758
 9332TIP3   OH249486   2.959   3.448  16.429  0.3628 -0.4959  0.1644
 9332TIP3    H149487   2.941   3.521  16.488 -1.1771 -0.9008  0.2342
 9332TIP3    H249488   3.022   3.393  16.477  2.4258  1.2906 -0.3380
 9333TIP3   OH249489   3.462   1.472   2.336  0.2322 -0.5790 -0.1755
 9333TIP3    H149490   3.433   1.382   2.353  0.2647 -0.1568  2.6127
 9333TIP3    H249491   3.387   1.513   2.292  0.1076 -1.8390 -1.2323
 9334TIP3   OH249492   2.018   5.457  16.136 -0.3460  0.2903 -0.1133
 9334TIP3    H149493   2.107   5.459  16.170 -0.4212 -2.4108  0.4719
 9334TIP3    H249494   2.029   5.466  16.041  0.4744  0.7650  0.0181
 9335TIP3   OH249495   2.108   6.056   1.734 -0.5109 -0.4027 -0.0594
 9335TIP3    H149496   2.146   6.024   1.653  1.1071  0.1823  0.4350
 9335TIP3    H249497   2.118   5.984   1.796  0.2264 -0.1015  0.1863
 9336TIP3   OH249498   6.503   5.425  17.562 -0.1529 -0.1541  0.5457
 9336TIP3    H149499   6.491   5.438  17.468  2.0927  2.3058  0.4927
 9336TIP3    H249500   6.441   5.355  17.585  0.4247 -2.0567 -3.0367
 9337TIP3   OH249501   3.679   3.425   1.249  0.3316 -0.3310 -0.3572
 9337TIP3    H149502   3.734   3.467   1.315  2.3517  1.8228 -3.1323
 9337TIP3    H249503   3.590   3.437   1.281  1.2082  0.2344  2.1183
 9338TIP3   OH249504   6.564   3.381  15.954 -0.4732  0.4069 -0.2071
 9338TIP3    H149505   6.569   3.453  16.017  3.0929 -0.4967  0.8003
 9338TIP3    H249506   6.611   3.412  15.877  2.2414 -1.0317  0.6976
 9339TIP3   OH249507   0.399   3.769  12.063  1.0681  0.0140  0.0729
 9339TIP3    H149508   0.426   3.810  11.981  0.4601 -1.1601 -0.7501
 9339TIP3    H249509   0.463   3.699  12.078  0.9277 -0.0548  0.3626
 9340TIP3   OH249510   6.515   2.234   2.211  0.4012 -0.0714  0.1288
 9340TIP3    H149511   6.598   2.196   2.183  0.2903  0.3634 -0.8538
 9340TIP3    H249512   6.454   2.160   2.217  0.7202 -0.3176  0.3281
 9341TIP3   OH249513   2.892   0.840  14.419  0.2607 -0.4715 -0.8984
 9341TIP3    H149514   2.855   0.852  14.506  0.5002 -0.3605 -0.8084
 9341TIP3    H249515   2.932   0.925  14.399 -0.6636 -0.1748 -1.5376
 9342TIP3   OH249516   0.836   0.898  14.640 -0.4634  0.4044  0.0534
 9342TIP3    H149517   0.743   0.898  14.662 -0.0459  0.7847  2.0978
 9342TIP3    H249518   0.867   0.984  14.668  1.1546 -0.9527  2.9500
 9343TIP3   OH249519   1.220   0.113  17.196  0.2652  0.1536 -0.7688
 9343TIP3    H149520   1.288   0.172  17.229  0.7643 -1.4188  1.2140
 9343TIP3    H249521   1.150   0.171  17.166  1.6464  1.7683 -1.0128
 9344TIP3   OH249522   2.434   0.195   4.055  0.3050  0.4038 -0.4939
 9344TIP3    H149523   2.474   0.151   4.129 -3.3802 -1.7421  0.4652
 9344TIP3    H249524   2.455   0.140   3.979 -0.4696 -0.4899 -0.0717
 9345TIP3   OH249525   5.692   3.704  14.610 -0.2301  0.0360  0.3039
 9345TIP3    H149526   5.618   3.730  14.556 -0.7107 -0.0108  0.9273
 9345TIP3    H249527   5.679   3.751  14.692 -0.0497 -0.6579  0.7362
 9346TIP3   OH249528   4.445   5.068  15.757  0.9362  0.4407  0.6535
 9346TIP3    H149529   4.420   5.002  15.692  0.0210  2.2327 -0.9233
 9346TIP3    H249530   4.397   5.146  15.731  1.1064  1.4595  3.1113
 9347TIP3   OH249531   3.921   6.643  17.615  0.1511 -0.1660 -0.4258
 9347TIP3    H149532   3.889   6.693  17.540 -1.1069  0.4306  0.4691
 9347TIP3    H249533   3.862   6.667  17.687  2.0543  0.2361  1.0868
 9348TIP3   OH249534   1.749   4.072  11.635  0.0977  0.0580 -0.2658
 9348TIP3    H149535   1.822   4.021  11.670 -0.4513 -1.4417 -1.2146
 9348TIP3    H249536   1.678   4.008  11.625 -0.1029  0.6285 -3.0582
 9349TIP3   OH249537   3.265   5.110   4.829  0.0310 -0.0846  0.0629
 9349TIP3    H149538   3.179   5.136   4.862 -1.2800  0.1674 -3.1986
 9349TIP3    H249539   3.327   5.141   4.895 -2.3400 -0.2787  2.5161
 9350TIP3   OH249540   0.462   1.929   6.669  0.3179  0.0290  0.1830
 9350TIP3    H149541   0.473   2.024   6.660  2.0896 -0.2828 -1.8721
 9350TIP3    H249542   0.541   1.900   6.715 -0.2583 -0.4669  0.8870
 9351TIP3   OH249543   2.693   5.528   2.467  0.3065  0.1595  0.7415
 9351TIP3    H149544   2.746   5.569   2.535  0.4331  0.0611  0.7030
 9351TIP3    H249545   2.628   5.476   2.515 -0.6784  1.4055  0.8184
 9352TIP3   OH249546   5.473   3.035  15.991  0.2300  0.1698  0.2335
 9352TIP3    H149547   5.386   3.043  15.952 -0.5017 -1.0797  1.5119
 9352TIP3    H249548   5.481   3.113  16.046  0.5351  1.0181 -0.9679
 9353TIP3   OH249549   5.037   5.842  11.714 -0.2322 -0.0360  0.3835
 9353TIP3    H149550   5.113   5.891  11.684 -0.4770  0.5861  0.7537
 9353TIP3    H249551   5.053   5.753  11.685 -0.6892  0.5977 -2.0194
 9354TIP3   OH249552   1.715   0.013   3.395  0.3525 -0.5886 -0.1030
 9354TIP3    H149553   1.787  -0.043   3.424  1.4216  0.5974 -0.3699
 9354TIP3    H249554   1.716   0.007   3.300 -0.0085 -0.6808 -0.1028
 9355TIP3   OH249555   1.898   2.238   1.965  0.1854 -0.4040  0.4760
 9355TIP3    H149556   1.843   2.262   1.890  0.7595 -1.2810 -0.2400
 9355TIP3    H249557   1.984   2.273   1.945  0.0672  0.3845  1.2889
 9356TIP3   OH249558   6.444   3.377  13.261  0.1611 -0.0684  0.1114
 9356TIP3    H149559   6.509   3.444  13.283 -0.1589  0.3818 -0.3125
 9356TIP3    H249560   6.478   3.337  13.180 -0.2041  0.3218 -0.2365
 9357TIP3   OH249561   3.399   0.288   5.872 -0.0416 -0.3603  0.1620
 9357TIP3    H149562   3.471   0.322   5.925 -0.2430  0.3237  0.0165
 9357TIP3    H249563   3.379   0.359   5.810 -0.8688 -0.5117  0.2344
 9358TIP3   OH249564   2.772   0.385  12.074 -0.3349  0.0808  0.4873
 9358TIP3    H149565   2.774   0.413  12.166 -1.3239  0.4501  0.4079
 9358TIP3    H249566   2.857   0.411  12.039  0.4266 -0.8982  1.5265
 9359TIP3   OH249567   0.844   3.727  11.718 -0.2481  0.1045  0.0411
 9359TIP3    H149568   0.783   3.764  11.782  0.7076  0.5758  0.7033
 9359TIP3    H249569   0.793   3.723  11.637 -1.3359 -0.0709  0.7129
 9360TIP3   OH249570   1.345   1.798  12.913 -0.0388  0.1815  0.3957
 9360TIP3    H149571   1.259   1.777  12.948  0.4798 -1.7997  0.6317
 9360TIP3    H249572   1.328   1.853  12.837 -1.9986 -4.1328 -2.7194
 9361TIP3   OH249573   5.534   0.066   3.651  0.2076 -0.6724  0.1582
 9361TIP3    H149574   5.450   0.026   3.673  0.4014 -2.2700 -1.7735
 9361TIP3    H249575   5.511   0.147   3.605 -0.3241 -1.3722 -0.8449
 9362TIP3   OH249576   0.666   2.001   0.175 -0.6666 -0.4102 -0.4084
 9362TIP3    H149577   0.703   1.920   0.210 -0.4225 -0.6154 -1.1266
 9362TIP3    H249578   0.630   2.046   0.252  0.9803 -0.2411  0.3067
 9363TIP3   OH249579   4.496   0.898  11.803 -0.6372  0.1345 -0.3114
 9363TIP3    H149580   4.453   0.974  11.844  0.8953 -1.1836  4.4400
 9363TIP3    H249581   4.435   0.826  11.817 -1.0767 -0.0355 -2.7114
 9364TIP3   OH249582   1.471   4.134  15.645 -0.0039 -0.4897  0.2749
 9364TIP3    H149583   1.430   4.136  15.732 -2.5335  0.7197 -0.8226
 9364TIP3    H249584   1.427   4.205  15.597  2.1777 -0.3388 -1.6442
 9365TIP3   OH249585   0.489   0.106   0.007 -0.3370 -0.7619  0.0269
 9365TIP3    H149586   0.512   0.130   0.096  0.2832  1.0867 -0.5897
 9365TIP3    H249587   0.491   0.010   0.006  0.6208 -0.7855  1.7241
 9366TIP3   OH249588   3.812   5.254  12.625  0.0198  0.5783  0.1971
 9366TIP3    H149589   3.896   5.297  12.611  0.7814 -1.5035 -2.5608
 9366TIP3    H249590   3.826   5.194  12.698  0.5295  1.1723  0.5873
 9367TIP3   OH249591   6.562   4.045  17.685  1.0971 -0.5288 -0.5638
 9367TIP3    H149592   6.513   3.969  17.653  1.1453 -0.1497 -1.5629
 9367TIP3    H249593   6.505   4.083  17.752 -0.2176  0.1530 -1.9875
 9368TIP3   OH249594   3.877   6.197  13.391  0.0275  0.0691 -0.0969
 9368TIP3    H149595   3.894   6.291  13.398 -1.0453  0.3356 -0.7092
 9368TIP3    H249596   3.949   6.163  13.339 -0.3293  0.8340 -1.1328
 9369TIP3   OH249597   5.595   3.187  17.685 -0.4892  0.0413 -0.3139
 9369TIP3    H149598   5.513   3.142  17.667  1.1856 -2.7573 -1.5347
 9369TIP3    H249599   5.620   3.226  17.602  0.3798 -0.8638 -0.4900
 9370TIP3   OH249600   0.961   5.617   2.972 -1.0011  0.1862  0.5301
 9370TIP3    H149601   0.940   5.678   3.043 -0.8327  1.2819 -0.3323
 9370TIP3    H249602   0.931   5.661   2.893  3.1237  1.3036 -0.6715
 9371TIP3   OH249603   3.949   6.109  12.306  0.1198  0.0212 -0.0616
 9371TIP3    H149604   4.020   6.174  12.305  0.9562 -0.8541 -0.0423
 9371TIP3    H249605   3.952   6.072  12.394 -1.7230  1.3680  0.6222
 9372TIP3   OH249606   1.735   1.816   4.432 -0.0035 -0.2671 -0.2429
 9372TIP3    H149607   1.682   1.814   4.352 -0.5471  0.6065  0.0830
 9372TIP3    H249608   1.752   1.724   4.452 -0.8216 -0.5338 -0.7291
 9373TIP3   OH249609   2.335   0.662   4.622  0.2567 -0.2463  0.0002
 9373TIP3    H149610   2.305   0.708   4.544 -1.6858 -0.9442  0.2830
 9373TIP3    H249611   2.338   0.570   4.596  0.6987 -0.3566  0.4305
 9374TIP3   OH249612   1.008   4.712   0.162 -0.4698  0.0681 -0.1591
 9374TIP3    H149613   1.017   4.756   0.246  0.5939  1.0799 -0.7806
 9374TIP3    H249614   0.943   4.643   0.178 -0.8109  0.6951  1.2937
 9375TIP3   OH249615   1.245   3.271   0.760  0.2477 -0.3818  0.3880
 9375TIP3    H149616   1.289   3.195   0.722 -1.4795 -1.5987  0.7077
 9375TIP3    H249617   1.203   3.238   0.839 -0.6610  0.8591  0.4538
 9376TIP3   OH249618   1.858   3.840   4.438 -0.4392 -0.4191  0.7140
 9376TIP3    H149619   1.911   3.788   4.499 -0.0240  1.4625  2.0456
 9376TIP3    H249620   1.771   3.841   4.477 -0.5646 -0.4832  0.4379
 9377TIP3   OH249621   0.816   0.046  17.594 -0.1846 -0.2555  0.0763
 9377TIP3    H149622   0.803  -0.049  17.602  0.9624 -0.4571 -0.2978
 9377TIP3    H249623   0.853   0.073  17.677  0.1697 -0.2638 -0.0770
 9378TIP3   OH249624   0.395   2.418   3.627 -0.1071  0.0637 -0.3294
 9378TIP3    H149625   0.399   2.406   3.722  1.7983 -0.7196 -0.4727
 9378TIP3    H249626   0.306   2.393   3.603 -0.5572  0.1108  1.2276
 9379TIP3   OH249627   2.320   4.390   4.837  0.0914 -0.4849  0.1205
 9379TIP3    H149628   2.287   4.325   4.774  2.6484 -1.4011 -0.4060
 9379TIP3    H249629   2.281   4.473   4.808  0.4087 -1.0375 -2.1225
 9380TIP3   OH249630   1.709   6.324  13.361 -0.1061 -0.0787  0.0784
 9380TIP3    H149631   1.673   6.406  13.327 -0.5697 -0.6304 -0.7948
 9380TIP3    H249632   1.804   6.337  13.358 -0.1824  0.5776  0.3403
 9381TIP3   OH249633   3.577   5.036  14.823 -0.3248 -0.1386 -0.0925
 9381TIP3    H149634   3.567   4.970  14.755 -0.1830  0.7888 -1.0380
 9381TIP3    H249635   3.550   4.992  14.904 -2.9656 -0.5358 -1.0936
 9382TIP3   OH249636   4.185   0.510   5.150  0.7160  0.5682 -0.5676
 9382TIP3    H149637   4.211   0.538   5.238 -0.4861  2.5770 -0.7983
 9382TIP3    H249638   4.264   0.523   5.097  1.1029  0.4661 -0.0247
 9383TIP3   OH249639   3.575   2.760   5.699  0.0432 -0.0326  0.2301
 9383TIP3    H149640   3.604   2.719   5.618 -0.4096 -1.4886  0.7697
 9383TIP3    H249641   3.643   2.824   5.719  0.2665  0.2076 -1.1783
 9384TIP3   OH249642   4.967   2.623  16.896 -0.4793 -0.3230 -0.0422
 9384TIP3    H149643   4.884   2.599  16.855 -1.1246  1.0281  0.3798
 9384TIP3    H249644   4.961   2.718  16.907  1.5804 -0.0383 -0.9705
 9385TIP3   OH249645   3.483   0.378  12.579 -0.2503 -0.3658 -0.6035
 9385TIP3    H149646   3.570   0.408  12.607 -0.7102  0.4280  0.0206
 9385TIP3    H249647   3.424   0.446  12.609 -1.1863 -1.2785 -0.3403
 9386TIP3   OH249648   0.365   1.924  14.776  0.9253 -0.3316 -0.1880
 9386TIP3    H149649   0.374   1.835  14.810 -0.2260 -0.7433 -0.8948
 9386TIP3    H249650   0.412   1.979  14.839  0.1883 -1.2451  1.2065
 9387TIP3   OH249651   3.209   1.979   1.160  0.1949 -0.3254  0.2805
 9387TIP3    H149652   3.303   1.967   1.143  0.2036 -0.7304  0.5977
 9387TIP3    H249653   3.170   1.991   1.074  0.7009  1.0638  0.2223
 9388TIP3   OH249654   0.781   2.527  17.597  0.1109 -0.2754  0.0951
 9388TIP3    H149655   0.717   2.485  17.655 -1.2524  0.7786 -0.5918
 9388TIP3    H249656   0.866   2.493  17.626 -0.7889 -2.1528  0.6717
 9389TIP3   OH249657   1.705   2.422  14.730  0.1792 -0.5762  0.0821
 9389TIP3    H149658   1.612   2.433  14.709  0.5072  1.2112 -0.6290
 9389TIP3    H249659   1.747   2.412  14.645  1.0091  2.2968  0.0397
 9390TIP3   OH249660   6.091   0.396  16.139  0.0276  0.1315  0.1304
 9390TIP3    H149661   6.018   0.433  16.188 -0.6076  0.0170 -0.6994
 9390TIP3    H249662   6.145   0.471  16.115  0.2090  0.2119  0.7840
 9391TIP3   OH249663   3.870   1.706  12.759 -0.4481 -0.3802  0.1409
 9391TIP3    H149664   3.818   1.635  12.719 -1.4805 -0.3213  1.3238
 9391TIP3    H249665   3.863   1.778  12.697 -2.5547 -0.0807  0.6464
 9392TIP3   OH249666   2.042   6.032  15.490  0.1206 -0.0138  0.0230
 9392TIP3    H149667   2.007   6.051  15.577  0.8239  0.4506  0.2135
 9392TIP3    H249668   1.979   5.972  15.451 -0.1244 -0.3454  0.9123
 9393TIP3   OH249669   4.557   4.133  17.642 -0.0089 -0.1324 -0.1675
 9393TIP3    H149670   4.545   4.089  17.557  0.2947 -0.5639  0.0135
 9393TIP3    H249671   4.652   4.142  17.651 -0.0718  0.8910 -0.3678
 9394TIP3   OH249672   3.436   5.731  15.994 -0.2947 -0.4111 -0.4141
 9394TIP3    H149673   3.442   5.683  15.912 -0.4737 -0.1855 -0.5571
 9394TIP3    H249674   3.427   5.823  15.969  1.0463 -0.1764 -0.1398
 9395TIP3   OH249675   0.359   1.763  11.720 -0.1861 -0.1391  0.4543
 9395TIP3    H149676   0.370   1.774  11.625  0.5294  0.8440  0.6385
 9395TIP3    H249677   0.433   1.810  11.759 -1.0777  0.4093  1.5359
 9396TIP3   OH249678   0.722   0.296  11.461 -0.1265 -0.8928 -0.3390
 9396TIP3    H149679   0.654   0.356  11.432 -1.1948 -2.6071 -1.5533
 9396TIP3    H249680   0.778   0.284  11.384  1.1556 -0.0824  0.4286
 9397TIP3   OH249681   5.348   1.649  14.704  0.5646  0.2140  0.1302
 9397TIP3    H149682   5.412   1.716  14.683  0.3249  0.6237  0.6669
 9397TIP3    H249683   5.399   1.577  14.741  0.7224  0.4948  0.4585
 9398TIP3   OH249684   3.093   3.679  16.190  0.1034 -0.0008 -0.3111
 9398TIP3    H149685   3.024   3.744  16.205  0.0199  0.7211 -3.2662
 9398TIP3    H249686   3.047   3.596  16.182 -0.0537 -0.0413  0.7846
 9399TIP3   OH249687   2.282   4.480  16.412  0.6061 -0.0710  0.1253
 9399TIP3    H149688   2.329   4.481  16.495 -0.6699 -0.2325  0.8760
 9399TIP3    H249689   2.251   4.389  16.403 -1.1864  0.4491  0.6262
 9400TIP3   OH249690   3.966   2.904  14.250  0.3650 -0.0197  0.0132
 9400TIP3    H149691   3.872   2.906  14.265  0.1786 -2.4606 -0.4274
 9400TIP3    H249692   3.978   2.950  14.166 -0.3740  0.4688  0.1663
 9401TIP3   OH249693   0.610   2.166  14.153  0.1811 -0.3833 -0.0046
 9401TIP3    H149694   0.661   2.176  14.234 -0.4050 -1.1497  0.4650
 9401TIP3    H249695   0.578   2.255  14.134  0.0662 -0.2578  0.7689
 9402TIP3   OH249696   1.711   1.667  17.422  0.1636  0.1585 -0.0370
 9402TIP3    H149697   1.632   1.655  17.369 -0.2009 -1.5973  0.8218
 9402TIP3    H249698   1.756   1.741  17.382  0.0866 -1.2656 -3.0423
 9403TIP3   OH249699   2.905   3.217   1.109  1.2707  0.3991 -0.0379
 9403TIP3    H149700   2.974   3.191   1.048  1.1820  2.4480 -1.1036
 9403TIP3    H249701   2.904   3.148   1.176  1.7630 -1.6092 -2.0072
 9404TIP3   OH249702   0.669   6.709   2.766 -0.0409 -0.3720 -0.7785
 9404TIP3    H149703   0.727   6.782   2.746  0.0210 -0.7703 -2.1035
 9404TIP3    H249704   0.727   6.634   2.776 -0.2329 -0.5336 -0.8833
 9405TIP3   OH249705   6.035   3.537   4.779  0.4157  0.0037  0.0669
 9405TIP3    H149706   6.123   3.575   4.780  0.8205 -0.8896  1.8165
 9405TIP3    H249707   5.997   3.567   4.696  2.8825 -0.8116 -1.4410
 9406TIP3   OH249708   5.826   3.073   5.298  0.5749  0.3443 -0.0422
 9406TIP3    H149709   5.804   3.153   5.250  2.5566  1.2945  0.5247
 9406TIP3    H249710   5.891   3.030   5.243 -0.6408 -1.0337 -0.4498
 9407TIP3   OH249711   3.453   5.455  11.747 -0.3596  0.3238 -0.3808
 9407TIP3    H149712   3.432   5.377  11.695  0.7639 -2.0357  2.4378
 9407TIP3    H249713   3.374   5.509  11.742 -0.5807 -0.0872 -3.7735
 9408TIP3   OH249714   5.563   3.337  16.857 -0.2981  0.1386  0.0044
 9408TIP3    H149715   5.632   3.330  16.923 -0.7314  0.0278  0.4520
 9408TIP3    H249716   5.488   3.372  16.905 -0.4556  0.5651 -0.5497
 9409TIP3   OH249717   5.872   5.413  16.137  0.2038 -0.0761  0.4295
 9409TIP3    H149718   5.887   5.369  16.220  1.0154 -1.6439 -0.4898
 9409TIP3    H249719   5.920   5.496  16.145 -0.9940  0.5090  2.0410
 9410TIP3   OH249720   5.694   5.121   4.368 -0.3757  0.3229  0.0312
 9410TIP3    H149721   5.722   5.200   4.413  1.5859  0.3453 -1.1500
 9410TIP3    H249722   5.673   5.150   4.279  2.7721 -0.7602 -1.1909
 9411TIP3   OH249723   4.724   1.661   4.899 -0.1059 -0.4755 -0.2350
 9411TIP3    H149724   4.816   1.647   4.923  0.2671  0.6682 -0.9066
 9411TIP3    H249725   4.692   1.722   4.966  0.1391  0.5051 -0.9909
 9412TIP3   OH249726   3.880   1.585  13.021 -0.2434  0.0350  0.7193
 9412TIP3    H149727   3.859   1.639  12.945  0.1185 -0.3089  0.3739
 9412TIP3    H249728   3.975   1.585  13.026 -0.1683 -1.4424  0.0614
 9413TIP3   OH249729   5.813   2.393  11.491 -0.3377 -0.8094  0.0458
 9413TIP3    H149730   5.854   2.413  11.406 -0.2694 -0.6388  0.1177
 9413TIP3    H249731   5.803   2.478  11.533 -0.5857 -0.8710  0.1131
 9414TIP3   OH249732   0.931   2.133  16.903  0.4844  0.2128  0.7567
 9414TIP3    H149733   0.981   2.063  16.945 -0.4066 -0.5141  0.6511
 9414TIP3    H249734   0.863   2.155  16.966  1.8401  2.3093  1.5703
 9415TIP3   OH249735   6.027   1.766  17.278 -0.1519  0.2110 -0.8446
 9415TIP3    H149736   6.002   1.681  17.242 -0.2994  0.1082 -0.4961
 9415TIP3    H249737   6.101   1.747  17.336 -0.6965  0.2030 -0.1411
 9416TIP3   OH249738   6.587   4.461   1.115 -0.2654  0.4078 -0.0510
 9416TIP3    H149739   6.656   4.485   1.052 -1.8682  1.3215 -1.5361
 9416TIP3    H249740   6.548   4.382   1.079  0.3369 -0.4339  1.0871
 9417TIP3   OH249741   5.756   5.551   1.292 -0.0205 -0.4889  0.0655
 9417TIP3    H149742   5.773   5.570   1.200 -1.2481  0.5284  0.0182
 9417TIP3    H249743   5.704   5.626   1.323  2.4110  0.4583  2.2475
 9418TIP3   OH249744   3.635   4.919   2.012  0.3757 -0.5252  0.4910
 9418TIP3    H149745   3.679   4.915   1.927 -1.5083 -1.0195 -0.5174
 9418TIP3    H249746   3.652   4.833   2.051  4.0538  0.7852  2.2077
 9419TIP3   OH249747   1.837   6.437  14.672 -0.0945 -0.2119  0.1211
 9419TIP3    H149748   1.856   6.477  14.586  0.9450 -0.5128  0.1961
 9419TIP3    H249749   1.742   6.423  14.671  0.0975 -1.8988 -1.7263
 9420TIP3   OH249750   6.719   5.326   5.063 -0.0047  0.1345 -0.4005
 9420TIP3    H149751   6.810   5.304   5.082  0.2564  1.0697 -0.5228
 9420TIP3    H249752   6.679   5.243   5.038  0.9803 -0.1798 -1.0001
 9421TIP3   OH249753   4.611   6.250   2.159  0.5010 -0.4622  0.1904
 9421TIP3    H149754   4.660   6.217   2.084 -0.8835  0.9161 -1.3983
 9421TIP3    H249755   4.522   6.260   2.127  0.0855  1.1856  1.7127
 9422TIP3   OH249756   0.459   0.780   0.152 -0.2882 -0.0114  0.2796
 9422TIP3    H149757   0.555   0.771   0.149 -0.2742 -0.3339  1.4535
 9422TIP3    H249758   0.427   0.690   0.147 -0.4965  0.0296  0.8407
 9423TIP3   OH249759   0.045   5.067   4.702 -0.0328 -1.1270 -0.3027
 9423TIP3    H149760   0.009   4.990   4.658 -0.6142 -0.6304 -0.7209
 9423TIP3    H249761   0.024   5.055   4.794 -0.0522 -1.5013 -0.3555
 9424TIP3   OH249762   2.913   6.652  15.966 -0.3580 -0.1289 -0.1045
 9424TIP3    H149763   2.908   6.737  16.010  0.6429  1.3224 -2.5713
 9424TIP3    H249764   2.882   6.589  16.031 -0.6770  2.0492  1.9844
 9425TIP3   OH249765   5.566   6.207   0.670  0.5050  0.7046  0.1798
 9425TIP3    H149766   5.617   6.288   0.666 -0.4307  1.4221  1.7241
 9425TIP3    H249767   5.575   6.177   0.760  0.2201 -0.5256 -0.1790
 9426TIP3   OH249768   0.013   2.799  15.128  0.1176  0.5419 -0.3743
 9426TIP3    H149769  -0.038   2.721  15.106  0.0501  0.9579 -1.7733
 9426TIP3    H249770   0.034   2.839  15.044  1.2605  1.3398  0.2579
 9427TIP3   OH249771   6.276   2.144   5.849  0.2466 -1.1452  0.3068
 9427TIP3    H149772   6.229   2.072   5.890 -0.8856 -0.4824  0.1902
 9427TIP3    H249773   6.367   2.133   5.879 -0.1238 -1.9602  1.1801
 9428TIP3   OH249774   0.741   4.463  14.539 -0.1480 -0.1742  0.0733
 9428TIP3    H149775   0.723   4.508  14.622 -0.0150 -0.6653  0.3782
 9428TIP3    H249776   0.703   4.519  14.472  0.3152  0.5569  0.4144
 9429TIP3   OH249777   1.432   2.853  15.472  0.5727 -0.1451 -0.0205
 9429TIP3    H149778   1.344   2.817  15.472  0.7901 -0.7172  1.0734
 9429TIP3    H249779   1.449   2.877  15.380 -0.9987  0.7055 -0.1162
 9430TIP3   OH249780   3.432   5.243  16.894 -0.8899  0.4456  0.1713
 9430TIP3    H149781   3.391   5.201  16.969 -1.4644  2.1175  0.8485
 9430TIP3    H249782   3.473   5.322  16.931 -1.4559  1.4638 -1.2970
 9431TIP3   OH249783   4.978   6.144  11.668 -0.1733 -0.9029 -0.1447
 9431TIP3    H149784   4.996   6.089  11.592 -1.8747  0.4450 -1.6023
 9431TIP3    H249785   4.884   6.132  11.684  0.0258 -0.6693  1.3769
 9432TIP3   OH249786   5.998   5.636   6.450 -0.3315  0.2176 -0.5364
 9432TIP3    H149787   5.936   5.657   6.520  0.4471  0.4302  0.1011
 9432TIP3    H249788   6.019   5.720   6.410  1.8582  0.6154  1.2350
 9433TIP3   OH249789   5.831   2.188   6.428  0.4802  0.5896 -0.0346
 9433TIP3    H149790   5.759   2.152   6.479  0.0707  1.1318 -0.2169
 9433TIP3    H249791   5.836   2.280   6.455  0.1093  0.9461 -1.1013
 9434TIP3   OH249792   2.626   1.730   3.184  0.4680  0.2612  0.7573
 9434TIP3    H149793   2.663   1.814   3.212  3.1178 -0.9109  1.0054
 9434TIP3    H249794   2.661   1.716   3.096 -1.0578 -0.0200  0.1495
 9435TIP3   OH249795   5.808   0.333   5.391 -0.4106 -0.0829  0.2996
 9435TIP3    H149796   5.750   0.260   5.412 -1.8147  0.5878 -1.0471
 9435TIP3    H249797   5.754   0.411   5.404  0.4637  0.6133 -0.1233
 9436TIP3   OH249798   5.613   0.952  17.663 -0.5441  0.4773  0.0434
 9436TIP3    H149799   5.560   1.029  17.642 -0.7799  0.2589 -0.1584
 9436TIP3    H249800   5.696   0.967  17.617 -1.0339  0.0305 -1.0048
 9437TIP3   OH249801   0.953   0.554  11.203  0.5529  0.0144  0.1164
 9437TIP3    H149802   0.895   0.498  11.150  0.9277  0.8331 -1.1876
 9437TIP3    H249803   1.024   0.496  11.228 -0.1114 -0.6368  0.5517
 9438TIP3   OH249804   1.048   4.875   3.777 -0.1888  0.1514  0.0731
 9438TIP3    H149805   1.077   4.834   3.859  1.5428 -0.9917 -1.0222
 9438TIP3    H249806   1.052   4.804   3.712 -0.7718  1.1930 -1.1520
 9439TIP3   OH249807   5.463   1.452  11.870 -0.0959 -0.0704 -0.5393
 9439TIP3    H149808   5.380   1.417  11.903  0.6290 -0.2055  1.3060
 9439TIP3    H249809   5.505   1.378  11.828 -0.0151 -0.5876  0.4076
 9440TIP3   OH249810   0.092   2.054  13.109  0.2798  0.0665 -0.2137
 9440TIP3    H149811   0.155   2.088  13.045  1.7466 -0.7132  0.7437
 9440TIP3    H249812   0.080   2.127  13.171  0.8809 -0.0446  0.0414
 9441TIP3   OH249813   5.330   2.542   5.583  0.2372 -0.0957  0.6403
 9441TIP3    H149814   5.366   2.552   5.671 -0.8183  1.7477  0.9180
 9441TIP3    H249815   5.242   2.506   5.596 -0.4868  1.5049  0.5163
 9442TIP3   OH249816   2.385   2.624   5.326  0.1622 -0.0209  0.4222
 9442TIP3    H149817   2.387   2.612   5.231 -1.1349  1.6151  0.1372
 9442TIP3    H249818   2.434   2.704   5.342 -1.6441  1.0836  0.8043
 9443TIP3   OH249819   5.808   3.107  11.474  0.0262  0.2748  0.0902
 9443TIP3    H149820   5.897   3.122  11.442  0.3787 -0.7372  0.5657
 9443TIP3    H249821   5.759   3.082  11.395  0.4360 -0.2916  0.0089
 9444TIP3   OH249822   2.232   4.982   2.201 -0.6362 -0.0729  0.0067
 9444TIP3    H149823   2.271   4.895   2.190  2.0233  0.7821  1.8415
 9444TIP3    H249824   2.191   4.978   2.288 -0.0424  0.6677  0.3246
 9445TIP3   OH249825   4.535   2.458  15.293  0.0087 -0.2050  0.1321
 9445TIP3    H149826   4.543   2.387  15.229 -2.0430  0.2578 -0.7191
 9445TIP3    H249827   4.530   2.537  15.240 -0.4457  0.3099  0.9227
 9446TIP3   OH249828   5.157   5.461  12.190  0.0011 -0.1673  0.2790
 9446TIP3    H149829   5.191   5.400  12.256  0.8086 -0.0078  0.0200
 9446TIP3    H249830   5.176   5.418  12.107  0.1054  0.2052  0.1127
 9447TIP3   OH249831   1.155   2.333   1.930 -0.1424 -0.3047  0.3470
 9447TIP3    H149832   1.222   2.311   1.994  0.3481 -0.6486 -0.2737
 9447TIP3    H249833   1.112   2.411   1.965  1.6513  0.9000 -0.0200
 9448TIP3   OH249834   0.850   0.020  16.262 -0.0459  0.6365 -0.0016
 9448TIP3    H149835   0.924   0.073  16.292 -2.5795  4.0075  1.0428
 9448TIP3    H249836   0.821   0.063  16.181 -0.3183 -1.1822 -0.9071
 9449TIP3   OH249837   2.434   3.226   2.357 -0.0472  1.1276  0.0580
 9449TIP3    H149838   2.343   3.245   2.332  0.1022  1.6759 -0.0618
 9449TIP3    H249839   2.455   3.292   2.423  0.3715  1.1882 -0.1367
 9450TIP3   OH249840   6.113   4.738  15.275  0.4547  0.3999  0.5768
 9450TIP3    H149841   6.128   4.803  15.206 -1.1270  0.1911 -0.0252
 9450TIP3    H249842   6.187   4.747  15.334  1.6604  0.8707 -0.9359
 9451TIP3   OH249843   5.016   2.860   5.401  0.1844  0.0556 -0.2257
 9451TIP3    H149844   4.982   2.949   5.400  0.1180  0.0422  0.3446
 9451TIP3    H249845   5.085   2.861   5.467 -0.0880 -0.4122  0.0689
 9452TIP3   OH249846   5.827   0.037  15.941 -0.7360  0.3874 -0.2855
 9452TIP3    H149847   5.822   0.122  15.984  1.5888  0.3808  0.0868
 9452TIP3    H249848   5.778  -0.022  15.999 -0.7281  1.0855  0.4430
 9453TIP3   OH249849   2.857   6.308  11.471  0.7291  0.0988  0.0154
 9453TIP3    H149850   2.860   6.343  11.381  0.8641  0.1836  0.0527
 9453TIP3    H249851   2.864   6.213  11.460 -2.0080 -0.1443 -0.2517
 9454TIP3   OH249852   1.264   3.351   6.676  0.1446 -0.1538 -0.0669
 9454TIP3    H149853   1.186   3.326   6.725  1.1748 -1.7853  0.8256
 9454TIP3    H249854   1.333   3.294   6.709  1.3517  0.0647 -2.0374
 9455TIP3   OH249855   5.018   1.725  13.989  0.6352  0.5519 -0.3413
 9455TIP3    H149856   5.066   1.761  13.915  0.3169  0.4183 -0.6136
 9455TIP3    H249857   5.072   1.651  14.018  1.6220  1.6258  0.6319
 9456TIP3   OH249858   2.462   3.597  13.036 -0.4160 -0.6317 -0.3237
 9456TIP3    H149859   2.475   3.563  13.125 -1.0797 -1.1045 -0.3991
 9456TIP3    H249860   2.480   3.691  13.043 -0.6090 -0.6390  0.3486
 9457TIP3   OH249861   3.706   3.610  13.524 -0.1025 -0.7351 -0.3606
 9457TIP3    H149862   3.769   3.613  13.452 -0.4515 -0.1390 -0.6470
 9457TIP3    H249863   3.621   3.604  13.482 -0.3302 -0.0939 -0.0162
 9458TIP3   OH249864   6.531   3.361   4.091  0.1004 -0.8811  0.5373
 9458TIP3    H149865   6.547   3.429   4.157 -0.2087  1.1893 -1.4044
 9458TIP3    H249866   6.616   3.345   4.051 -0.0949 -0.4532 -0.0680
 9459TIP3   OH249867   1.791   5.502  14.420  0.2216  0.7351  0.0449
 9459TIP3    H149868   1.827   5.582  14.459  0.6372  0.4836  0.1925
 9459TIP3    H249869   1.728   5.532  14.355  0.3507  1.1811  0.1252
 9460TIP3   OH249870   0.176   5.083  15.580 -0.1982 -0.3024  0.4505
 9460TIP3    H149871   0.235   5.075  15.505  0.0664  2.0343  0.3611
 9460TIP3    H249872   0.208   5.017  15.642 -0.3527 -2.2113 -1.3640
 9461TIP3   OH249873   1.026   0.979   1.390 -0.4559  0.1516 -0.8143
 9461TIP3    H149874   1.004   0.896   1.433  0.5054 -0.0535 -0.6958
 9461TIP3    H249875   0.956   1.039   1.417 -1.0323 -0.5491 -0.7122
 9462TIP3   OH249876   1.615   0.385   4.470 -0.5024  0.6491 -0.6499
 9462TIP3    H149877   1.546   0.370   4.406 -0.7263  0.4830 -0.3715
 9462TIP3    H249878   1.573   0.371   4.555 -0.1304  0.5563 -0.4777
 9463TIP3   OH249879   4.343   3.103   0.390 -0.0674 -0.1523 -0.1913
 9463TIP3    H149880   4.269   3.146   0.433  0.2803  0.1121  0.1488
 9463TIP3    H249881   4.303   3.035   0.336 -0.7879  1.5922 -2.0069
 9464TIP3   OH249882   4.160   3.013   4.701 -0.4073 -0.3597  0.1438
 9464TIP3    H149883   4.115   3.097   4.697 -1.4690 -0.9426 -0.7975
 9464TIP3    H249884   4.099   2.951   4.660  0.9711 -1.3104 -0.5617
 9465TIP3   OH249885   5.713   3.202  15.185 -0.3963  0.5067  0.6193
 9465TIP3    H149886   5.771   3.252  15.126 -0.2191  1.3458  1.4714
 9465TIP3    H249887   5.703   3.259  15.261  1.6876 -1.7058  2.6904
 9466TIP3   OH249888   3.827   1.075  15.536 -0.1353 -0.2420  0.0595
 9466TIP3    H149889   3.834   1.072  15.441 -1.4278  0.7223 -0.0916
 9466TIP3    H249890   3.754   1.016  15.556 -0.9909  0.8641  0.2834
 9467TIP3   OH249891   5.176   4.818   2.553 -0.4219 -0.0648 -0.5178
 9467TIP3    H149892   5.236   4.773   2.612  0.0360  0.5392 -0.5134
 9467TIP3    H249893   5.119   4.869   2.611 -0.1935  0.2595 -0.5743
 9468TIP3   OH249894   3.016   6.203   2.381 -0.1284  0.7856 -0.0140
 9468TIP3    H149895   2.959   6.182   2.454 -1.4302 -1.6341 -1.5861
 9468TIP3    H249896   3.015   6.298   2.375 -2.6267  0.8815  1.0859
 9469TIP3   OH249897   5.131   2.794  15.905 -0.0537  0.0327 -0.7226
 9469TIP3    H149898   5.169   2.838  15.829 -0.4875  2.4666  0.3741
 9469TIP3    H249899   5.137   2.858  15.976 -1.2890 -1.4849  0.8469
 9470TIP3   OH249900   6.009   3.984  11.992  0.1171  0.2855  0.3067
 9470TIP3    H149901   6.004   4.034  12.073 -1.7344  1.2964 -0.3640
 9470TIP3    H249902   5.920   3.950  11.979  0.7661 -1.1732 -0.4969
 9471TIP3   OH249903   1.747   3.647  13.521 -0.2589  0.0822  0.9172
 9471TIP3    H149904   1.654   3.672  13.521 -0.7589 -1.6206 -0.3746
 9471TIP3    H249905   1.754   3.580  13.590 -0.0053  0.1229  0.9318
 9472TIP3   OH249906   2.388   4.764   4.860 -0.1663 -0.1329  0.4003
 9472TIP3    H149907   2.430   4.736   4.778 -1.0661  0.4466 -0.2783
 9472TIP3    H249908   2.449   4.736   4.928  0.1825 -1.4523 -0.4024
 9473TIP3   OH249909   0.450   3.687  13.040 -0.2358 -0.2003 -0.0079
 9473TIP3    H149910   0.429   3.754  13.105 -2.5341 -0.8779  0.0403
 9473TIP3    H249911   0.449   3.734  12.957  1.7986  0.4884  0.3125
 9474TIP3   OH249912   0.390   2.261   0.929  0.0534  0.8074 -0.2777
 9474TIP3    H149913   0.395   2.338   0.986  0.7321  0.6144 -0.0679
 9474TIP3    H249914   0.457   2.202   0.964 -1.3014 -0.4097  0.3676
 9475TIP3   OH249915   1.705   6.616   5.882 -0.1441 -0.4943  0.6035
 9475TIP3    H149916   1.684   6.665   5.961  0.5820  1.6874 -0.4867
 9475TIP3    H249917   1.668   6.668   5.811  0.6091 -1.5708 -0.6271
 9476TIP3   OH249918   4.958   1.893   0.307 -0.4020 -0.4426  0.1455
 9476TIP3    H149919   4.978   1.895   0.400 -0.8080  2.5653  0.2735
 9476TIP3    H249920   4.863   1.907   0.303 -0.1539  1.2500 -0.6871
 9477TIP3   OH249921   4.783   3.965   2.554 -0.6702 -0.3934  0.2907
 9477TIP3    H149922   4.724   4.038   2.574 -0.2254 -0.0192  0.2373
 9477TIP3    H249923   4.725   3.889   2.551 -0.8314 -0.4202  2.6303
 9478TIP3   OH249924   1.138   2.890   2.686  0.1333 -0.0660  0.2811
 9478TIP3    H149925   1.227   2.924   2.674  0.3046 -0.2124  1.0865
 9478TIP3    H249926   1.082   2.955   2.646  0.5312  0.6435  0.8515
 9479TIP3   OH249927   3.488   6.336   5.187  0.1921 -0.0651  0.3494
 9479TIP3    H149928   3.451   6.423   5.170  1.0540  0.1287 -0.6473
 9479TIP3    H249929   3.553   6.350   5.255  0.7078  0.1891 -0.1807
 9480TIP3   OH249930   5.833   2.617   0.280 -0.4797  0.2504  0.3306
 9480TIP3    H149931   5.831   2.538   0.226  0.4844  0.0887  0.5082
 9480TIP3    H249932   5.921   2.617   0.319 -1.7951 -0.8720  3.7140
 9481TIP3   OH249933   5.487   2.966  12.397  0.1141  0.2152 -0.8277
 9481TIP3    H149934   5.527   2.899  12.452  0.2477 -0.7370 -2.0360
 9481TIP3    H249935   5.393   2.952  12.408  0.1346 -0.7031 -1.6517
 9482TIP3   OH249936   0.015   0.618  12.187  0.5175 -0.2265 -0.4181
 9482TIP3    H149937  -0.060   0.571  12.149  0.5524 -0.4879 -0.1654
 9482TIP3    H249938   0.064   0.650  12.111  0.1746 -0.0928 -0.5872
 9483TIP3   OH249939   1.917   3.615  16.068  0.0215 -0.4190 -0.1541
 9483TIP3    H149940   1.845   3.664  16.029  0.0897  0.9505  1.3650
 9483TIP3    H249941   1.892   3.523  16.057 -1.8348  0.0181  0.1078
 9484TIP3   OH249942   4.083   1.610  15.855  0.3054 -0.1625  0.2447
 9484TIP3    H149943   4.016   1.595  15.921 -0.6522 -2.3634 -1.0968
 9484TIP3    H249944   4.166   1.593  15.899 -0.0516  1.3411  1.5921
 9485TIP3   OH249945   0.352   4.786  15.304 -0.6241  0.0197 -0.0291
 9485TIP3    H149946   0.267   4.754  15.333 -1.2203  1.6420  0.1235
 9485TIP3    H249947   0.358   4.761  15.212  0.6916 -3.9711  0.9288
 9486TIP3   OH249948   5.783   3.001   1.876 -0.2344  0.1789  0.8509
 9486TIP3    H149949   5.718   2.986   1.943 -1.7780  1.2303 -0.3453
 9486TIP3    H249950   5.765   3.089   1.843  1.7652  0.5016  0.4283
 9487TIP3   OH249951   3.574   5.001  13.077  0.5116  0.1346 -0.7922
 9487TIP3    H149952   3.557   4.908  13.086  0.9475  0.0406 -0.8976
 9487TIP3    H249953   3.488   5.041  13.064  0.5500 -0.6814 -4.5974
 9488TIP3   OH249954   0.471   3.809  16.143 -0.4913 -0.2005 -1.0134
 9488TIP3    H149955   0.433   3.896  16.157 -0.8866 -0.5358  0.0843
 9488TIP3    H249956   0.401   3.748  16.167  0.6838 -0.8336  1.0446
 9489TIP3   OH249957   6.180   1.968  14.340 -0.0029  0.0111  0.0959
 9489TIP3    H149958   6.181   2.043  14.399 -1.7583 -0.1179  0.3395
 9489TIP3    H249959   6.242   1.906  14.378 -0.3635  0.3397  1.2545
 9490TIP3   OH249960   3.561   5.128  12.563 -0.3305  0.9477 -0.1462
 9490TIP3    H149961   3.629   5.191  12.589 -0.6805  1.0845  0.4555
 9490TIP3    H249962   3.504   5.121  12.640 -0.0974 -0.3886 -0.0759
 9491TIP3   OH249963   2.473   2.442  15.460 -0.2477  0.0678 -0.5766
 9491TIP3    H149964   2.391   2.472  15.421 -0.4850  1.5586  0.9350
 9491TIP3    H249965   2.493   2.507  15.527  2.1045 -0.3482 -0.7790
 9492TIP3   OH249966   2.329   0.241  11.705 -0.4523  0.3281 -0.7289
 9492TIP3    H149967   2.386   0.279  11.772 -0.8226  0.4962 -0.5057
 9492TIP3    H249968   2.241   0.267  11.731 -0.8242 -1.4782 -0.0388
 9493TIP3   OH249969   4.042   1.437   3.378  0.6195 -0.0228  0.6889
 9493TIP3    H149970   4.037   1.526   3.412  1.0824  0.4972 -0.5301
 9493TIP3    H249971   4.036   1.381   3.455 -1.2216  1.0042  1.3555
 9494TIP3   OH249972   5.064   2.813  15.058  0.0058 -0.3838  0.0645
 9494TIP3    H149973   5.128   2.743  15.066 -0.3959 -0.6269  1.6524
 9494TIP3    H249974   5.108   2.881  15.008  0.2300 -1.9321 -1.9851
 9495TIP3   OH249975   3.757   2.203  11.543  0.3873  0.4350 -0.1351
 9495TIP3    H149976   3.718   2.118  11.556  1.1229  0.0608 -0.2942
 9495TIP3    H249977   3.775   2.207  11.449 -0.4945  1.1525 -0.2913
 9496TIP3   OH249978   6.015   2.280   1.238  0.1996 -0.1654  0.5773
 9496TIP3    H149979   6.052   2.365   1.214 -0.4949 -0.1644 -0.5572
 9496TIP3    H249980   5.953   2.301   1.309 -0.8343  0.4788 -0.4709
 9497TIP3   OH249981   4.583   4.822   3.890  0.7324  0.2152  0.5508
 9497TIP3    H149982   4.641   4.761   3.844  2.2920  1.6862  0.4271
 9497TIP3    H249983   4.573   4.784   3.977  1.4087 -0.3948  0.3788
 9498TIP3   OH249984   5.839   6.189  16.113  0.3066 -0.0076  0.3991
 9498TIP3    H149985   5.833   6.282  16.136  1.3609 -0.4023  2.4306
 9498TIP3    H249986   5.752   6.167  16.080 -0.7083  1.1280  2.1969
 9499TIP3   OH249987   0.414   0.981  15.118 -0.0052 -0.2624 -0.8082
 9499TIP3    H149988   0.322   0.959  15.101 -0.1820  0.8474 -1.3909
 9499TIP3    H249989   0.419   1.075  15.100  0.7088  0.1900  1.5140
 9500TIP3   OH249990   5.571   4.203  14.442 -0.0833  0.6103  0.2761
 9500TIP3    H149991   5.609   4.119  14.470  0.8841  1.1692  0.6877
 9500TIP3    H249992   5.643   4.246  14.394 -0.7525  0.9678 -0.4290
 9501TIP3   OH249993   0.731   5.970  16.283  0.3611  0.8218 -0.4849
 9501TIP3    H149994   0.812   5.979  16.334  0.3645  2.3587 -0.7218
 9501TIP3    H249995   0.663   6.003  16.342  0.0449  0.4590 -0.6476
 9502TIP3   OH249996   0.784   5.195  13.905 -0.1249 -0.1576  0.6649
 9502TIP3    H149997   0.797   5.286  13.880  0.5741 -0.8285 -1.6895
 9502TIP3    H249998   0.763   5.198  13.998  0.3705  2.3512  0.7583
 9503TIP3   OH249999   6.128   5.204   5.309 -0.2500  0.3758 -0.6430
 9503TIP3    H150000   6.094   5.194   5.398 -1.0555  0.6183 -0.9090
 9503TIP3    H250001   6.219   5.177   5.314  0.1226  1.7543  0.5563
 9504TIP3   OH250002   1.456   2.056   2.909  0.2899 -0.0678  0.4241
 9504TIP3    H150003   1.446   2.019   2.997  0.4114 -2.7739 -0.5753
 9504TIP3    H250004   1.368   2.053   2.872  0.7879 -2.7844 -0.8124
 9505TIP3   OH250005   3.799   4.261   0.035  0.5673  0.6580  0.6035
 9505TIP3    H150006   3.708   4.239   0.053  0.4366  0.0859 -0.6202
 9505TIP3    H250007   3.794   4.340  -0.019  0.6333 -0.6634 -1.4504
 9506TIP3   OH250008   6.657   5.400  10.755  0.3048  0.1438  0.2282
 9506TIP3    H150009   6.671   5.355  10.671  0.4490 -0.7886  0.7323
 9506TIP3    H250010   6.616   5.483  10.731 -1.0193 -0.7299 -0.6764
 9507TIP3   OH250011   5.258   2.295   1.229  0.5184  0.1865 -0.6731
 9507TIP3    H150012   5.262   2.390   1.216  2.4263  0.0273 -1.4190
 9507TIP3    H250013   5.343   2.262   1.201 -0.0515 -1.7538 -0.3006
 9508TIP3   OH250014   1.693   1.064   2.501  0.0338  0.3528  0.0744
 9508TIP3    H150015   1.776   1.045   2.544  0.1049  0.6886  0.0934
 9508TIP3    H250016   1.629   1.065   2.571 -0.0554 -0.2870  0.0101
 9509TIP3   OH250017   0.221   5.395  16.028  0.5974  0.7504 -0.3254
 9509TIP3    H150018   0.176   5.393  15.944 -0.4241  0.1244  0.2145
 9509TIP3    H250019   0.151   5.391  16.093  1.4378 -2.5835  0.5619
 9510TIP3   OH250020   3.280   6.434  14.160 -0.1676 -0.0836  0.2341
 9510TIP3    H150021   3.218   6.365  14.140 -0.0007 -0.7243  1.8412
 9510TIP3    H250022   3.234   6.492  14.221  0.0227  0.7108 -0.3599
 9511TIP3   OH250023   2.665   1.136   3.637 -0.3523 -0.5398 -0.7316
 9511TIP3    H150024   2.657   1.065   3.701  2.1819 -1.5848 -1.4684
 9511TIP3    H250025   2.635   1.213   3.685  1.0809 -1.3283  1.6723
 9512TIP3   OH250026   1.646   5.076   2.634 -0.1810  0.0730  0.1614
 9512TIP3    H150027   1.624   5.080   2.541 -0.9687  0.9388  0.3637
 9512TIP3    H250028   1.741   5.066   2.636 -0.3178 -1.7667 -0.7398
 9513TIP3   OH250029   6.417   2.861   0.999 -0.6116  0.7981 -0.3625
 9513TIP3    H150030   6.392   2.919   1.071  2.0182  0.9005  0.5895
 9513TIP3    H250031   6.424   2.918   0.923 -2.6926  0.8215 -0.5819
 9514TIP3   OH250032   1.648   1.647   0.073 -0.0823  0.3276  0.0110
 9514TIP3    H150033   1.623   1.628  -0.018 -0.5283 -0.9148  0.3738
 9514TIP3    H250034   1.591   1.719   0.099 -0.3194  0.3435 -0.5333
 9515TIP3   OH250035   5.500   0.920  16.145 -0.0899  0.1486  0.1585
 9515TIP3    H150036   5.519   0.980  16.217 -1.7895  0.7730  0.1204
 9515TIP3    H250037   5.509   0.974  16.066 -0.5544  0.0749  0.0532
 9516TIP3   OH250038   4.570   1.941   1.544  0.3320  0.3769 -0.6106
 9516TIP3    H150039   4.622   1.898   1.612  0.9285  2.2626  0.1702
 9516TIP3    H250040   4.587   2.034   1.556 -0.9012  0.8532 -2.2720
 9517TIP3   OH250041   4.812   5.578   4.064  0.6145 -0.0140  1.1869
 9517TIP3    H150042   4.763   5.658   4.046  1.3726 -0.1162 -1.7637
 9517TIP3    H250043   4.767   5.539   4.139 -2.6985  0.8270 -0.1884
 9518TIP3   OH250044   5.185   3.556  14.047 -0.0176  0.1413  0.0132
 9518TIP3    H150045   5.181   3.551  13.952 -0.1628  1.1897 -0.0543
 9518TIP3    H250046   5.149   3.643  14.068 -2.0590 -0.8887  1.1617
 9519TIP3   OH250047   2.507   0.502  17.427 -0.2797 -0.4123 -0.1783
 9519TIP3    H150048   2.485   0.525  17.337  0.2229  0.1353 -0.1634
 9519TIP3    H250049   2.494   0.583  17.476  2.5806  0.2102 -0.3065
 9520TIP3   OH250050   2.862   2.426  13.694  0.2121 -0.4744 -0.3601
 9520TIP3    H150051   2.845   2.514  13.661 -0.3786  0.2664  1.7214
 9520TIP3    H250052   2.777   2.382  13.693  0.1610 -0.4042  0.2054
 9521TIP3   OH250053   6.045   2.947  15.160  0.1211 -0.0825  0.0338
 9521TIP3    H150054   5.963   2.898  15.155  0.2020 -0.5045  1.8599
 9521TIP3    H250055   6.020   3.038  15.142 -1.0529  0.0338  1.8955
 9522TIP3   OH250056   5.875   2.588  17.508  0.3382 -0.0752 -0.3340
 9522TIP3    H150057   5.865   2.522  17.577 -0.0058 -0.4624 -0.7485
 9522TIP3    H250058   5.843   2.669  17.547  3.4236  0.5559  1.2136
 9523TIP3   OH250059   0.839   2.925  13.087 -0.3265 -0.2464 -0.0194
 9523TIP3    H150060   0.833   2.843  13.037  0.9295 -0.6827  0.5102
 9523TIP3    H250061   0.755   2.968  13.072 -1.2884 -1.9368  0.1875
 9524TIP3   OH250062   2.158   5.039  17.513  0.2889 -0.0070  0.1880
 9524TIP3    H150063   2.099   5.113  17.504  0.4090  0.2363  1.3021
 9524TIP3    H250064   2.101   4.962  17.511  0.1129  0.1301 -0.4033
 9525TIP3   OH250065   0.568   5.604  13.031 -0.4002 -0.1729 -0.0496
 9525TIP3    H150066   0.586   5.511  13.038  0.0113 -0.0304  1.1114
 9525TIP3    H250067   0.592   5.628  12.942 -0.6998 -1.2104 -0.4125
 9526TIP3   OH250068   2.110   6.548   2.652  0.2897  0.5870 -0.3412
 9526TIP3    H150069   2.133   6.556   2.745 -1.0434 -1.2374  0.2249
 9526TIP3    H250070   2.094   6.637   2.623 -1.8129  1.0708  1.9361
 9527TIP3   OH250071   4.133   2.078   5.203  0.1384  1.0713 -0.1663
 9527TIP3    H150072   4.075   2.154   5.189  0.9573  1.5877 -0.8169
 9527TIP3    H250073   4.073   2.004   5.210 -0.7181  1.8401  1.0507
 9528TIP3   OH250074   2.769   2.427   0.564  0.2925 -0.1942 -0.0581
 9528TIP3    H150075   2.747   2.334   0.573  1.3101 -0.4582 -0.1826
 9528TIP3    H250076   2.706   2.472   0.620 -1.5154 -0.7776 -1.5317
 9529TIP3   OH250077   5.857   1.627   0.943  0.2387  0.3363  0.8337
 9529TIP3    H150078   5.935   1.583   0.979  1.0623  1.9411  1.0804
 9529TIP3    H250079   5.871   1.624   0.848  0.3159  0.1211  0.8496
 9530TIP3   OH250080   3.474   4.239   3.125 -0.3924 -0.4537  0.3872
 9530TIP3    H150081   3.547   4.242   3.186  0.2303  1.0527 -0.3777
 9530TIP3    H250082   3.431   4.325   3.134 -0.9191 -0.6072 -0.5318
 9531TIP3   OH250083   4.143   3.957   4.494 -0.2780  0.2255 -0.0249
 9531TIP3    H150084   4.187   4.018   4.553  0.3024 -0.6963  0.5385
 9531TIP3    H250085   4.149   3.872   4.539 -1.1406 -0.2297 -0.7331
 9532TIP3   OH250086   0.271   2.360  14.438  0.4346  0.2330 -0.1315
 9532TIP3    H150087   0.205   2.415  14.395  0.5012  1.3092  1.0792
 9532TIP3    H250088   0.261   2.275  14.397 -0.0196  1.0068 -1.7208
 9533TIP3   OH250089   6.479   4.016   4.479 -0.2149  0.3035 -0.6273
 9533TIP3    H150090   6.504   4.046   4.391  1.9913  1.8845  0.4365
 9533TIP3    H250091   6.404   4.070   4.503 -0.5521  0.1693 -1.3628
 9534TIP3   OH250092   6.592   3.062  13.380  0.2286  0.1327  0.1225
 9534TIP3    H150093   6.531   3.022  13.318  0.7859 -0.5554 -0.0031
 9534TIP3    H250094   6.594   3.001  13.454 -0.5194  1.0088  0.8833
 9535TIP3   OH250095   6.215   4.628  16.493  0.1849 -0.1221  0.2604
 9535TIP3    H150096   6.240   4.661  16.407 -0.9372  1.6340  0.5581
 9535TIP3    H250097   6.158   4.553  16.475 -1.0017  0.9417 -0.5802
 9536TIP3   OH250098   4.382   5.204   1.854  0.2029 -0.7757  0.6502
 9536TIP3    H150099   4.470   5.180   1.883  0.2363 -1.6320 -0.1199
 9536TIP3    H250100   4.326   5.131   1.881 -0.5120  0.2923  2.1982
 9537TIP3   OH250101   0.145   0.758   5.363  0.7488  0.3445 -0.2865
 9537TIP3    H150102   0.084   0.824   5.331  1.6925  2.0219  1.1738
 9537TIP3    H250103   0.111   0.733   5.449  0.2338 -1.3490 -0.9502
 9538TIP3   OH250104   4.899   6.716  15.416 -0.1074  0.1382  0.0535
 9538TIP3    H150105   4.978   6.742  15.369  1.6256 -0.7731  2.2627
 9538TIP3    H250106   4.899   6.620  15.413 -0.8173  0.1099  0.5614
 9539TIP3   OH250107   4.660   2.525   0.957 -0.4917  0.2655  0.2232
 9539TIP3    H150108   4.747   2.565   0.963 -0.3250 -0.0218 -0.2390
 9539TIP3    H250109   4.619   2.544   1.042 -0.3670  1.2767  0.0641
 9540TIP3   OH250110   6.596   0.928   0.794 -0.0542  0.4437  0.5984
 9540TIP3    H150111   6.545   1.004   0.822  0.6777  1.7493 -1.3558
 9540TIP3    H250112   6.576   0.861   0.859  0.1220  2.5958  3.0539
 9541TIP3   OH250113   2.346   6.378   2.236 -0.0905  0.0317  0.0389
 9541TIP3    H150114   2.272   6.373   2.297  1.0251 -2.6858  1.3231
 9541TIP3    H250115   2.396   6.454   2.267  1.5992 -2.4148  4.1580
 9542TIP3   OH250116   5.561   1.364  12.398 -0.0887 -0.2059  0.1193
 9542TIP3    H150117   5.540   1.439  12.342 -1.1525 -0.4604  0.1645
 9542TIP3    H250118   5.478   1.319  12.410  0.0395  0.0096  2.1643
 9543TIP3   OH250119   2.215   0.352   1.227  0.3811 -0.4147  0.1990
 9543TIP3    H150120   2.136   0.391   1.191  1.3711  1.0642 -0.4685
 9543TIP3    H250121   2.230   0.400   1.309  0.7355 -0.4806  0.1752
 9544TIP3   OH250122   2.597   5.193   5.799  0.0443  0.6784 -0.0978
 9544TIP3    H150123   2.554   5.179   5.714 -1.8118 -0.2763  0.9391
 9544TIP3    H250124   2.690   5.191   5.779 -0.3437  0.5514 -2.1307
 9545TIP3   OH250125   3.388   1.983   0.698  0.2100  0.4454 -0.0613
 9545TIP3    H150126   3.410   1.957   0.608  0.0769  0.0732  0.0143
 9545TIP3    H250127   3.314   1.928   0.722  2.8547 -2.6350  1.8334
 9546TIP3   OH250128   2.144   5.987  12.898  0.1879 -0.3299  0.7429
 9546TIP3    H150129   2.119   5.911  12.846 -2.2581  1.9122 -1.7029
 9546TIP3    H250130   2.090   5.981  12.977  1.0775 -1.7802  1.2822
 9547TIP3   OH250131   5.102   3.373  13.230  0.5575 -0.0254  0.2154
 9547TIP3    H150132   5.029   3.435  13.223  1.4250  1.0457  0.2783
 9547TIP3    H250133   5.083   3.322  13.308 -1.5504 -1.7402 -1.2832
 9548TIP3   OH250134   4.955   4.586  12.496  0.0193  0.3815  0.0663
 9548TIP3    H150135   4.860   4.589  12.482  0.0192  1.2939  0.1890
 9548TIP3    H250136   4.983   4.677  12.483  0.8576  0.1401  0.1680
 9549TIP3   OH250137   6.230   1.914   4.067  0.7459  0.2649 -0.3156
 9549TIP3    H150138   6.172   1.968   4.120  1.6323  0.2023  0.7571
 9549TIP3    H250139   6.295   1.880   4.129 -0.2638 -2.7433 -0.7640
 9550TIP3   OH250140   3.088   5.595  17.047  0.1155 -0.1810 -0.2124
 9550TIP3    H150141   3.138   5.525  17.004 -0.9593 -0.3918 -1.1625
 9550TIP3    H250142   3.068   5.560  17.134  2.3226  0.2534  0.5401
 9551TIP3   OH250143   2.139   1.153   3.435  0.2780 -0.3098 -0.1450
 9551TIP3    H150144   2.070   1.178   3.496 -0.4455 -0.0089 -1.0517
 9551TIP3    H250145   2.177   1.074   3.472  1.4358  1.1333  1.8914
 9552TIP3   OH250146   0.906   0.104   5.756  0.9019  0.4644  0.0735
 9552TIP3    H150147   0.978   0.090   5.818 -0.2132 -0.2093  1.2864
 9552TIP3    H250148   0.829   0.115   5.812 -0.3944 -1.4523 -1.1935
 9553TIP3   OH250149   2.516   3.235  11.242 -0.0699 -0.0904 -0.1828
 9553TIP3    H150150   2.504   3.145  11.212  0.9359 -0.1174 -0.5448
 9553TIP3    H250151   2.593   3.265  11.195  0.9710  0.2038  1.6219
 9554TIP3   OH250152   1.929   5.285  11.584 -0.1728  0.3576  0.3528
 9554TIP3    H150153   1.959   5.319  11.499  0.1947 -0.7467  0.0244
 9554TIP3    H250154   1.861   5.222  11.562 -0.5840  0.5907  0.9293
 9555TIP3   OH250155   5.636   3.044  13.852  0.1200  0.1442 -0.5280
 9555TIP3    H150156   5.701   3.045  13.782 -0.6890  2.5788 -1.3600
 9555TIP3    H250157   5.676   3.094  13.923  0.9377 -2.3164  0.8582
 9556TIP3   OH250158   0.415   5.766   0.076 -0.1755 -0.0267  0.1613
 9556TIP3    H150159   0.344   5.750   0.013  0.6803  2.1174 -1.4820
 9556TIP3    H250160   0.454   5.680   0.090 -0.0822 -0.5732 -2.7394
 9557TIP3   OH250161   0.273   6.339   4.695 -0.3749  0.4789  0.3915
 9557TIP3    H150162   0.217   6.357   4.619  1.4464 -1.6161 -1.6332
 9557TIP3    H250163   0.307   6.425   4.720 -1.6130  1.3302 -0.6993
 9558TIP3   OH250164   1.342   3.642   0.072  0.4145  0.3223 -0.2628
 9558TIP3    H150165   1.294   3.684   0.001  0.9301  0.8284 -0.3173
 9558TIP3    H250166   1.400   3.710   0.106 -0.3429  0.3115  1.1326
 9559TIP3   OH250167   4.661   3.090   5.462 -0.1086  0.4375  0.1897
 9559TIP3    H150168   4.628   3.054   5.379  1.3153  0.0394 -0.2346
 9559TIP3    H250169   4.671   3.014   5.519  3.1542 -0.0303 -0.7921
 9560TIP3   OH250170   2.340   0.347  16.136  0.4906  0.3504 -0.4040
 9560TIP3    H150171   2.251   0.312  16.142  1.4532 -2.1930  0.3421
 9560TIP3    H250172   2.373   0.313  16.053  0.8156  1.2273 -0.6442
 9561TIP3   OH250173   5.078   2.699  12.923  0.1265 -0.3566  0.1427
 9561TIP3    H150174   5.113   2.683  13.011 -1.4150 -0.6825  0.7305
 9561TIP3    H250175   5.077   2.794  12.915 -1.6983 -0.2206  1.3634
 9562TIP3   OH250176   5.186   0.000   2.054 -0.3422 -0.2890  0.6990
 9562TIP3    H150177   5.111   0.030   2.105  0.4904 -0.8955  2.3473
 9562TIP3    H250178   5.247  -0.035   2.119  0.7701 -1.1015 -0.7254
 9563TIP3   OH250179   0.277   5.015   4.548 -0.0337 -0.1339 -0.2477
 9563TIP3    H150180   0.244   5.037   4.461  1.3696  0.0952 -0.7410
 9563TIP3    H250181   0.206   5.042   4.607 -1.2182 -0.7707 -1.3303
 9564TIP3   OH250182   0.890   5.994  11.543 -0.4578 -0.3746 -0.1934
 9564TIP3    H150183   0.954   6.050  11.499  2.2800 -0.8760  2.8461
 9564TIP3    H250184   0.889   5.914  11.490  0.9769 -0.1138 -0.6697
 9565TIP3   OH250185   6.061   5.048  13.195 -0.2116 -0.3788 -0.1629
 9565TIP3    H150186   6.065   5.142  13.178  0.5502 -0.5170 -0.8093
 9565TIP3    H250187   6.146   5.015  13.167 -0.8809 -1.4458 -1.0148
 9566TIP3   OH250188   6.255   2.078   1.904 -0.4957  0.1439  0.5357
 9566TIP3    H150189   6.316   2.099   1.834 -0.6662 -2.1247 -0.4045
 9566TIP3    H250190   6.220   2.162   1.933  0.8329  1.2512 -0.9467
 9567TIP3   OH250191   1.851   4.005   0.902  0.4624  0.0903 -0.1354
 9567TIP3    H150192   1.773   4.057   0.884  0.7921  0.4412 -0.5636
 9567TIP3    H250193   1.879   4.031   0.990 -0.7809 -1.1556  0.6703
 9568TIP3   OH250194   1.458   4.918  13.699 -0.1511 -0.1559 -0.0802
 9568TIP3    H150195   1.504   4.989  13.653 -0.3050  0.1715  0.2701
 9568TIP3    H250196   1.519   4.844  13.695 -0.2039 -0.1656 -0.9002
 9569TIP3   OH250197   6.057   3.840   4.096 -0.3530  0.4766 -0.2590
 9569TIP3    H150198   6.083   3.801   4.012 -3.0042 -1.9527 -0.1227
 9569TIP3    H250199   5.975   3.886   4.077 -1.3648 -0.6961  1.0445
 9570TIP3   OH250200   1.678   5.434   1.003  0.0206  0.0568  0.5743
 9570TIP3    H150201   1.646   5.410   0.916  0.1601  0.2124  0.4778
 9570TIP3    H250202   1.621   5.506   1.031  2.3851  2.8389 -1.1080
 9571TIP3   OH250203   4.337   1.058   1.395 -0.0084  0.1971 -0.3897
 9571TIP3    H150204   4.406   1.041   1.458  0.1179 -0.9734 -0.8150
 9571TIP3    H250205   4.256   1.050   1.445  0.1283  2.4364  0.3119
 9572TIP3   OH250206   0.419   3.574  12.726 -0.4732  0.1620 -1.0162
 9572TIP3    H150207   0.373   3.648  12.685 -0.5056  1.7845  1.6474
 9572TIP3    H250208   0.511   3.598  12.722 -0.3518 -0.3614 -1.4048
 9573TIP3   OH250209   3.736   0.009   5.827  0.4958 -0.5628 -0.2433
 9573TIP3    H150210   3.832   0.003   5.834  0.5127  0.9676  1.8319
 9573TIP3    H250211   3.704  -0.033   5.907 -0.6383 -1.5122 -1.1566
 9574TIP3   OH250212   6.105   4.785   6.074 -0.1768  0.6113 -0.4567
 9574TIP3    H150213   6.065   4.735   6.004 -1.1397 -0.0286  0.5160
 9574TIP3    H250214   6.100   4.876   6.045  1.0852  0.2350 -1.9966
 9575TIP3   OH250215   0.489   2.758  13.809  0.2925 -0.2620  0.1577
 9575TIP3    H150216   0.516   2.695  13.743  0.3569 -1.3681  1.2095
 9575TIP3    H250217   0.491   2.843  13.764  0.6542 -0.9432 -1.1472
 9576TIP3   OH250218   0.752   4.838   2.441  0.1203 -0.4086 -0.0021
 9576TIP3    H150219   0.766   4.845   2.346  1.8453  1.5588  0.3265
 9576TIP3    H250220   0.657   4.845   2.452 -0.0992 -0.6017 -1.5757
 9577TIP3   OH250221   1.296   0.132   4.382  0.0265  0.4027 -0.3954
 9577TIP3    H150222   1.214   0.099   4.344  0.0132 -1.2361  0.9802
 9577TIP3    H250223   1.345   0.054   4.406  1.3504  1.3811  0.2121
 9578TIP3   OH250224   6.325   4.645  14.292 -0.2955  0.1587 -0.2920
 9578TIP3    H150225   6.316   4.737  14.267 -0.6493 -0.1561 -1.3806
 9578TIP3    H250226   6.417   4.624  14.274 -0.4588  0.0346 -1.0194
 9579TIP3   OH250227   4.936   2.542   6.027  0.2107 -0.2522  0.0867
 9579TIP3    H150228   4.862   2.595   6.056 -2.3834 -3.8243  0.6207
 9579TIP3    H250229   4.916   2.520   5.936 -0.0636 -2.1841  0.5725
 9580TIP3   OH250230   5.210   5.172  12.318 -0.0264  0.7790  0.5087
 9580TIP3    H150231   5.119   5.144  12.310 -0.3432  1.9346 -0.2813
 9580TIP3    H250232   5.244   5.124  12.393 -0.5778 -1.4775 -0.5973
 9581TIP3   OH250233   6.092   2.374   5.213  0.3699  0.1851  0.2063
 9581TIP3    H150234   6.070   2.295   5.163 -0.5128  2.1233 -2.7031
 9581TIP3    H250235   6.187   2.372   5.220  0.3998 -0.8949 -0.2354
 9582TIP3   OH250236   5.135   5.737   3.222 -0.4474 -0.6503 -0.2449
 9582TIP3    H150237   5.058   5.680   3.222 -1.9008  1.2431 -0.3573
 9582TIP3    H250238   5.108   5.815   3.270  0.6229  1.0524 -2.2451
 9583TIP3   OH250239   6.559   4.416  14.555 -0.1967 -0.0444 -0.0044
 9583TIP3    H150240   6.573   4.321  14.561 -0.5896 -0.1086 -0.1076
 9583TIP3    H250241   6.569   4.447  14.645  0.2594 -0.1369 -0.0184
 9584TIP3   OH250242   1.110   1.053   2.877 -0.6671 -1.0739 -0.2841
 9584TIP3    H150243   1.150   1.005   2.805 -1.5326 -1.7267 -0.3467
 9584TIP3    H250244   1.153   1.139   2.876 -1.6051 -0.5497 -2.4746
 9585TIP3   OH250245   3.148   1.084  14.400  0.3087 -0.0070  0.5985
 9585TIP3    H150246   3.073   1.138  14.377 -0.1999 -0.5227  0.9932
 9585TIP3    H250247   3.198   1.137  14.462  0.4186  0.4481  0.1200
 9586TIP3   OH250248   4.880   5.877  13.319  0.2891 -0.1565  0.3527
 9586TIP3    H150249   4.912   5.805  13.374 -1.9286 -2.4168 -1.0933
 9586TIP3    H250250   4.833   5.935  13.380  0.6613 -0.8222  1.3045
 9587TIP3   OH250251   1.579   3.855  16.466 -0.2342 -0.1412 -0.2789
 9587TIP3    H150252   1.599   3.837  16.374  0.2879 -0.3237 -0.1293
 9587TIP3    H250253   1.586   3.769  16.509  0.9975  0.1842  0.2031
 9588TIP3   OH250254   2.678   3.690   1.026 -0.4827  0.5267  0.5281
 9588TIP3    H150255   2.724   3.739   1.094 -1.1571  0.2969  1.1595
 9588TIP3    H250256   2.674   3.601   1.059 -1.4481  0.5560  0.5195
 9589TIP3   OH250257   4.922   3.126   5.454 -0.2407  0.3226  0.4477
 9589TIP3    H150258   4.827   3.123   5.452 -0.2387  0.6290 -0.7116
 9589TIP3    H250259   4.944   3.209   5.413  0.5169  0.6128  1.3991
 9590TIP3   OH250260   5.010   0.623   3.223  0.3463  0.2768 -0.2497
 9590TIP3    H150261   5.010   0.560   3.151 -1.7096 -1.1781  0.8905
 9590TIP3    H250262   4.957   0.696   3.191  0.4883  0.2121 -0.6412
 9591TIP3   OH250263   3.224   6.182  14.037 -0.0915  0.0257  0.7149
 9591TIP3    H150264   3.289   6.130  13.991  0.1115  1.5653 -0.8578
 9591TIP3    H250265   3.143   6.133  14.028  0.1869 -0.2760 -0.3168
 9592TIP3   OH250266   1.468   3.254   4.048  0.4418  0.5709  0.0413
 9592TIP3    H150267   1.372   3.257   4.049  0.3512 -0.2748 -1.7585
 9592TIP3    H250268   1.492   3.231   4.138 -0.9954  1.5667  0.7171
 9593TIP3   OH250269   0.059   5.405   6.855  0.3728  0.0474 -0.1481
 9593TIP3    H150270   0.057   5.473   6.923  0.9991 -0.7020  0.6476
 9593TIP3    H250271   0.028   5.326   6.899 -0.3091 -0.2090 -1.0526
 9594TIP3   OH250272   3.725   4.288   1.647  0.1516  0.1088  0.5041
 9594TIP3    H150273   3.719   4.364   1.589  0.8147 -0.5138 -0.4171
 9594TIP3    H250274   3.743   4.325   1.733 -0.7026  1.0472  0.2974
 9595TIP3   OH250275   3.915   5.619   2.017 -0.0908  0.4322  0.2303
 9595TIP3    H150276   3.983   5.562   2.053  0.0318 -1.1279 -2.2121
 9595TIP3    H250277   3.941   5.707   2.042  1.3373 -0.3240  1.6208
 9596TIP3   OH250278   2.946   6.289  13.693 -0.0904  0.2487  0.0748
 9596TIP3    H150279   3.025   6.236  13.683 -1.0826 -1.2623 -0.0273
 9596TIP3    H250280   2.939   6.338  13.612 -0.5247 -1.4194 -0.9466
 9597TIP3   OH250281   5.633   1.830   0.656 -0.0887  0.1276  0.0276
 9597TIP3    H150282   5.577   1.788   0.722  0.2406 -1.6817 -0.7640
 9597TIP3    H250283   5.610   1.786   0.574  0.8021  1.0483 -0.7424
 9598TIP3   OH250284   3.888   0.059  16.520  0.2020  0.3522 -0.0011
 9598TIP3    H150285   3.849   0.064  16.608  0.3189 -1.2855  0.1671
 9598TIP3    H250286   3.976   0.023  16.535  1.1700  2.3224 -0.5672
 9599TIP3   OH250287   0.161   0.512   5.076 -0.3012  0.1566  0.2484
 9599TIP3    H150288   0.223   0.446   5.044 -0.6356  0.1195 -0.3305
 9599TIP3    H250289   0.163   0.502   5.171  0.8258  0.3813  0.2640
 9600TIP3   OH250290   5.558   3.022   3.938 -0.2851  0.3953 -0.0232
 9600TIP3    H150291   5.650   3.050   3.943  0.2510 -1.2763  0.3343
 9600TIP3    H250292   5.527   3.058   3.855  1.0937 -0.0360 -0.7768
 9601TIP3   OH250293   5.451   1.130   2.265  1.2451  0.9316  0.0974
 9601TIP3    H150294   5.435   1.077   2.187 -0.4414  0.8318  0.4574
 9601TIP3    H250295   5.451   1.067   2.337 -0.5021  1.3404  0.4995
 9602TIP3   OH250296   6.150   1.603   3.421  0.0227  0.5358  0.1986
 9602TIP3    H150297   6.165   1.657   3.498  0.2047  0.1007  0.4722
 9602TIP3    H250298   6.055   1.602   3.410 -0.0793 -0.3277  1.0916
 9603TIP3   OH250299   6.245   2.990   3.080  0.3814 -0.3770  0.3772
 9603TIP3    H150300   6.239   3.075   3.036 -1.1735 -1.2695 -1.2905
 9603TIP3    H250301   6.314   2.944   3.033 -0.0483 -0.6857  0.0409
 9604TIP3   OH250302   5.315   2.382   4.741 -0.8898 -0.5632 -0.3882
 9604TIP3    H150303   5.394   2.431   4.717 -1.3871  0.3436 -0.2105
 9604TIP3    H250304   5.249   2.449   4.755 -1.9530 -1.3529 -1.4432
 9605TIP3   OH250305   5.184   6.710   2.645 -0.0389 -0.2891  0.0073
 9605TIP3    H150306   5.257   6.694   2.585 -0.5126 -1.7785 -0.2019
 9605TIP3    H250307   5.112   6.738   2.589 -0.4095 -1.4415 -0.1022
 9606TIP3   OH250308   2.336   3.070  11.073 -0.2331 -0.3282 -0.1168
 9606TIP3    H150309   2.271   3.003  11.093  1.0057 -0.9236  2.2471
 9606TIP3    H250310   2.419   3.032  11.100  1.0571  0.6992 -2.3559
 9607TIP3   OH250311   6.577   2.099  16.020  0.2077 -0.0423  0.4550
 9607TIP3    H150312   6.587   2.111  16.114  0.5913 -1.2598  0.5749
 9607TIP3    H250313   6.556   2.007  16.009  0.4246  0.0282 -0.6715
 9608TIP3   OH250314   5.029   4.577  17.106 -0.2655 -0.2426  0.5135
 9608TIP3    H150315   5.049   4.569  17.013 -0.3508 -1.1996  0.5727
 9608TIP3    H250316   4.945   4.533  17.117  1.2627 -3.1314  1.5749
 9609TIP3   OH250317   1.217   0.444   1.757 -0.1313 -0.1651  0.6967
 9609TIP3    H150318   1.266   0.394   1.822 -0.1388 -0.1877  0.6853
 9609TIP3    H250319   1.223   0.535   1.786 -2.6256 -0.4241  2.4414
 9610TIP3   OH250320   3.949   4.309   0.302  0.2591 -0.8486  0.0150
 9610TIP3    H150321   3.901   4.319   0.384  0.8533 -0.7687  0.3585
 9610TIP3    H250322   3.883   4.281   0.239 -0.5722  0.7737  0.1066
 9611TIP3   OH250323   4.054   3.807  15.544  0.3280  0.3040 -0.4599
 9611TIP3    H150324   4.044   3.871  15.473 -1.6842 -0.9637 -1.4106
 9611TIP3    H250325   3.987   3.833  15.608 -0.9316 -1.1450 -1.1392
 9612TIP3   OH250326   4.240   0.197   1.318 -0.2300 -0.0284  0.1345
 9612TIP3    H150327   4.204   0.274   1.273 -0.0403  0.4226  0.7409
 9612TIP3    H250328   4.330   0.220   1.338  0.5704 -1.3269 -1.7659
 9613TIP3   OH250329   6.309   1.495  14.324 -0.1815 -0.0186 -0.2685
 9613TIP3    H150330   6.337   1.410  14.291 -0.1252 -0.9129  1.9121
 9613TIP3    H250331   6.357   1.559  14.271  1.4524 -1.3825 -0.5153
 9614TIP3   OH250332   1.823   5.789   5.834  0.2604  0.2027  0.4790
 9614TIP3    H150333   1.786   5.818   5.750 -1.9624 -0.2210  1.2606
 9614TIP3    H250334   1.822   5.694   5.829 -1.4289  0.1189  1.5548
 9615TIP3   OH250335   4.070   1.727  13.849  0.1406 -0.2832  0.6385
 9615TIP3    H150336   4.040   1.762  13.933  1.8813 -0.7922  1.5365
 9615TIP3    H250337   4.058   1.799  13.787 -2.0099 -0.1992  1.1009
 9616TIP3   OH250338   3.385   5.995   3.300 -0.2698 -0.2047  0.1386
 9616TIP3    H150339   3.363   6.071   3.354 -2.1253 -0.3587 -0.3376
 9616TIP3    H250340   3.394   5.923   3.362  0.8675  0.2464  0.5272
 9617TIP3   OH250341   1.229   1.050  14.865 -0.3645 -0.3044  0.1502
 9617TIP3    H150342   1.163   1.113  14.896  1.8142  2.8284 -1.0401
 9617TIP3    H250343   1.281   1.029  14.943  0.7826  1.9518  0.0680
 9618TIP3   OH250344   0.426   4.035   0.775  0.0487 -0.1479  0.0086
 9618TIP3    H150345   0.372   4.108   0.745  0.5386 -0.2974 -1.3117
 9618TIP3    H250346   0.468   4.002   0.696  1.9143 -0.1834  0.9346
 9619TIP3   OH250347   4.177   2.953   2.179 -0.6785 -0.2062  0.2281
 9619TIP3    H150348   4.271   2.971   2.184 -0.3055 -2.1474  1.1536
 9619TIP3    H250349   4.151   2.984   2.093  1.0456 -0.5669 -0.4657
 9620TIP3   OH250350   0.915   1.903  14.729 -0.2950  0.0217 -0.0936
 9620TIP3    H150351   0.999   1.878  14.690 -0.6762  1.8816 -2.3346
 9620TIP3    H250352   0.879   1.967  14.668 -2.7883  0.2153  1.4611
 9621TIP3   OH250353   2.478   2.706   4.072  0.4172 -0.6638  0.2112
 9621TIP3    H150354   2.427   2.677   3.996 -1.7316 -0.4825  1.4834
 9621TIP3    H250355   2.458   2.642   4.140 -0.9507  1.2948  1.7825
 9622TIP3   OH250356   0.131   5.089   4.317 -0.3779  0.1628  0.2024
 9622TIP3    H150357   0.156   5.138   4.239 -0.1043  0.4135  0.4434
 9622TIP3    H250358   0.158   4.999   4.298 -0.0203  0.2819  0.1348
 9623TIP3   OH250359   5.373   4.373   1.108  0.5942  0.0547 -0.2424
 9623TIP3    H150360   5.324   4.303   1.150  0.5185 -0.1476 -0.6581
 9623TIP3    H250361   5.306   4.435   1.078  0.5453 -0.4411 -1.2062
 9624TIP3   OH250362   6.488   3.635  13.637  0.1733 -0.3014 -0.9223
 9624TIP3    H150363   6.470   3.727  13.653 -0.1911 -0.4123 -0.6574
 9624TIP3    H250364   6.435   3.589  13.702  0.7489 -0.6828 -0.7149
 9625TIP3   OH250365   6.007   3.898   2.053 -0.1423 -0.0143 -0.1586
 9625TIP3    H150366   6.030   3.823   2.108 -0.1550  0.5396  0.6161
 9625TIP3    H250367   5.960   3.860   1.979  0.3584 -0.8269 -0.0707
 9626TIP3   OH250368   5.227   6.245   2.745 -0.2591  0.5598  0.5888
 9626TIP3    H150369   5.194   6.313   2.804 -0.8435 -1.9883  3.4374
 9626TIP3    H250370   5.151   6.217   2.695 -0.4422  0.7025  0.7865
 9627TIP3   OH250371   0.053   5.300   4.496  0.1470 -0.1342  0.3458
 9627TIP3    H150372   0.067   5.223   4.440 -0.2417 -0.5043  0.7503
 9627TIP3    H250373   0.010   5.265   4.574 -1.0955  0.6642  0.0375
 9628TIP3   OH250374   1.650   2.370  16.032  0.4270 -0.2252 -0.2470
 9628TIP3    H150375   1.640   2.465  16.045 -2.8167 -0.6587  1.6270
 9628TIP3    H250376   1.653   2.359  15.937 -0.7116  1.6933 -0.5576
 9629TIP3   OH250377   0.341   5.148  14.535 -0.1090  0.2605 -0.6865
 9629TIP3    H150378   0.271   5.173  14.595  0.1505 -0.4458 -0.0657
 9629TIP3    H250379   0.320   5.059  14.509  1.6246 -0.8026  1.2015
 9630TIP3   OH250380   3.533   3.960   3.608  0.3101  0.5845  0.3692
 9630TIP3    H150381   3.593   3.896   3.570 -0.2451 -0.5418  1.3301
 9630TIP3    H250382   3.468   3.974   3.539  2.3646  2.9206 -1.2580
 9631TIP3   OH250383   4.400   5.890   0.261  0.5068  0.4443 -0.2403
 9631TIP3    H150384   4.357   5.825   0.204  1.7051 -1.2634  0.7284
 9631TIP3    H250385   4.476   5.919   0.211  0.9366 -0.2196  0.0155
 9632TIP3   OH250386   1.660   2.978  15.589  0.0027  0.3494 -0.2558
 9632TIP3    H150387   1.682   2.937  15.672  1.7060 -0.1208 -0.9101
 9632TIP3    H250388   1.582   2.932  15.559 -0.1845  0.0212  0.7147
 9633TIP3   OH250389   1.473   5.129   3.102 -0.2582 -0.6718  0.5643
 9633TIP3    H150390   1.551   5.138   3.156 -0.0933  0.0064  0.2207
 9633TIP3    H250391   1.501   5.152   3.013 -1.3333  1.8807  0.8036
 9634TIP3   OH250392   6.487   4.850   5.297  0.1404 -0.4048  0.0682
 9634TIP3    H150393   6.428   4.776   5.280 -0.5091 -0.4364  2.2319
 9634TIP3    H250394   6.558   4.813   5.348 -0.2504  0.4668  1.2806
 9635TIP3   OH250395   1.992   6.635  12.464  1.0137 -0.4348  0.2051
 9635TIP3    H150396   2.086   6.651  12.451  1.4440 -2.5428  0.4185
 9635TIP3    H250397   1.986   6.598  12.552 -0.2079  0.8660  0.7006
 9636TIP3   OH250398   4.602   0.721   3.588 -0.2923  0.3657  0.1277
 9636TIP3    H150399   4.650   0.802   3.570  1.8672 -0.4696  1.6532
 9636TIP3    H250400   4.567   0.734   3.677  0.3622 -0.4744  0.5192
 9637TIP3   OH250401   5.653   5.439  14.602  0.2444  0.1813 -0.0633
 9637TIP3    H150402   5.727   5.393  14.641 -1.6433 -0.8156  2.7048
 9637TIP3    H250403   5.590   5.369  14.581 -0.5035  1.0960 -0.9736
 9638TIP3   OH250404   5.802   4.650   5.648 -0.4854 -0.0447 -0.0942
 9638TIP3    H150405   5.837   4.737   5.632  0.6666 -0.0437  2.0064
 9638TIP3    H250406   5.715   4.665   5.686 -0.5189  0.1701 -0.2574
 9639TIP3   OH250407   6.344   5.880  10.663  0.3264  0.3146 -0.9179
 9639TIP3    H150408   6.253   5.906  10.652  0.0972 -0.1494 -0.1528
 9639TIP3    H250409   6.378   5.939  10.730  0.8121  0.9795 -1.7189
 9640TIP3   OH250410   0.322   6.699   4.090 -0.7742  0.0254 -0.0879
 9640TIP3    H150411   0.319   6.794   4.078 -0.8242  0.0512  0.1376
 9640TIP3    H250412   0.284   6.664   4.009 -0.9811  0.2012 -0.0677
 9641TIP3   OH250413   2.660   3.022   6.127  0.1692  0.8626 -0.3695
 9641TIP3    H150414   2.581   3.075   6.121 -0.9013 -0.4744  1.0978
 9641TIP3    H250415   2.668   2.982   6.040 -0.8992  0.8467 -0.4754
 9642TIP3   OH250416   0.212   0.113   1.513  0.4979  0.4103  0.2265
 9642TIP3    H150417   0.147   0.183   1.521 -0.1632  0.0178 -1.2963
 9642TIP3    H250418   0.293   0.153   1.545  0.1622  1.9477 -0.6939
 9643TIP3   OH250419   5.763   3.444  14.565  0.3414 -0.9044  0.3496
 9643TIP3    H150420   5.730   3.533  14.580 -2.1830 -1.3829 -1.6080
 9643TIP3    H250421   5.855   3.456  14.542  0.2002  1.1433  0.6011
 9644TIP3   OH250422   5.548   0.856  14.337  0.7047 -0.0292 -0.3120
 9644TIP3    H150423   5.461   0.892  14.318  1.1143  1.3812  0.3527
 9644TIP3    H250424   5.542   0.821  14.426  0.3929 -1.4151 -0.8480
 9645TIP3   OH250425   4.485   4.811   0.515 -0.2277 -0.3727 -0.1849
 9645TIP3    H150426   4.511   4.858   0.435 -1.6414  1.6796  0.4694
 9645TIP3    H250427   4.530   4.858   0.585  1.6237 -2.6300  0.2771
 9646TIP3   OH250428   2.079   0.938  16.693  0.1417  0.4060  0.0712
 9646TIP3    H150429   2.158   0.946  16.640 -0.4440 -0.9868 -1.0758
 9646TIP3    H250430   2.012   0.907  16.632 -1.3597  1.6855  0.9738
 9647TIP3   OH250431   2.890   5.292   4.539  0.0147  0.3712 -0.0363
 9647TIP3    H150432   2.873   5.313   4.447 -2.4900 -0.4107  0.1711
 9647TIP3    H250433   2.901   5.376   4.582 -1.5603  0.9120 -0.6256
 9648TIP3   OH250434   4.985   3.029   5.716  0.0325  0.0802  0.0004
 9648TIP3    H150435   4.898   3.063   5.740  0.4583  0.3382  1.2119
 9648TIP3    H250436   4.989   3.042   5.621 -2.0296 -1.7561 -0.4145
 9649TIP3   OH250437   4.777   3.576  11.848 -0.3093  0.1335  0.4561
 9649TIP3    H150438   4.789   3.671  11.844  1.6469 -0.0706  0.6256
 9649TIP3    H250439   4.783   3.555  11.941  0.1734 -0.2500  0.3427
 9650TIP3   OH250440   0.398   0.059   3.788  0.3200 -0.0598 -0.5879
 9650TIP3    H150441   0.429   0.131   3.733  2.2199  0.0264  0.4888
 9650TIP3    H250442   0.342   0.102   3.853  0.1649  0.2178 -0.9021
 9651TIP3   OH250443   3.634   5.667   2.695  0.3118 -0.3849  0.2684
 9651TIP3    H150444   3.703   5.602   2.709  0.9874  0.6048  1.6635
 9651TIP3    H250445   3.556   5.629   2.736  0.7194 -0.2862  1.1326
 9652TIP3   OH250446   0.731   5.785  16.058 -0.5808  0.6827  0.1103
 9652TIP3    H150447   0.641   5.762  16.036 -0.9433  1.2601  0.9439
 9652TIP3    H250448   0.726   5.822  16.146  0.5390  0.2969  0.3611
 9653TIP3   OH250449   2.735   6.099   6.195  0.2390 -0.1692  0.4285
 9653TIP3    H150450   2.807   6.081   6.256 -0.4486  0.0428  1.3222
 9653TIP3    H250451   2.741   6.193   6.178 -2.1878  0.7583  3.7036
 9654TIP3   OH250452   5.811   6.110  11.177 -0.1599 -0.0392  0.2430
 9654TIP3    H150453   5.876   6.048  11.145 -0.3499  0.3183 -0.8708
 9654TIP3    H250454   5.799   6.172  11.105  0.1017  1.3578  1.3655
 9655TIP3   OH250455   1.792   6.686  15.893  0.0267 -0.2022  0.5398
 9655TIP3    H150456   1.700   6.714  15.898 -0.7572 -2.1360 -1.4802
 9655TIP3    H250457   1.817   6.701  15.802  1.7587  0.2793  1.0591
 9656TIP3   OH250458   0.313   6.495   3.154  0.8747  0.2958 -0.0954
 9656TIP3    H150459   0.339   6.586   3.170  0.2352  0.3790  0.5163
 9656TIP3    H250460   0.290   6.492   3.062  0.7256  0.7960 -0.0741
 9657TIP3   OH250461   1.295   5.385   2.330 -0.4746  0.1125  0.0185
 9657TIP3    H150462   1.238   5.462   2.324 -1.3906 -0.4657  0.9568
 9657TIP3    H250463   1.284   5.341   2.245  0.6864  1.4106 -0.8466
 9658TIP3   OH250464   5.692   0.869   5.599  0.5012 -0.5582 -0.9215
 9658TIP3    H150465   5.615   0.857   5.543  1.1263 -2.3181 -1.4688
 9658TIP3    H250466   5.670   0.944   5.654 -2.9721 -2.8094  1.1626
 9659TIP3   OH250467   4.513   5.498  16.444  0.1055  0.1225 -0.3112
 9659TIP3    H150468   4.461   5.559  16.392  0.6208  1.6690  0.9319
 9659TIP3    H250469   4.577   5.463  16.381  0.2498  1.3959 -0.9103
 9660TIP3   OH250470   6.732   2.587  10.758 -0.0792  0.6419  0.6795
 9660TIP3    H150471   6.822   2.616  10.772 -0.5347  1.1402  3.2743
 9660TIP3    H250472   6.679   2.657  10.797 -1.5585  0.0526 -0.2118
 9661TIP3   OH250473   1.962   0.629  13.700  0.1620 -0.2898 -0.0250
 9661TIP3    H150474   1.900   0.702  13.692  0.1343 -0.5278 -2.6790
 9661TIP3    H250475   1.916   0.554  13.663  1.0088 -1.1578  0.6320
 9662TIP3   OH250476   2.575   0.522  12.412  0.1389 -0.3216 -0.2319
 9662TIP3    H150477   2.547   0.609  12.442 -1.2218 -0.4030 -1.1805
 9662TIP3    H250478   2.542   0.516  12.323  0.8727 -1.5433 -0.4407
 9663TIP3   OH250479   0.499   6.178   0.233 -0.2159  0.3475 -0.0994
 9663TIP3    H150480   0.498   6.090   0.196 -0.7250  0.3950 -0.2123
 9663TIP3    H250481   0.444   6.172   0.310 -0.5868  0.6578 -0.3356
 9664TIP3   OH250482   4.526   0.043  11.058  0.2205 -0.1823 -0.3237
 9664TIP3    H150483   4.517  -0.039  11.010 -0.5006 -1.2640  1.5436
 9664TIP3    H250484   4.600   0.027  11.117 -0.5158  0.1447  0.7123
 9665TIP3   OH250485   4.387   4.055  16.973  0.3000 -0.0927  0.0675
 9665TIP3    H150486   4.465   4.061  16.917  0.8320  0.1368  0.8241
 9665TIP3    H250487   4.379   3.961  16.992 -0.0358 -0.2054 -0.5944
 9666TIP3   OH250488   1.105   3.487   5.236  0.4553 -0.3453 -0.2702
 9666TIP3    H150489   1.112   3.570   5.189 -1.5327  0.6527  1.0961
 9666TIP3    H250490   1.021   3.451   5.209  0.4706 -1.0174  0.5594
 9667TIP3   OH250491   5.439   1.067  15.150 -0.7496  0.1177  0.2894
 9667TIP3    H150492   5.483   1.105  15.226 -2.1340 -2.2830  2.4703
 9667TIP3    H250493   5.346   1.086  15.165 -1.2009 -1.7608  0.0922
 9668TIP3   OH250494   2.105   6.278   4.473 -0.2801 -0.2492 -0.1063
 9668TIP3    H150495   2.175   6.297   4.410 -0.5680 -0.3319 -0.4492
 9668TIP3    H250496   2.026   6.313   4.433 -0.1939  1.3928  1.0251
 9669TIP3   OH250497   3.215   6.312  16.496 -0.4041  0.1049 -0.0236
 9669TIP3    H150498   3.275   6.347  16.562  0.3347  1.0662 -1.1646
 9669TIP3    H250499   3.187   6.227  16.532  1.6969 -0.4209  0.5161
 9670TIP3   OH250500   2.397   4.476  16.001  0.2825 -0.1874 -0.0679
 9670TIP3    H150501   2.439   4.562  16.012 -0.5080  0.2064 -0.0868
 9670TIP3    H250502   2.462   4.414  16.033  1.2435  0.3403 -0.8993
 9671TIP3   OH250503   6.519   6.135  15.028  0.7532 -0.1223  0.2738
 9671TIP3    H150504   6.583   6.139  14.957  0.8210  1.4878  0.3917
 9671TIP3    H250505   6.545   6.206  15.087 -0.2858 -0.3887  1.0697
 9672TIP3   OH250506   3.650   4.435  15.839  0.2234 -0.1864 -0.1226
 9672TIP3    H150507   3.563   4.419  15.803  0.4505 -1.2985 -0.2056
 9672TIP3    H250508   3.710   4.403  15.772  0.7162  0.8786 -0.2119
 9673TIP3   OH250509   0.564   1.608  17.185  0.3193  0.0283  0.1517
 9673TIP3    H150510   0.543   1.591  17.093 -0.3211 -0.7219  0.4321
 9673TIP3    H250511   0.492   1.662  17.217  1.8787  2.6771 -0.4827
 9674TIP3   OH250512   6.148   2.884   3.643  0.2247 -0.1367  0.4697
 9674TIP3    H150513   6.223   2.861   3.698  0.4933 -0.6053 -0.0799
 9674TIP3    H250514   6.108   2.800   3.621 -0.5441  0.1159  0.8610
 9675TIP3   OH250515   2.412   4.821  16.453  0.2798  0.8458 -0.5983
 9675TIP3    H150516   2.317   4.813  16.468  0.4874 -4.3682 -0.2646
 9675TIP3    H250517   2.448   4.832  16.541  0.0843  1.1370 -0.5505
 9676TIP3   OH250518   6.375   6.707   1.138 -0.2365  0.6380 -0.2093
 9676TIP3    H150519   6.364   6.714   1.233 -0.3507 -1.1086 -0.0750
 9676TIP3    H250520   6.286   6.716   1.103 -0.1204  1.9788 -0.2385
 9677TIP3   OH250521   0.522   4.368  13.288  0.0028  0.6287 -0.1668
 9677TIP3    H150522   0.430   4.347  13.278  0.0578  0.4540 -0.3170
 9677TIP3    H250523   0.529   4.405  13.376  0.0401 -0.7206  0.4137
 9678TIP3   OH250524   1.217   4.983   6.404 -0.8613 -0.0933 -0.0901
 9678TIP3    H150525   1.307   4.980   6.435 -0.5537  0.5345 -0.8772
 9678TIP3    H250526   1.170   4.923   6.461  0.3579 -1.6663 -0.6811
 9679TIP3   OH250527   1.031   5.875  17.175  0.6573  0.2682 -0.2348
 9679TIP3    H150528   1.117   5.914  17.157  0.2193  0.5384 -1.9438
 9679TIP3    H250529   0.986   5.876  17.090 -1.0196  0.0723  0.6036
 9680TIP3   OH250530   3.086   1.149   1.414  0.0425 -0.6400 -0.2563
 9680TIP3    H150531   3.057   1.198   1.337 -0.6273 -0.1703  0.2823
 9680TIP3    H250532   3.117   1.216   1.475  0.3295 -0.9878 -0.0147
 9681TIP3   OH250533   4.624   4.394  14.253  0.1345 -0.4819  0.2876
 9681TIP3    H150534   4.700   4.379  14.309 -0.9116 -1.0472  1.6234
 9681TIP3    H250535   4.599   4.485  14.270  0.2607 -0.4283  0.1812
 9682TIP3   OH250536   6.726   0.980   5.270 -0.1795  0.1160 -0.7925
 9682TIP3    H150537   6.723   1.063   5.223 -2.0100  1.2258  1.1037
 9682TIP3    H250538   6.763   1.001   5.355  2.0328 -1.6310 -1.2460
 9683TIP3   OH250539   0.266   5.528  14.840 -0.2327  0.4529  0.3520
 9683TIP3    H150540   0.173   5.514  14.855  0.1386  0.5284  3.2546
 9683TIP3    H250541   0.306   5.443  14.853  0.3844  0.9972  2.3578
 9684TIP3   OH250542   2.316   1.567  11.947  0.1613  0.1176 -0.1362
 9684TIP3    H150543   2.299   1.571  12.041  0.0893  1.4846 -0.1769
 9684TIP3    H250544   2.408   1.543  11.940  0.1837  0.0745  0.2857
 9685TIP3   OH250545   5.108   5.694  10.759  0.8683 -0.4129 -0.5098
 9685TIP3    H150546   5.060   5.659  10.684  0.3215 -1.2080  0.1865
 9685TIP3    H250547   5.168   5.624  10.784 -1.0723 -1.4335  1.6441
 9686TIP3   OH250548   6.405   1.760  14.443  0.5728 -0.0014  0.6508
 9686TIP3    H150549   6.474   1.819  14.411  0.0267  1.0923  1.4147
 9686TIP3    H250550   6.437   1.672  14.422  1.3694  0.5582 -0.6157
 9687TIP3   OH250551   2.015   5.366   0.671  0.4757  0.1374  0.4047
 9687TIP3    H150552   2.043   5.385   0.581  0.2463 -1.1940  0.0165
 9687TIP3    H250553   2.074   5.417   0.726  0.4525  1.1899 -0.5024
 9688TIP3   OH250554   0.664   6.511  10.966  0.2987 -0.0381 -0.8583
 9688TIP3    H150555   0.579   6.468  10.953 -0.7557  1.6216  0.2129
 9688TIP3    H250556   0.656   6.556  11.050  2.2356  0.2345 -0.7617
 9689TIP3   OH250557   1.846   3.886  10.907  0.2987  0.2963 -0.2727
 9689TIP3    H150558   1.758   3.892  10.870  0.0146  1.4717  0.5427
 9689TIP3    H250559   1.902   3.925  10.840 -0.1283  1.7772  0.1930
 9690TIP3   OH250560   5.389   4.428   0.033  0.0899  0.5131 -0.0079
 9690TIP3    H150561   5.364   4.338   0.054  0.9584 -0.1188 -1.5080
 9690TIP3    H250562   5.354   4.442  -0.055 -0.0439  1.6530  0.2186
 9691TIP3   OH250563   4.958   0.627   1.834  0.3674 -0.7773 -0.0441
 9691TIP3    H150564   4.901   0.699   1.809 -0.9501 -0.9960  2.1052
 9691TIP3    H250565   5.029   0.629   1.769  0.0034  1.9652 -0.4853
 9692TIP3   OH250566   2.889   0.628   5.476 -0.2039 -0.2912  0.0342
 9692TIP3    H150567   2.821   0.591   5.532  0.1763  0.7968  1.2544
 9692TIP3    H250568   2.932   0.552   5.437 -0.1032 -1.1176  1.6704
 9693TIP3   OH250569   2.645   6.587  15.234 -0.3724  0.1776 -1.1888
 9693TIP3    H150570   2.634   6.502  15.277 -1.0074  0.9797  0.3185
 9693TIP3    H250571   2.684   6.566  15.149 -0.9400 -1.6537 -1.0476
 9694TIP3   OH250572   1.820   0.471  14.069  0.0541  0.8565  0.1626
 9694TIP3    H150573   1.862   0.424  14.141 -2.2189  0.1341  1.1049
 9694TIP3    H250574   1.828   0.564  14.093  1.0433  0.7407  0.3139
 9695TIP3   OH250575   4.094   4.825  12.814  0.0853  0.7333  0.1619
 9695TIP3    H150576   4.174   4.875  12.832 -0.0491  0.8940  0.3192
 9695TIP3    H250577   4.027   4.868  12.867 -0.2827  1.0900 -0.5723
 9696TIP3   OH250578   2.997   2.034  17.468  0.5365  0.2660 -0.2383
 9696TIP3    H150579   2.962   2.055  17.555 -0.8787  0.5275 -0.8434
 9696TIP3    H250580   2.932   1.974  17.430  0.8078  0.6581 -1.3605
 9697TIP3   OH250581   5.774   0.598   0.397  0.0628 -0.3317 -0.2702
 9697TIP3    H150582   5.739   0.523   0.445 -0.8150 -0.7129 -1.4677
 9697TIP3    H250583   5.734   0.675   0.439  1.9972 -0.3739  1.8430
 9698TIP3   OH250584   1.322   0.528  17.195  0.0800  0.2968 -0.2170
 9698TIP3    H150585   1.381   0.543  17.121 -1.8068  4.1706 -1.1786
 9698TIP3    H250586   1.336   0.603  17.253  0.0463 -1.6004  2.4369
 9699TIP3   OH250587   0.695   2.832  10.757  0.0244  0.7626  0.7738
 9699TIP3    H150588   0.759   2.825  10.828  0.7069  1.3474  0.2429
 9699TIP3    H250589   0.736   2.892  10.695 -2.1114  3.1729  1.5543
 9700TIP3   OH250590   3.506   4.794  16.211  0.1637 -0.3439 -0.4913
 9700TIP3    H150591   3.519   4.729  16.141 -1.3212 -2.2006  0.8674
 9700TIP3    H250592   3.417   4.825  16.198  0.3634  0.3502 -0.2339
 9701TIP3   OH250593   2.020   1.887   5.337 -0.3639  0.9520 -0.0204
 9701TIP3    H150594   2.007   1.805   5.385 -0.5724  1.7509  1.3326
 9701TIP3    H250595   2.111   1.911   5.354  0.3830 -0.0749 -2.2070
 9702TIP3   OH250596   3.342   3.817   0.731 -0.4648  0.3602  0.0259
 9702TIP3    H150597   3.427   3.837   0.692 -0.7815  1.1155 -0.2982
 9702TIP3    H250598   3.297   3.902   0.737 -1.0131  0.0417  0.6304
 9703TIP3   OH250599   2.470   0.575  13.845 -0.9674  0.2539 -0.2827
 9703TIP3    H150600   2.532   0.573  13.771 -0.2507  1.0009  0.2774
 9703TIP3    H250601   2.387   0.601  13.806 -0.4329  1.3686 -0.7338
 9704TIP3   OH250602   4.679   6.728  16.940  0.1009  0.2250  0.0018
 9704TIP3    H150603   4.681   6.758  16.849  0.7542  1.1556  0.3117
 9704TIP3    H250604   4.592   6.692  16.951 -0.2899  0.9071 -0.7434
 9705TIP3   OH250605   6.127   1.409   6.582  0.3964 -0.1122  0.6895
 9705TIP3    H150606   6.188   1.431   6.652  1.2363  1.3293 -0.4339
 9705TIP3    H250607   6.041   1.423   6.621  0.8421  0.4650  1.5095
 9706TIP3   OH250608   6.604   3.917   6.805  0.3160 -0.7965 -0.0343
 9706TIP3    H150609   6.671   3.947   6.743  0.4370 -0.9418  0.0241
 9706TIP3    H250610   6.654   3.875   6.875  0.3062  0.9835  1.1013
 9707TIP3   OH250611   0.813   2.302   2.116  0.0255  0.2169 -0.6644
 9707TIP3    H150612   0.723   2.282   2.089 -1.0628  1.6521  1.5804
 9707TIP3    H250613   0.838   2.376   2.060  0.7102 -1.5345 -2.8016
 9708TIP3   OH250614   1.030   2.524  14.323 -0.5623 -0.5356 -0.5962
 9708TIP3    H150615   1.047   2.594  14.386 -1.9076  0.3264 -1.1442
 9708TIP3    H250616   0.991   2.454  14.376  1.0526 -1.0283  0.0021
 9709TIP3   OH250617   0.122   1.444   1.506  0.5675  0.7768  0.1530
 9709TIP3    H150618   0.086   1.368   1.460  0.2144  0.4295  0.9673
 9709TIP3    H250619   0.217   1.433   1.499  0.5400 -0.2762  1.0645
 9710TIP3   OH250620   0.764   6.361  11.874  0.3726  0.1465 -0.8836
 9710TIP3    H150621   0.858   6.360  11.895  0.3391 -0.0627 -0.7449
 9710TIP3    H250622   0.747   6.275  11.835  0.0305 -0.2069  0.0136
 9711TIP3   OH250623   5.444   5.077   5.832 -0.0135  0.0082  0.3196
 9711TIP3    H150624   5.452   4.991   5.791 -0.2516  0.2019 -0.1406
 9711TIP3    H250625   5.456   5.139   5.760  0.8259  0.3800  0.7576
 9712TIP3   OH250626   0.235   1.440   5.449 -0.1615  0.0163 -0.3984
 9712TIP3    H150627   0.213   1.521   5.495  0.4256  1.3787 -2.4039
 9712TIP3    H250628   0.205   1.454   5.359  0.9096 -1.5620 -1.0447
 9713TIP3   OH250629   0.601   2.232  12.207 -0.4567  0.0156 -0.3847
 9713TIP3    H150630   0.567   2.279  12.130  1.6577  0.3217 -1.1870
 9713TIP3    H250631   0.570   2.142  12.195 -1.9858  0.5085 -0.4123
 9714TIP3   OH250632   5.916   4.811  16.496  0.2158 -0.0166 -0.4529
 9714TIP3    H150633   5.850   4.792  16.429  1.3600 -0.3357 -1.5427
 9714TIP3    H250634   5.962   4.728  16.508 -0.2953 -0.1061  1.1434
 9715TIP3   OH250635   5.762   0.439   2.137  0.5093  0.6300 -0.3402
 9715TIP3    H150636   5.731   0.529   2.140  1.1940  0.8444  0.7076
 9715TIP3    H250637   5.731   0.400   2.218 -0.6582 -0.3986 -1.2415
 9716TIP3   OH250638   3.684   5.212   1.517 -0.5372 -0.4335 -0.2745
 9716TIP3    H150639   3.621   5.208   1.446 -3.2157  1.8032  1.7856
 9716TIP3    H250640   3.732   5.293   1.503 -0.0694 -0.7055 -0.2811
 9717TIP3   OH250641   3.706   2.277  11.955 -0.2111 -0.3309  0.1585
 9717TIP3    H150642   3.696   2.372  11.951 -0.6329 -0.1817  2.7377
 9717TIP3    H250643   3.781   2.258  11.899  0.6651  1.6841  0.5698
 9718TIP3   OH250644   5.952   4.569  15.660  0.9234  0.4855 -0.2869
 9718TIP3    H150645   5.998   4.649  15.688  0.9713  0.5028 -0.4140
 9718TIP3    H250646   5.992   4.547  15.576  0.7511  0.4553 -0.3599
 9719TIP3   OH250647   6.704   1.976   0.489 -0.4503  0.4465  0.6036
 9719TIP3    H150648   6.747   2.000   0.571 -1.4467  3.8257  0.2825
 9719TIP3    H250649   6.728   2.046   0.428 -1.6553 -0.7150 -1.3193
 9720TIP3   OH250650   5.385   5.313   0.121  0.4010 -0.4414  0.4232
 9720TIP3    H150651   5.460   5.317   0.062 -0.0488  0.7032 -0.0979
 9720TIP3    H250652   5.424   5.309   0.208  1.1386  1.9483  0.2928
 9721TIP3   OH250653   2.440   3.727   5.478  0.4592 -0.8659 -0.4872
 9721TIP3    H150654   2.494   3.781   5.536 -1.0367 -0.9461  1.0532
 9721TIP3    H250655   2.493   3.718   5.399  2.1010  0.2019  0.4109
 9722TIP3   OH250656   2.985   5.599  15.030  0.4472 -0.3691  0.2941
 9722TIP3    H150657   3.063   5.544  15.040 -0.0747 -0.8540  2.1447
 9722TIP3    H250658   2.974   5.641  15.116 -0.5833  0.7114 -0.3398
 9723TIP3   OH250659   4.310   5.834  13.467 -0.2539  0.3940 -0.1707
 9723TIP3    H150660   4.335   5.742  13.472  0.4471  0.6219  0.6094
 9723TIP3    H250661   4.216   5.835  13.482  0.1908  0.0850  3.2425
 9724TIP3   OH250662   2.802   5.092  13.404  0.1942  0.5272 -0.3073
 9724TIP3    H150663   2.889   5.061  13.430 -0.5313 -0.8330  0.6227
 9724TIP3    H250664   2.787   5.051  13.319 -0.1198 -0.4965  0.2152
 9725TIP3   OH250665   4.445   2.252   5.142  0.9851  0.0851  0.2474
 9725TIP3    H150666   4.463   2.209   5.225  0.4843  1.6509  1.2160
 9725TIP3    H250667   4.529   2.290   5.116  1.5702 -1.8486 -0.9023
 9726TIP3   OH250668   1.210   5.579   3.853  0.7935  0.5455 -0.1298
 9726TIP3    H150669   1.132   5.563   3.906  1.3515 -0.7786  0.3462
 9726TIP3    H250670   1.233   5.492   3.819  1.7494  1.0060 -0.6915
 9727TIP3   OH250671   5.647   6.545  15.388 -0.5758  0.3310 -0.2951
 9727TIP3    H150672   5.626   6.527  15.296 -0.7347 -1.0415 -0.0108
 9727TIP3    H250673   5.743   6.552  15.390 -0.4970 -0.5764 -0.4286
 9728TIP3   OH250674   1.725   2.927  15.836 -0.8276  0.1653 -0.5653
 9728TIP3    H150675   1.666   2.958  15.905 -1.4579 -1.2749 -0.4178
 9728TIP3    H250676   1.801   2.894  15.884 -1.6910 -1.7618 -0.4384
 9729TIP3   OH250677   6.392   2.173   5.418  0.3385  0.2636  0.0014
 9729TIP3    H150678   6.341   2.115   5.361 -0.3501 -0.1045  0.9657
 9729TIP3    H250679   6.376   2.261   5.384 -1.8290  0.2724  0.9129
 9730TIP3   OH250680   4.976   3.440   1.767 -0.0014  0.0093 -0.1202
 9730TIP3    H150681   4.912   3.499   1.726  1.6295  2.6334  0.8078
 9730TIP3    H250682   5.047   3.434   1.703  0.1893 -0.3132  0.1227
 9731TIP3   OH250683   5.724   4.052  14.679 -0.1866 -0.0055 -0.4223
 9731TIP3    H150684   5.707   4.000  14.601 -2.8339 -0.4279  0.3175
 9731TIP3    H250685   5.800   4.012  14.720  0.0662 -0.9693 -1.7937
 9732TIP3   OH250686   1.099   4.035  13.872  0.6161  0.2588 -0.1545
 9732TIP3    H150687   1.120   3.966  13.934  0.1478 -0.4130 -0.7260
 9732TIP3    H250688   1.165   4.028  13.804  0.2690  0.0260 -0.4753
 9733TIP3   OH250689   3.073   5.798  14.698  0.8578  0.0976 -0.0609
 9733TIP3    H150690   3.151   5.752  14.665  1.1634  1.0988 -0.7817
 9733TIP3    H250691   3.103   5.888  14.713  0.0776  0.2601  0.6072
 9734TIP3   OH250692   4.737   0.858  12.304 -0.1104  0.2419 -0.2720
 9734TIP3    H150693   4.696   0.792  12.248  2.9730 -1.2050 -1.0953
 9734TIP3    H250694   4.812   0.889  12.252  2.0635 -0.1333  2.4074
 9735TIP3   OH250695   1.058   3.627   4.156 -0.4841 -0.2111  1.2671
 9735TIP3    H150696   1.146   3.612   4.192  0.7421  4.7997  1.0940
 9735TIP3    H250697   1.011   3.671   4.227 -1.6190  0.3668  0.1830
 9736TIP3   OH250698   0.253   2.202  16.286 -0.4088  0.0565  0.1952
 9736TIP3    H150699   0.216   2.181  16.199 -0.3172  1.3031 -0.1566
 9736TIP3    H250700   0.325   2.262  16.268  1.6321 -2.0291  0.9107
 9737TIP3   OH250701   5.771   2.640   2.675 -0.0100  0.6936 -0.1656
 9737TIP3    H150702   5.683   2.679   2.671 -0.5659 -0.1733  2.0139
 9737TIP3    H250703   5.823   2.692   2.614 -2.1979  0.7587 -2.1007
 9738TIP3   OH250704   2.381   4.067   5.489 -0.4518 -0.1378  0.1458
 9738TIP3    H150705   2.409   4.140   5.544  0.2915 -0.4555  0.1868
 9738TIP3    H250706   2.400   4.095   5.399  0.6324 -0.6120  0.2104
 9739TIP3   OH250707   5.149   2.516   5.816  0.6538 -0.3481 -0.0250
 9739TIP3    H150708   5.155   2.606   5.784  1.6619 -0.1057  0.7917
 9739TIP3    H250709   5.056   2.501   5.827  0.3701  0.0821 -1.5809
 9740TIP3   OH250710   2.717   3.346   3.850  0.2105  0.0131 -0.6169
 9740TIP3    H150711   2.665   3.291   3.909 -0.6527  0.4868 -0.9180
 9740TIP3    H250712   2.754   3.414   3.906 -0.1596  0.1443 -0.5298
 9741TIP3   OH250713   5.145   2.341   3.538 -0.7865  0.1919  0.0656
 9741TIP3    H150714   5.196   2.416   3.506 -0.8575  0.0938 -0.2844
 9741TIP3    H250715   5.173   2.330   3.629  2.1525 -1.8001 -0.9482
 9742TIP3   OH250716   3.303   5.394   4.997 -0.3376  0.2300  0.5173
 9742TIP3    H150717   3.216   5.382   4.958  0.1462 -1.0366 -0.2340
 9742TIP3    H250718   3.288   5.384   5.091 -0.8681 -1.0443  0.3200
 9743TIP3   OH250719   4.641   1.069   1.144  0.4060  0.5683  0.5009
 9743TIP3    H150720   4.703   1.101   1.209  0.4920  1.2989  0.0787
 9743TIP3    H250721   4.563   1.124   1.156 -0.0367 -0.1113  0.7989
 9744TIP3   OH250722   4.554   1.669  11.538 -0.0748 -0.0337  0.4854
 9744TIP3    H150723   4.578   1.649  11.448 -0.0391 -0.1746  0.5262
 9744TIP3    H250724   4.471   1.716  11.531  0.7743  1.5126  0.2578
 9745TIP3   OH250725   6.089   1.355   5.698  0.3073  0.2425 -0.3501
 9745TIP3    H150726   6.073   1.294   5.769 -1.9613 -0.5869 -1.4575
 9745TIP3    H250727   6.048   1.437   5.727  2.0273  0.8612  0.4943
 9746TIP3   OH250728   1.794   0.031  15.229 -0.6805 -0.1702 -0.4234
 9746TIP3    H150729   1.755   0.021  15.142  1.3733 -0.5216 -1.3597
 9746TIP3    H250730   1.719   0.033  15.288 -2.1657  0.4973 -2.2199
 9747TIP3   OH250731   1.219   4.921   1.193 -0.2309 -0.3156  0.1552
 9747TIP3    H150732   1.310   4.896   1.206 -0.5840 -0.9084  1.7200
 9747TIP3    H250733   1.182   4.852   1.137  0.6754  0.8608 -2.0016
 9748TIP3   OH250734   1.786   6.679   2.349  0.2456  0.2625 -0.1518
 9748TIP3    H150735   1.853   6.626   2.307  0.7592  0.5611  0.2726
 9748TIP3    H250736   1.834   6.730   2.415 -0.4557  0.1958  0.4229
 9749TIP3   OH250737   1.785   6.029  11.112  0.4050 -0.6080 -0.2139
 9749TIP3    H150738   1.848   5.958  11.128  0.2933 -0.6400  0.0925
 9749TIP3    H250739   1.815   6.100  11.170  1.4187  0.1588 -1.6100
 9750TIP3   OH250740   2.084   0.258  14.856 -0.0063 -0.3874 -0.3545
 9750TIP3    H150741   2.090   0.199  14.781 -0.4212 -0.3130 -0.4521
 9750TIP3    H250742   2.104   0.203  14.932  1.4040 -0.2329 -0.6040
 9751TIP3   OH250743   4.394   0.201  14.548 -0.1857  0.3442  0.4013
 9751TIP3    H150744   4.455   0.263  14.508 -0.1713 -0.8791 -1.6243
 9751TIP3    H250745   4.318   0.201  14.489 -1.0824 -0.0171  1.5199
 9752TIP3   OH250746   1.568   5.111  16.270  0.1587 -0.0457 -0.3133
 9752TIP3    H150747   1.589   5.158  16.189 -0.9749  1.5670  0.2735
 9752TIP3    H250748   1.507   5.042  16.242 -0.2645  0.5274 -0.8462
 9753TIP3   OH250749   1.964   4.158   0.401  0.2400 -0.1510 -0.2769
 9753TIP3    H150750   1.976   4.080   0.347 -1.4973 -0.7421  0.1332
 9753TIP3    H250751   1.980   4.129   0.490  1.0406  0.3220 -0.2640
 9754TIP3   OH250752   4.074   1.406  13.485 -0.1645 -0.3059  0.2671
 9754TIP3    H150753   4.095   1.330  13.539 -0.4652 -1.3707 -1.0606
 9754TIP3    H250754   4.159   1.443  13.463  0.0367 -0.8810  0.0614
 9755TIP3   OH250755   4.810   3.293   0.386 -0.7889  0.3834 -0.6379
 9755TIP3    H150756   4.723   3.262   0.361 -1.0305  1.4596 -1.1721
 9755TIP3    H250757   4.815   3.382   0.351 -0.0394  0.8880  0.6988
 9756TIP3   OH250758   5.038   3.212  15.085 -0.1691 -0.1337  0.3429
 9756TIP3    H150759   4.969   3.224  15.020 -0.2596  0.0036  0.4668
 9756TIP3    H250760   5.073   3.300  15.100  1.9689 -0.4754 -1.8426
 9757TIP3   OH250761   6.321   4.936  11.797 -0.2915 -0.1229 -0.0430
 9757TIP3    H150762   6.231   4.969  11.803 -0.7455 -1.3600  0.5001
 9757TIP3    H250763   6.352   4.964  11.711 -0.6218  1.6670  0.3729
 9758TIP3   OH250764   6.066   0.169  13.099  0.2713  0.2324  0.4340
 9758TIP3    H150765   5.992   0.202  13.048 -1.6374 -0.2538  2.7081
 9758TIP3    H250766   6.116   0.248  13.122 -0.1552  0.6964 -0.1953
 9759TIP3   OH250767   5.034   3.786  16.861 -0.1262  0.2295  0.2640
 9759TIP3    H150768   4.954   3.803  16.911  0.1724  0.8467  0.5284
 9759TIP3    H250769   5.020   3.698  16.824 -0.6831  0.0958  0.7744
 9760TIP3   OH250770   3.856   3.271  14.875 -0.2972 -0.2273 -0.4371
 9760TIP3    H150771   3.781   3.272  14.934 -0.0028  0.2541 -0.0562
 9760TIP3    H250772   3.857   3.183  14.838 -0.7577 -0.3884 -0.0747
 9761TIP3   OH250773   1.368   2.803  11.569 -0.0621 -0.3293 -0.2703
 9761TIP3    H150774   1.452   2.758  11.561 -0.3875 -1.1459  0.6243
 9761TIP3    H250775   1.388   2.883  11.616  0.1310 -0.8587  0.5724
 9762TIP3   OH250776   0.581   5.939  17.412  0.7041  0.9055 -0.1933
 9762TIP3    H150777   0.569   5.852  17.374  0.4621 -0.6749  3.0822
 9762TIP3    H250778   0.673   5.942  17.436  0.3628  0.7975  1.2219
 9763TIP3   OH250779   1.375   1.956   5.223 -0.4603  0.5566 -0.2224
 9763TIP3    H150780   1.318   1.894   5.178 -0.3206 -0.6116  1.1341
 9763TIP3    H250781   1.377   1.925   5.313  3.0937 -0.0804 -0.3862
 9764TIP3   OH250782   1.281   1.963  15.156 -0.3220  0.1867  0.2707
 9764TIP3    H150783   1.309   2.042  15.109  0.0610  0.6727  1.2756
 9764TIP3    H250784   1.230   1.996  15.230 -2.1115 -0.6249 -0.5401
 9765TIP3   OH250785   0.007   5.876  14.925 -0.1331  0.3026  0.3601
 9765TIP3    H150786   0.093   5.908  14.953 -0.3804  0.5319  0.8845
 9765TIP3    H250787  -0.011   5.803  14.984 -1.3228  1.7299  1.8506
 9766TIP3   OH250788   6.159   1.267  12.787  0.5049 -0.5657  0.0900
 9766TIP3    H150789   6.252   1.247  12.781  1.1364  1.4548  1.9065
 9766TIP3    H250790   6.136   1.303  12.702  1.5572 -0.4470 -0.1554
 9767TIP3   OH250791   5.692   3.468   3.971 -0.4371 -0.2337  0.0697
 9767TIP3    H150792   5.622   3.475   3.906  0.7061 -1.5288 -1.3733
 9767TIP3    H250793   5.661   3.402   4.032 -0.8958 -0.0762  0.0111
 9768TIP3   OH250794   1.401   3.110   0.944  0.2619 -0.0395 -0.7900
 9768TIP3    H150795   1.486   3.120   0.985 -0.8123  0.2952  1.5426
 9768TIP3    H250796   1.373   3.022   0.969 -2.2190  1.5783  3.2058
 9769TIP3   OH250797   5.195   4.561   1.040 -0.6701  0.1951 -0.4505
 9769TIP3    H150798   5.101   4.555   1.026 -0.5909 -0.0461 -0.8959
 9769TIP3    H250799   5.216   4.653   1.024 -0.7235  0.1064 -1.0467
 9770TIP3   OH250800   4.697   6.367   2.725  0.3404 -0.0182  0.0045
 9770TIP3    H150801   4.648   6.358   2.643 -0.0635  1.7989 -0.0009
 9770TIP3    H250802   4.781   6.404   2.698 -0.4167  2.2558  0.4901
 9771TIP3   OH250803   5.790   4.352  15.597  0.5421  0.2900  0.0161
 9771TIP3    H150804   5.819   4.440  15.622 -0.3740  0.9120 -1.0416
 9771TIP3    H250805   5.804   4.347  15.502  0.5673 -0.7102  0.0532
 9772TIP3   OH250806   1.605   6.310   6.391 -0.5414  0.4402  0.1635
 9772TIP3    H150807   1.678   6.356   6.349 -0.1111 -1.0684 -0.8119
 9772TIP3    H250808   1.566   6.376   6.449  0.5928  1.7559 -0.4959
 9773TIP3   OH250809   2.263   2.784  12.943  0.6993 -0.1314 -0.3065
 9773TIP3    H150810   2.261   2.815  12.853 -0.9306 -1.7636 -0.8863
 9773TIP3    H250811   2.342   2.823  12.980  0.0936  2.6408 -1.6511
 9774TIP3   OH250812   5.056   6.254  17.289  0.2076 -0.4289  0.5567
 9774TIP3    H150813   4.982   6.308  17.264  1.1801 -0.1091 -1.9040
 9774TIP3    H250814   5.017   6.175  17.326 -1.3264  0.1244  0.1748
 9775TIP3   OH250815   3.402   3.846  12.908  0.7263 -0.1567 -0.2471
 9775TIP3    H150816   3.424   3.930  12.948  0.3276 -0.5688  0.8900
 9775TIP3    H250817   3.330   3.866  12.848 -1.9215 -0.1621  2.6763
 9776TIP3   OH250818   0.377   3.186  12.815 -0.0633 -0.2006  0.1486
 9776TIP3    H150819   0.309   3.219  12.757 -1.4540 -2.0738  0.5966
 9776TIP3    H250820   0.438   3.259  12.826 -0.5816  0.6911 -2.3889
 9777TIP3   OH250821   2.145   2.263  16.468  0.1640  0.0833  0.2031
 9777TIP3    H150822   2.082   2.293  16.402  1.3846  0.2729 -0.9210
 9777TIP3    H250823   2.219   2.230  16.417  1.0830  0.0770  1.4944
 9778TIP3   OH250824   6.473   0.234  15.038  0.6052  0.1996  0.4428
 9778TIP3    H150825   6.555   0.229  15.087  1.7342  0.1732 -1.3503
 9778TIP3    H250826   6.414   0.173  15.082  1.7518 -0.2629  1.3784
 9779TIP3   OH250827   6.666   6.118   0.474 -0.7541 -0.1196  0.2081
 9779TIP3    H150828   6.671   6.023   0.488 -0.9922 -0.0484  0.8108
 9779TIP3    H250829   6.588   6.145   0.523 -0.4067  0.4611  0.4486
 9780TIP3   OH250830   5.410   5.177  11.426 -0.0573 -0.3224 -1.0878
 9780TIP3    H150831   5.410   5.263  11.468  0.2511 -0.2182 -1.2959
 9780TIP3    H250832   5.376   5.194  11.338 -1.2079 -0.6258 -0.7206
 9781TIP3   OH250833   6.548   2.853  13.523 -0.1211 -0.0767 -0.2657
 9781TIP3    H150834   6.566   2.871  13.615  0.0363  0.6520 -0.4390
 9781TIP3    H250835   6.502   2.768  13.524 -3.2188  1.4540  0.7987
 9782TIP3   OH250836   5.430   0.358   0.504  0.2528 -0.0522 -0.1257
 9782TIP3    H150837   5.453   0.318   0.420  1.4808 -0.7487  0.5183
 9782TIP3    H250838   5.457   0.449   0.496 -0.9216  0.2586 -0.9589
 9783TIP3   OH250839   4.874   2.208   5.382  0.3735  0.2507  0.0669
 9783TIP3    H150840   4.781   2.195   5.399  0.3468 -0.6610 -0.6750
 9783TIP3    H250841   4.883   2.194   5.288  1.6499 -2.3056  0.4720
 9784TIP3   OH250842   3.395   4.346  15.717  0.1470 -0.7300 -0.5574
 9784TIP3    H150843   3.373   4.429  15.674 -0.1112 -0.8434 -0.6485
 9784TIP3    H250844   3.317   4.325  15.769  0.5133 -0.5154  0.0906
 9785TIP3   OH250845   3.530   6.440   3.826  0.5829  0.2739 -0.5182
 9785TIP3    H150846   3.453   6.391   3.855  0.2875  0.4016 -1.0607
 9785TIP3    H250847   3.497   6.528   3.807  0.7708  0.2132 -1.1625
 9786TIP3   OH250848   3.602   2.805   6.523 -0.5087 -0.2574 -0.1694
 9786TIP3    H150849   3.643   2.876   6.473 -2.2755  1.8439  1.1920
 9786TIP3    H250850   3.655   2.798   6.603 -0.2070 -0.6830 -0.3965
 9787TIP3   OH250851   1.371   3.184  15.068  0.2945 -0.3704  0.6760
 9787TIP3    H150852   1.316   3.256  15.038  0.0270 -0.3786  1.1255
 9787TIP3    H250853   1.460   3.209  15.043  0.2798  0.4014  1.3491
 9788TIP3   OH250854   2.477   6.051  14.269 -0.1630  0.4373  0.5376
 9788TIP3    H150855   2.485   5.960  14.300  0.9400  0.2914 -0.1039
 9788TIP3    H250856   2.384   6.071  14.277 -0.8023 -1.4628 -1.2337
 9789TIP3   OH250857   0.689   3.380  11.785 -0.2186 -0.6423 -0.5210
 9789TIP3    H150858   0.604   3.410  11.754 -1.0565 -1.8404  0.5192
 9789TIP3    H250859   0.747   3.392  11.710 -0.9568  1.4408 -0.8453
 9790TIP3   OH250860   3.857   4.378   3.402 -0.1360 -0.0591 -0.1946
 9790TIP3    H150861   3.935   4.400   3.351  0.4954 -1.3848  0.1557
 9790TIP3    H250862   3.809   4.317   3.346  0.2180 -0.9845  0.4927
 9791TIP3   OH250863   1.139   5.932  16.017  0.0053 -0.8427  0.0354
 9791TIP3    H150864   1.116   5.946  15.925 -1.0750 -1.8554  0.1229
 9791TIP3    H250865   1.098   5.848  16.039 -0.7056 -0.0974  1.7469
 9792TIP3   OH250866   1.905   4.229   2.067  0.0059  0.1258  0.5752
 9792TIP3    H150867   1.887   4.154   2.124 -0.4409  0.3621  0.7514
 9792TIP3    H250868   1.981   4.202   2.015  1.1077  0.2914  2.0088
 9793TIP3   OH250869   0.621   4.430   6.978 -0.4595 -0.4807 -0.0043
 9793TIP3    H150870   0.697   4.373   6.991  0.2707  0.1549 -1.3294
 9793TIP3    H250871   0.657   4.510   6.940 -1.7531 -0.0310 -0.3196
 9794TIP3   OH250872   1.715   2.228   5.796 -0.8693  1.0904 -0.1655
 9794TIP3    H150873   1.793   2.180   5.825 -1.2020 -0.6242 -1.9081
 9794TIP3    H250874   1.750   2.311   5.763  0.3218  0.2304 -1.2127
 9795TIP3   OH250875   5.104   4.341   5.084  0.3034  0.2199  0.0045
 9795TIP3    H150876   5.094   4.280   5.012 -1.0610 -0.8471  1.0389
 9795TIP3    H250877   5.194   4.374   5.076  1.3133 -2.3484 -0.2793
 9796TIP3   OH250878   6.427   4.819  12.610 -0.5386  0.1002  0.0308
 9796TIP3    H150879   6.379   4.738  12.596 -2.4653  1.4539 -1.9556
 9796TIP3    H250880   6.380   4.863  12.680 -1.4362  0.7930 -0.9604
 9797TIP3   OH250881   5.567   0.077   4.188 -0.0556 -0.6897 -0.1671
 9797TIP3    H150882   5.556   0.169   4.163  1.8223 -0.1947  0.6247
 9797TIP3    H250883   5.490   0.057   4.241 -0.5455  0.3912 -0.4528
 9798TIP3   OH250884   5.846   1.881   6.518 -0.4968  0.2605  0.4952
 9798TIP3    H150885   5.813   1.919   6.600 -1.6168 -0.8083  0.5515
 9798TIP3    H250886   5.774   1.887   6.457 -0.2416 -0.5305  0.0996
 9799TIP3   OH250887   4.953   4.077  16.132  0.1168  0.5397 -0.1703
 9799TIP3    H150888   4.866   4.042  16.152  0.1342  1.2306  1.2522
 9799TIP3    H250889   4.958   4.158  16.183  1.6163  0.4748 -0.1860
 9800TIP3   OH250890   3.221   4.147   7.144 -0.5901  0.2604  0.4845
 9800TIP3    H150891   3.193   4.057   7.134 -2.0959  0.9716 -4.2757
 9800TIP3    H250892   3.315   4.142   7.162 -0.1604 -2.3295 -1.9007
 9801TIP3   OH250893   4.542   0.369  17.321 -0.4638  0.4726  0.2520
 9801TIP3    H150894   4.587   0.380  17.405  0.5280  1.6109 -0.3988
 9801TIP3    H250895   4.564   0.280  17.294 -0.5043  0.2164  1.0316
 9802TIP3   OH250896   2.879   5.752  11.388  0.1028 -0.2856  0.4227
 9802TIP3    H150897   2.878   5.768  11.294  0.8930 -0.8321  0.3095
 9802TIP3    H250898   2.791   5.775  11.418 -0.4979 -1.1518 -0.6220
 9803TIP3   OH250899   2.355   2.179  14.157 -0.1488  0.4482  0.3135
 9803TIP3    H150900   2.436   2.157  14.203 -0.4903  0.4109  0.9056
 9803TIP3    H250901   2.363   2.135  14.072  0.7236  0.9590  0.1192
 9804TIP3   OH250902   6.737   4.991  11.186 -0.6439  0.6719  0.0969
 9804TIP3    H150903   6.671   5.033  11.131 -1.3250  0.8467  1.0140
 9804TIP3    H250904   6.706   4.901  11.196 -2.0540  1.3108  2.3918
 9805TIP3   OH250905   3.756   4.954   6.655  0.3649 -0.5152 -0.1590
 9805TIP3    H150906   3.688   5.017   6.678  1.5605  0.0590  2.0159
 9805TIP3    H250907   3.715   4.898   6.588 -1.2315  1.5715 -1.0285
 9806TIP3   OH250908   0.159   3.802   4.256  0.0502  0.1286  0.0178
 9806TIP3    H150909   0.233   3.743   4.241  1.0262  0.4785  2.8198
 9806TIP3    H250910   0.150   3.806   4.352 -2.7536  1.1713 -0.1697
 9807TIP3   OH250911   5.485   1.452   2.588  0.4866  0.2121  0.0113
 9807TIP3    H150912   5.535   1.374   2.611  1.8241  0.5222 -1.6688
 9807TIP3    H250913   5.440   1.477   2.670 -1.1623 -3.0804  0.2588
 9808TIP3   OH250914   3.014   1.989  12.509 -0.2722 -0.1744 -0.0581
 9808TIP3    H150915   3.004   1.896  12.528  1.3914 -0.5129 -0.6983
 9808TIP3    H250916   3.065   2.023  12.582  1.9071 -0.4780 -1.3484
 9809TIP3   OH250917   5.958   3.433   5.607  0.9210  0.2141 -0.3977
 9809TIP3    H150918   6.036   3.455   5.556  1.1431  0.5666  0.0826
 9809TIP3    H250919   5.886   3.447   5.547  1.1586  0.9559 -0.5229
 9810TIP3   OH250920   5.128   0.126  16.762  0.2016  0.1880 -0.8580
 9810TIP3    H150921   5.218   0.116  16.793  0.4865  2.5210 -0.7574
 9810TIP3    H250922   5.074   0.094  16.835  0.9400  1.3098  0.2333
 9811TIP3   OH250923   3.006   2.125   0.551 -0.0301  0.2401  0.8977
 9811TIP3    H150924   2.916   2.157   0.555 -0.6342 -1.3928  1.2088
 9811TIP3    H250925   3.020   2.083   0.636  2.0634  2.9598  2.0586
 9812TIP3   OH250926   4.557   3.279  14.693 -0.1893  0.4801 -0.0150
 9812TIP3    H150927   4.480   3.292  14.749 -1.4216  0.8559 -1.7107
 9812TIP3    H250928   4.589   3.368  14.676  1.2661  0.2845  1.4731
 9813TIP3   OH250929   5.479   3.954  14.756 -0.0602  0.1454 -0.2379
 9813TIP3    H150930   5.530   3.892  14.808  0.3918 -0.4150 -1.3401
 9813TIP3    H250931   5.543   4.020  14.729 -0.6755  1.6042  1.6005
 9814TIP3   OH250932   3.545   2.153   4.143 -0.3454 -0.4536  0.3730
 9814TIP3    H150933   3.560   2.092   4.071 -0.8310  1.3702 -1.3591
 9814TIP3    H250934   3.576   2.106   4.221  2.5997 -1.5879 -1.2946
 9815TIP3   OH250935   3.948   5.626  12.448 -0.4232  0.2617 -0.0329
 9815TIP3    H150936   4.033   5.665  12.426 -0.5708  0.6178  0.0324
 9815TIP3    H250937   3.890   5.651  12.376 -0.9311  1.5095  0.7721
 9816TIP3   OH250938   0.779   2.397   4.290 -0.1186 -0.4071 -0.2179
 9816TIP3    H150939   0.807   2.455   4.361  1.7457 -0.5604 -0.7704
 9816TIP3    H250940   0.725   2.452   4.234 -0.0666  0.2292  0.3462
 9817TIP3   OH250941   1.103   3.509  14.486  0.3986 -0.7234 -0.2404
 9817TIP3    H150942   1.143   3.564  14.418 -0.4805 -1.6117 -1.5167
 9817TIP3    H250943   1.009   3.510  14.466  0.2927 -2.2265  0.0489
 9818TIP3   OH250944   3.518   5.292  14.250 -0.2474 -0.3090 -0.2752
 9818TIP3    H150945   3.426   5.273  14.267 -0.2947  0.4733  0.3716
 9818TIP3    H250946   3.525   5.387  14.257  0.6871 -0.3938  0.0822
 9819TIP3   OH250947   2.582   6.282  11.436 -0.1553  0.2553 -0.3322
 9819TIP3    H150948   2.518   6.285  11.507 -1.0211 -0.8075 -1.0437
 9819TIP3    H250949   2.666   6.294  11.480 -0.6061 -1.0613  0.9885
 9820TIP3   OH250950   2.442   3.316   5.004  0.2122  0.3238 -0.0698
 9820TIP3    H150951   2.376   3.305   5.072 -0.5638  2.1784 -0.4664
 9820TIP3    H250952   2.409   3.265   4.930  0.3577 -0.5670  0.4726
 9821TIP3   OH250953   4.918   6.114  15.772  0.3886  0.3442  0.3021
 9821TIP3    H150954   4.898   6.197  15.727  1.9153  0.2970 -0.5474
 9821TIP3    H250955   4.922   6.138  15.864 -2.4761  0.5189  0.4770
 9822TIP3   OH250956   0.240   4.929  11.498 -0.3376  0.2625  0.3608
 9822TIP3    H150957   0.269   4.940  11.408 -1.1178 -0.6604 -0.0214
 9822TIP3    H250958   0.178   5.000  11.512 -0.1005  0.4990  0.2234
 9823TIP3   OH250959   6.554   3.804   6.498  0.1965  0.5572  0.2491
 9823TIP3    H150960   6.624   3.842   6.551 -1.2505  1.0110  1.9407
 9823TIP3    H250961   6.563   3.844   6.412  1.3862  1.3743  0.7402
 9824TIP3   OH250962   3.059   2.684  15.090  0.3547  0.4125  0.7648
 9824TIP3    H150963   3.072   2.738  15.013  0.1866  0.1284  0.5342
 9824TIP3    H250964   3.046   2.746  15.162 -1.1654  0.6904  0.2844
 9825TIP3   OH250965   6.622   3.076   3.048  0.6119 -0.0350  0.2778
 9825TIP3    H150966   6.713   3.048   3.060  0.6495 -1.0072 -1.7670
 9825TIP3    H250967   6.629   3.170   3.029  1.2527 -0.1763 -0.2487
 9826TIP3   OH250968   1.100   4.487   0.726  0.4792  0.1207 -0.4491
 9826TIP3    H150969   1.074   4.510   0.815 -0.6267  1.6844 -1.1410
 9826TIP3    H250970   1.188   4.524   0.716  0.1283  0.9837 -0.3920
 9827TIP3   OH250971   0.315   3.904  13.307 -0.1360  0.1413  0.4723
 9827TIP3    H150972   0.291   3.982  13.257  0.6900  0.0151 -0.1419
 9827TIP3    H250973   0.263   3.909  13.387 -2.8845 -0.5607 -1.1400
 9828TIP3   OH250974   4.769   3.421  15.728  0.7774 -0.3249  0.4558
 9828TIP3    H150975   4.759   3.449  15.819  1.0495 -0.5807  0.5655
 9828TIP3    H250976   4.781   3.326  15.733 -3.3485 -1.0570 -0.1084
 9829TIP3   OH250977   6.395   6.534   2.647 -0.1637  0.0828  0.4222
 9829TIP3    H150978   6.320   6.477   2.626  0.3090 -0.1894 -0.5653
 9829TIP3    H250979   6.402   6.593   2.573 -0.9905  1.8547  1.6851
 9830TIP3   OH250980   4.470   4.742   4.145  0.3138  0.1988 -0.2904
 9830TIP3    H150981   4.463   4.834   4.171 -1.0923 -0.2388  1.0240
 9830TIP3    H250982   4.389   4.725   4.097 -0.2453 -0.7727  0.9560
 9831TIP3   OH250983   6.037   1.948   3.592 -0.1783  0.1314  0.0632
 9831TIP3    H150984   5.992   1.867   3.571 -0.0881  0.1582 -0.2425
 9831TIP3    H250985   5.984   2.017   3.553 -0.9156  0.3323  1.3638
 9832TIP3   OH250986   6.111   4.171   3.099 -0.4546  0.6459 -0.7528
 9832TIP3    H150987   6.138   4.139   3.013  0.7736 -0.5029  0.0237
 9832TIP3    H250988   6.136   4.101   3.159 -1.8898  1.1406  0.4804
 9833TIP3   OH250989   2.886   4.520   1.499  0.0465  0.1141  0.0534
 9833TIP3    H150990   2.869   4.580   1.427 -2.7187  1.4729  1.6628
 9833TIP3    H250991   2.890   4.576   1.576  2.4678 -1.3326  1.0768
 9834TIP3   OH250992   5.793   5.142  13.844  0.3471  0.1377 -0.4477
 9834TIP3    H150993   5.714   5.148  13.789 -0.6327 -0.1830  0.8654
 9834TIP3    H250994   5.829   5.230  13.845  1.0243 -0.0672 -2.4669
 9835TIP3   OH250995   3.451   6.630   4.049 -0.1049 -0.0480  0.3367
 9835TIP3    H150996   3.360   6.636   4.080  0.4312 -1.2549  2.2902
 9835TIP3    H250997   3.457   6.696   3.979 -2.3288  0.4054  0.5028
 9836TIP3   OH250998   3.223   4.906   3.658  0.2501  0.3326 -0.1339
 9836TIP3    H150999   3.245   4.973   3.593  3.6168 -0.5391 -0.0578
 9836TIP3    H251000   3.232   4.950   3.742 -0.5016  0.5037 -0.1312
 9837TIP3   OH251001   3.000   2.919   3.909  0.0859  0.7932 -0.1812
 9837TIP3    H151002   2.923   2.864   3.921  0.4583  0.3064 -0.0002
 9837TIP3    H251003   3.025   2.945   3.998 -1.1838  2.8122 -0.3403
 9838TIP3   OH251004   5.626   5.483  13.724  0.0473 -0.1976 -0.4880
 9838TIP3    H151005   5.593   5.572  13.711 -0.2420 -0.0618  1.0214
 9838TIP3    H251006   5.712   5.494  13.763 -0.9716 -0.5288  2.0240
 9839TIP3   OH251007   4.160   1.436  12.068 -0.0955 -0.6818  0.1467
 9839TIP3    H151008   4.221   1.367  12.092 -0.3242 -1.1479 -0.5809
 9839TIP3    H251009   4.183   1.509  12.125  1.2319 -0.8067 -0.1855
 9840TIP3   OH251010   3.139   5.398   2.798 -0.5646  0.3698 -0.3035
 9840TIP3    H151011   3.200   5.432   2.863 -0.7977  1.2190 -0.5241
 9840TIP3    H251012   3.195   5.355   2.734 -0.1365  1.6585 -0.8190
 9841TIP3   OH251013   5.178   4.748   4.474  0.2655  0.2197  0.5754
 9841TIP3    H151014   5.266   4.776   4.450  0.4746 -0.5393  0.4077
 9841TIP3    H251015   5.159   4.675   4.415  0.2742 -0.8331  1.8270
 9842TIP3   OH251016   2.002   4.970   3.759  0.2041  0.4739 -0.1673
 9842TIP3    H151017   1.942   5.004   3.826 -1.9256 -2.3956 -0.4110
 9842TIP3    H251018   2.087   4.969   3.801 -0.5774  1.3625  1.5225
 9843TIP3   OH251019   5.679   4.673  13.450  0.1148  0.3035 -0.2819
 9843TIP3    H151020   5.764   4.628  13.447  0.4113  0.8935 -1.3571
 9843TIP3    H251021   5.635   4.646  13.369 -0.6801  0.1067  0.2065
 9844TIP3   OH251022   0.789   1.909  11.947 -0.1499  0.0148 -0.2857
 9844TIP3    H151023   0.818   1.974  12.011  0.2274 -0.2693 -0.1599
 9844TIP3    H251024   0.868   1.857  11.928  0.0490  0.8264 -1.8649
 9845TIP3   OH251025   5.591   3.891   6.964 -0.0786  0.0210 -0.1098
 9845TIP3    H151026   5.502   3.862   6.941  0.1080 -1.1181  0.5241
 9845TIP3    H251027   5.577   3.954   7.035 -0.3561 -0.6337  0.4277
 9846TIP3   OH251028   5.283   3.072  16.288 -0.4769 -0.0344 -0.5365
 9846TIP3    H151029   5.272   3.165  16.308  0.0299  0.0398 -0.5860
 9846TIP3    H251030   5.377   3.061  16.275 -0.6128 -0.4007 -1.2869
 9847TIP3   OH251031   5.280   1.682  16.304 -0.3991  0.8633  0.0627
 9847TIP3    H151032   5.299   1.772  16.331  1.2977  0.9241 -1.1941
 9847TIP3    H251033   5.191   1.666  16.336 -0.3673  2.6331  1.1750
 9848TIP3   OH251034   6.726   1.551  16.653 -0.1562 -0.3407 -0.4227
 9848TIP3    H151035   6.703   1.519  16.566 -0.7428  0.6067 -0.6281
 9848TIP3    H251036   6.820   1.563  16.651  0.2399 -2.8097 -0.0724
 9849TIP3   OH251037   5.045   3.176   5.038 -0.6003  0.2415  0.6774
 9849TIP3    H151038   4.969   3.146   4.988  0.3492 -0.5354 -0.3537
 9849TIP3    H251039   5.106   3.207   4.972 -0.2422  1.4457  1.5349
 9850TIP3   OH251040   1.211   0.861  16.429 -0.2136 -0.4207 -1.0406
 9850TIP3    H151041   1.131   0.842  16.478 -1.4974  0.1860 -2.7967
 9850TIP3    H251042   1.264   0.783  16.439 -0.2702 -0.2078  1.5249
 9851TIP3   OH251043   0.332   4.075   1.380 -0.2672 -0.3759  0.5030
 9851TIP3    H151044   0.383   4.101   1.456  0.1832 -1.4848  0.5935
 9851TIP3    H251045   0.394   4.074   1.308  0.1337 -2.7421  0.8078
 9852TIP3   OH251046   5.236   5.317   2.702 -0.1941  0.5042 -0.0602
 9852TIP3    H151047   5.189   5.235   2.714  1.5543 -1.2823 -3.9783
 9852TIP3    H251048   5.312   5.310   2.761  0.3232 -1.1003 -0.8581
 9853TIP3   OH251049   3.364   3.399  13.191 -0.2568 -0.1506 -0.0564
 9853TIP3    H151050   3.274   3.370  13.208 -0.1562 -1.0940 -1.0269
 9853TIP3    H251051   3.358   3.448  13.109 -0.2591  1.8368  1.0702
 9854TIP3   OH251052   0.004   3.990  13.276 -0.1555  0.1482  0.8269
 9854TIP3    H151053   0.067   3.932  13.233 -1.5982 -1.2317  0.4569
 9854TIP3    H251054   0.034   4.078  13.255  0.5724 -0.4797 -0.9553
 9855TIP3   OH251055   2.410   0.687  16.619 -0.3314  0.1546 -0.1654
 9855TIP3    H151056   2.337   0.669  16.678 -0.6927  0.8406 -0.3899
 9855TIP3    H251057   2.378   0.662  16.532 -1.0698  2.3291 -0.5800
 9856TIP3   OH251058   1.433   0.319   6.681  0.0936 -0.1753 -0.3615
 9856TIP3    H151059   1.500   0.252   6.695 -0.2098 -0.5803 -0.8023
 9856TIP3    H251060   1.481   0.393   6.645  0.4503 -0.1130  0.2389
 9857TIP3   OH251061   3.350   6.580   0.495 -0.8585  0.1222 -0.1622
 9857TIP3    H151062   3.432   6.622   0.519 -1.1596  0.8699 -0.4246
 9857TIP3    H251063   3.282   6.639   0.526 -1.3417 -0.9128  0.8467
 9858TIP3   OH251064   6.426   4.479   0.024 -0.4836 -0.0597 -0.1511
 9858TIP3    H151065   6.349   4.435  -0.011  1.0276 -1.6933 -1.5871
 9858TIP3    H251066   6.491   4.474  -0.045  1.1122  0.8081  1.2035
 9859TIP3   OH251067   5.269   5.396  12.648  0.2890 -0.2745  0.6909
 9859TIP3    H151068   5.304   5.328  12.705  2.0381  1.2641  1.5453
 9859TIP3    H251069   5.236   5.463  12.707 -2.4716 -0.7890 -0.1185
 9860TIP3   OH251070   2.383   1.999  15.053 -0.1454  0.0042  0.1615
 9860TIP3    H151071   2.401   1.970  15.142  0.1826 -0.5674 -0.0863
 9860TIP3    H251072   2.370   2.094  15.061  0.2017  0.0062  0.7655
 9861TIP3   OH251073   5.841   0.117  11.031  0.1452 -0.0302  0.8188
 9861TIP3    H151074   5.747   0.120  11.016  0.0964 -1.2929  0.7735
 9861TIP3    H251075   5.850   0.078  11.118  0.6340 -0.4651  0.5807
 9862TIP3   OH251076   3.682   5.315   5.229  0.2856  0.7199 -0.0840
 9862TIP3    H151077   3.665   5.227   5.195 -0.6014  0.7353  0.2943
 9862TIP3    H251078   3.677   5.306   5.324  0.9997  1.0263 -0.0073
 9863TIP3   OH251079   0.833   3.009  15.021  0.2979  0.4550  0.3978
 9863TIP3    H151080   0.812   3.092  14.980 -0.3686 -0.6604 -1.6778
 9863TIP3    H251081   0.927   2.998  15.007  0.1366  0.2429 -0.5750
 9864TIP3   OH251082   3.937   2.555  15.363 -0.5727 -0.1195 -0.2226
 9864TIP3    H151083   3.888   2.569  15.282 -0.9414 -0.5622 -0.0823
 9864TIP3    H251084   3.947   2.460  15.369 -1.1923 -0.1481  0.6186
 9865TIP3   OH251085   3.352   2.878  12.541  0.0531  0.3343  0.5253
 9865TIP3    H151086   3.299   2.882  12.462 -1.1973 -1.1698  1.2293
 9865TIP3    H251087   3.408   2.801  12.529 -0.9041 -0.5501  1.5106
 9866TIP3   OH251088   1.036   2.655  16.027 -0.0083 -0.2373  0.5621
 9866TIP3    H151089   0.977   2.715  15.982 -0.9759 -0.8050  1.0102
 9866TIP3    H251090   1.094   2.711  16.078  0.4145  0.3648 -0.5642
 9867TIP3   OH251091   1.645   4.450   4.843  0.0548  0.1576  0.6462
 9867TIP3    H151092   1.725   4.462   4.792  0.7422  0.4347  1.7451
 9867TIP3    H251093   1.651   4.516   4.912  1.0612 -2.5793  3.3892
 9868TIP3   OH251094   4.966   4.003   6.552 -0.6733  0.9579  0.0687
 9868TIP3    H151095   4.985   4.054   6.631 -0.4101 -1.0405  1.3593
 9868TIP3    H251096   4.910   3.932   6.582 -0.4503  0.0641 -1.5147
 9869TIP3   OH251097   0.403   3.236   1.166 -0.3310  0.1054  0.5728
 9869TIP3    H151098   0.366   3.320   1.195 -0.5047  1.4610 -3.1380
 9869TIP3    H251099   0.493   3.237   1.199 -0.6300  1.2648  1.4319
 9870TIP3   OH251100   3.846   3.970   1.951 -0.3763  0.3881  0.1981
 9870TIP3    H151101   3.795   3.894   1.981  0.3613 -0.8838 -1.5784
 9870TIP3    H251102   3.938   3.944   1.965 -0.1243  1.2904  0.2925
 9871TIP3   OH251103   3.773   0.096  13.644  0.6955  0.5652 -0.2724
 9871TIP3    H151104   3.754   0.146  13.723 -1.8633 -2.3996  1.2155
 9871TIP3    H251105   3.732   0.146  13.573 -0.5944  1.2718  0.9276
 9872TIP3   OH251106   0.019   5.671   0.913  0.1388 -0.5163 -0.6296
 9872TIP3    H151107   0.082   5.705   0.850  0.4619  0.5091  0.2067
 9872TIP3    H251108  -0.054   5.733   0.909  0.4521 -0.0518  0.4531
 9873TIP3   OH251109   1.020   5.569  12.927  0.1802 -0.3731  0.1107
 9873TIP3    H151110   1.058   5.561  12.839 -1.8476 -0.7114 -0.7917
 9873TIP3    H251111   1.049   5.490  12.972  1.3410 -0.1409 -0.2079
 9874TIP3   OH251112   1.113   5.214  11.516 -0.2903  0.0233 -0.3267
 9874TIP3    H151113   1.100   5.304  11.545  0.6060  0.4563 -1.2196
 9874TIP3    H251114   1.185   5.219  11.453 -0.7166 -1.2158 -0.9380
 9875TIP3   OH251115   5.557   2.016   5.419  0.0150 -0.0390 -0.2350
 9875TIP3    H151116   5.512   1.936   5.392  1.3883 -1.0776  0.4694
 9875TIP3    H251117   5.552   2.015   5.515  0.8504  0.2272 -0.1824
 9876TIP3   OH251118   2.474   0.745  14.542  0.0090  0.2970 -1.0928
 9876TIP3    H151119   2.474   0.717  14.450  0.1086  0.5322 -1.1664
 9876TIP3    H251120   2.562   0.727  14.573 -0.9268 -3.1255  0.0133
 9877TIP3   OH251121   4.991   6.729  17.209 -0.5195 -0.6816  0.1682
 9877TIP3    H151122   5.027   6.804  17.257 -0.9503  1.5097 -2.6303
 9877TIP3    H251123   4.922   6.696  17.265 -0.6663  1.3970  1.3304
 9878TIP3   OH251124   6.401   5.279  16.297 -0.6871  0.2115  0.3634
 9878TIP3    H151125   6.459   5.230  16.239 -1.3018 -0.0965  0.0018
 9878TIP3    H251126   6.313   5.260  16.265 -1.0173  0.3366  1.1628
 9879TIP3   OH251127   6.416   5.686  15.780 -0.2524 -0.2673  0.8293
 9879TIP3    H151128   6.436   5.669  15.872  0.1878 -0.7418  0.6532
 9879TIP3    H251129   6.321   5.691  15.777 -0.2226  1.7126  1.6382
 9880TIP3   OH251130   3.422   5.575   0.872  0.0963  0.4935  0.0981
 9880TIP3    H151131   3.402   5.617   0.788  2.8570  2.5268  0.3006
 9880TIP3    H251132   3.350   5.602   0.929 -1.2550 -0.0199 -1.2699
 9881TIP3   OH251133   2.712   6.098   3.112  0.9538  0.4584  0.3750
 9881TIP3    H151134   2.633   6.077   3.162  1.7041 -0.8890  1.0438
 9881TIP3    H251135   2.710   6.193   3.102  0.7887  0.8111  3.0183
 9882TIP3   OH251136   5.674   0.425  13.668 -0.1855 -0.1958  0.2805
 9882TIP3    H151137   5.619   0.456  13.596 -1.3777 -0.3809  1.0708
 9882TIP3    H251138   5.615   0.422  13.744  0.5542 -1.7703  0.8465
 9883TIP3   OH251139   2.178   0.243  17.070  0.3758 -0.1706  0.0535
 9883TIP3    H151140   2.088   0.212  17.081  0.3058  0.3962  1.2774
 9883TIP3    H251141   2.230   0.163  17.058 -0.0971 -0.6117  0.8433
 9884TIP3   OH251142   5.562   5.895   0.812  0.3449  0.2999 -0.9397
 9884TIP3    H151143   5.641   5.843   0.801  1.5312  1.3506  1.6468
 9884TIP3    H251144   5.593   5.976   0.852 -2.1176  0.1231  1.6711
 9885TIP3   OH251145   5.233   3.309   3.872  0.3638 -0.1796 -0.5540
 9885TIP3    H151146   5.305   3.367   3.893  1.0529 -0.8825 -0.9079
 9885TIP3    H251147   5.224   3.314   3.777 -1.1458  1.1394 -0.3894
 9886TIP3   OH251148   0.920   1.000  13.551  0.3134  0.5405 -0.3408
 9886TIP3    H151149   0.940   1.086  13.589  0.2423  0.2612  0.3343
 9886TIP3    H251150   0.987   0.942  13.587  1.4518  0.6392 -2.1505
 9887TIP3   OH251151   4.842   5.619  15.664 -0.5496 -0.3857 -0.7507
 9887TIP3    H151152   4.753   5.602  15.697 -0.6847  0.5743 -0.6064
 9887TIP3    H251153   4.852   5.714  15.669  0.2845 -0.4359 -1.3019
 9888TIP3   OH251154   0.236   1.426   3.052 -0.3940  0.3225  0.0688
 9888TIP3    H151155   0.150   1.386   3.070 -0.1424 -0.5272 -0.6132
 9888TIP3    H251156   0.277   1.368   2.989  0.8093  0.5813  0.6003
 9889TIP3   OH251157   0.062   4.214   5.109  0.1836  0.2606  0.3026
 9889TIP3    H151158  -0.000   4.278   5.144  0.6875 -0.1156  1.9680
 9889TIP3    H251159   0.146   4.260   5.109  0.3653 -0.0705  0.5194
 9890TIP3   OH251160   5.847   5.132   7.101  0.4271 -0.0745 -0.2234
 9890TIP3    H151161   5.896   5.050   7.093  0.4573 -0.1940  1.0400
 9890TIP3    H251162   5.914   5.199   7.112  0.3544 -0.0826  0.2906
 9891TIP3   OH251163   2.541   0.541   0.522  0.0901 -0.3181  0.1076
 9891TIP3    H151164   2.563   0.449   0.537  1.4908 -0.0142  0.0892
 9891TIP3    H251165   2.614   0.575   0.471 -1.4287  0.2982 -1.7855
 9892TIP3   OH251166   2.324   0.903   1.879 -0.2824 -0.3242  0.8765
 9892TIP3    H151167   2.251   0.888   1.940 -0.2985 -0.3842  0.8424
 9892TIP3    H251168   2.317   0.996   1.856 -2.9714 -1.1384 -2.4721
 9893TIP3   OH251169   0.346   0.549   4.557  0.2208  0.3640 -0.3711
 9893TIP3    H151170   0.417   0.543   4.621  0.7465  2.2404 -0.7165
 9893TIP3    H251171   0.391   0.556   4.472 -0.4612 -2.7619 -1.1208
 9894TIP3   OH251172   0.212   1.917  14.062 -0.0874 -0.0034  0.4338
 9894TIP3    H151173   0.287   1.965  14.098 -1.1341  1.8516  0.2687
 9894TIP3    H251174   0.242   1.887  13.976  0.4748  0.6552  0.3918
 9895TIP3   OH251175   4.629   1.520  13.786 -0.3752 -0.4801  0.6338
 9895TIP3    H151176   4.663   1.446  13.835 -1.0290  0.5881  2.8402
 9895TIP3    H251177   4.540   1.533  13.820 -0.4215  1.0715  0.0332
 9896TIP3   OH251178   1.847   3.725  13.170  0.7789 -0.3815  0.1538
 9896TIP3    H151179   1.834   3.772  13.253  0.9412  3.1871 -1.6837
 9896TIP3    H251180   1.901   3.650  13.194 -0.5976 -0.4793  3.5184
 9897TIP3   OH251181   4.043   1.487   5.069 -0.3466  0.1535 -0.6171
 9897TIP3    H151182   3.952   1.504   5.044 -0.2273  0.2932 -0.9617
 9897TIP3    H251183   4.083   1.449   4.991 -0.3117 -0.6599 -0.2093
 9898TIP3   OH251184   2.242   6.661  12.407  0.5006 -0.3796 -0.2893
 9898TIP3    H151185   2.288   6.737  12.370 -1.0285 -0.7222 -3.1715
 9898TIP3    H251186   2.312   6.600  12.429  1.6534  1.0519  0.1775
 9899TIP3   OH251187   0.180   4.252  15.403 -0.2512 -0.1033  0.3464
 9899TIP3    H151188   0.238   4.177  15.389 -1.3575 -1.2547  1.5052
 9899TIP3    H251189   0.212   4.320  15.345  2.1890 -0.7122  0.8796
 9900TIP3   OH251190   6.042   2.683  13.222 -0.2919 -0.0164 -0.0991
 9900TIP3    H151191   6.048   2.717  13.132  1.0073  4.3987  1.3815
 9900TIP3    H251192   5.948   2.679  13.240 -0.5606 -0.5762 -1.5025
 9901TIP3   OH251193   4.108   4.170   2.656  0.4407  0.6863 -0.5813
 9901TIP3    H151194   4.146   4.146   2.741 -1.3152  0.7183  0.2613
 9901TIP3    H251195   4.073   4.089   2.621  1.0763  0.6926 -1.2540
 9902TIP3   OH251196   5.253   1.848  17.244 -0.2510 -0.4172  0.7143
 9902TIP3    H151197   5.271   1.860  17.337 -0.8302 -0.6753  0.8620
 9902TIP3    H251198   5.331   1.882  17.200 -1.1703  2.4235  1.1416
 9903TIP3   OH251199   4.057   0.052  13.376 -0.0109 -0.1708 -0.0262
 9903TIP3    H151200   4.135   0.041  13.322  0.0811 -0.6155  0.1962
 9903TIP3    H251201   4.042  -0.034  13.415 -0.3813  0.0133  0.2439
 9904TIP3   OH251202   1.968   0.382  13.179 -0.7492 -0.3033  0.0071
 9904TIP3    H151203   1.874   0.393  13.182 -0.8196 -0.5277 -0.8745
 9904TIP3    H251204   2.004   0.469  13.196 -1.1691  0.2089 -1.5399
 9905TIP3   OH251205   1.143   1.823   4.537 -0.2217  0.2114  0.3078
 9905TIP3    H151206   1.084   1.876   4.484  0.8510  0.7126 -0.4250
 9905TIP3    H251207   1.166   1.878   4.611  0.7391  0.7426 -0.3535
 9906TIP3   OH251208   5.003   3.863  14.740  0.1349 -0.0439  0.0128
 9906TIP3    H151209   5.003   3.862  14.836 -1.7385 -1.3842  0.0368
 9906TIP3    H251210   5.096   3.856  14.717  0.5455 -1.0209  1.7395
 9907TIP3   OH251211   0.919   4.938   3.151  0.3919  0.2102 -0.1583
 9907TIP3    H151212   0.882   4.853   3.130 -1.7159  0.0249  3.5255
 9907TIP3    H251213   1.013   4.922   3.159  0.2363 -1.3642 -1.0275
 9908TIP3   OH251214   2.862   2.381  13.210 -0.0328  0.5646 -0.1675
 9908TIP3    H151215   2.892   2.294  13.236 -2.1155 -0.2432 -0.2780
 9908TIP3    H251216   2.798   2.364  13.140 -1.0400  2.1306  0.3251
 9909TIP3   OH251217   0.111   4.539  14.069 -0.0434 -0.0439 -0.2815
 9909TIP3    H151218   0.164   4.474  14.023  0.3047  0.0976 -0.0923
 9909TIP3    H251219   0.136   4.623  14.030  0.4794  0.1101  0.3571
 9910TIP3   OH251220   0.871   3.315   0.753  0.1276  0.0684 -0.0084
 9910TIP3    H151221   0.910   3.286   0.670 -1.7586  2.4036 -1.8833
 9910TIP3    H251222   0.789   3.266   0.758  0.9609 -1.2578  1.3957
 9911TIP3   OH251223   6.559   3.535  16.579  0.7168 -0.2546  0.5753
 9911TIP3    H151224   6.534   3.607  16.521 -0.8186 -1.1008  0.1087
 9911TIP3    H251225   6.517   3.458  16.540  2.1031 -1.3641  1.1994
 9912TIP3   OH251226   1.894   2.341   2.640 -0.2411 -0.5326 -0.3461
 9912TIP3    H151227   1.955   2.396   2.688 -1.0954 -1.4558  1.9464
 9912TIP3    H251228   1.839   2.403   2.591  0.0293  0.5485  0.6763
 9913TIP3   OH251229   0.378   2.449   1.508 -0.3786 -0.3593  0.1807
 9913TIP3    H151230   0.437   2.464   1.582 -1.1252 -0.0249  0.7313
 9913TIP3    H251231   0.434   2.418   1.438  0.7217  1.5640  0.1337
 9914TIP3   OH251232   2.426   1.749  14.612  0.4725 -0.0051 -0.4385
 9914TIP3    H151233   2.468   1.664  14.601 -0.7788 -0.7755  0.3904
 9914TIP3    H251234   2.341   1.739  14.568  0.8676  1.2847 -1.5251
 9915TIP3   OH251235   4.443   1.752   4.665 -0.0570 -0.2148  0.1662
 9915TIP3    H151236   4.392   1.790   4.593 -0.5864 -2.1877 -0.5755
 9915TIP3    H251237   4.440   1.819   4.733 -0.6762  1.1736 -1.1389
 9916TIP3   OH251238   3.665   1.535  17.420 -0.2896 -0.3990 -0.2274
 9916TIP3    H151239   3.741   1.509  17.369 -0.1155  0.6380 -0.5049
 9916TIP3    H251240   3.643   1.457  17.471  1.6765 -0.3638  0.7539
 9917TIP3   OH251241   2.051   4.532  17.516 -0.2549 -0.2986  0.0836
 9917TIP3    H151242   2.145   4.538  17.498 -0.2851  0.8030  0.2528
 9917TIP3    H251243   2.047   4.503  17.608 -0.0610  0.8386  0.4646
 9918TIP3   OH251244   6.579   6.359  13.298 -0.7278 -0.2230  1.1167
 9918TIP3    H151245   6.588   6.268  13.268  0.0383  0.4812 -0.9819
 9918TIP3    H251246   6.492   6.385  13.268 -0.0609  0.4004 -0.4104
 9919TIP3   OH251247   4.522   6.491  16.620  0.7250 -0.8052 -0.0341
 9919TIP3    H151248   4.546   6.573  16.663  1.8590 -1.1824  0.1018
 9919TIP3    H251249   4.582   6.485  16.545  0.7978 -1.5989  0.0765
 9920TIP3   OH251250   1.021   4.427   1.604  0.2406  0.5724  0.0726
 9920TIP3    H151251   1.027   4.499   1.541 -0.9807  0.8705  0.2803
 9920TIP3    H251252   0.979   4.356   1.555  1.7183 -0.1298 -0.2250
 9921TIP3   OH251253   4.922   2.965   6.021 -0.2957  0.3522  0.4034
 9921TIP3    H151254   4.999   2.909   6.020 -0.5960 -0.0939 -1.2730
 9921TIP3    H251255   4.930   3.019   5.943 -0.8944  1.4457  1.0635
 9922TIP3   OH251256   2.383   4.908  14.353  0.3664  0.8889 -0.1972
 9922TIP3    H151257   2.302   4.953  14.377  0.5517  0.2723  1.7143
 9922TIP3    H251258   2.357   4.816  14.344  0.5790  0.9073 -1.0632
 9923TIP3   OH251259   1.495   1.914   3.432  0.2709 -0.4135  0.2778
 9923TIP3    H151260   1.574   1.861   3.418  1.0688  0.5530  0.9310
 9923TIP3    H251261   1.460   1.884   3.516  0.9552  0.3418  0.8503
 9924TIP3   OH251262   2.719   5.880  12.155  0.0265  0.1163 -0.2731
 9924TIP3    H151263   2.673   5.813  12.103  1.3397  0.6569 -2.2582
 9924TIP3    H251264   2.654   5.950  12.165 -0.3582 -0.1168 -0.9806
 9925TIP3   OH251265   2.105   4.513   1.206 -0.3181 -0.4576 -0.2977
 9925TIP3    H151266   2.153   4.569   1.267  0.4686 -0.4149 -0.9444
 9925TIP3    H251267   2.125   4.424   1.236  0.7323 -0.4626 -0.9629
 9926TIP3   OH251268   6.067   5.020  11.650 -0.3121 -0.1365  0.3309
 9926TIP3    H151269   5.992   5.077  11.663 -0.4459 -0.4444  0.9079
 9926TIP3    H251270   6.030   4.937  11.622 -0.1422 -0.0847 -0.0611
 9927TIP3   OH251271   4.894   4.627   6.187 -0.7043 -0.0146  0.1968
 9927TIP3    H151272   4.966   4.691   6.184 -1.0649  0.4468  1.1354
 9927TIP3    H251273   4.928   4.555   6.240 -0.4419 -0.4445 -0.5327
 9928TIP3   OH251274   4.092   0.015   4.612  0.2747 -0.1447  0.1876
 9928TIP3    H151275   4.137  -0.032   4.682 -1.1153  1.0133  1.9186
 9928TIP3    H251276   4.160   0.070   4.574  1.0578 -0.8120  0.5809
 9929TIP3   OH251277   5.396   3.716   1.875  0.3447 -0.8465  0.1191
 9929TIP3    H151278   5.378   3.710   1.969  0.4631  0.2253  0.2312
 9929TIP3    H251279   5.410   3.626   1.847 -1.7945 -1.3963  0.7027
 9930TIP3   OH251280   3.088   3.646   0.135 -0.1735  0.0245  0.0217
 9930TIP3    H151281   3.089   3.642   0.231 -1.5522  1.5339  0.1249
 9930TIP3    H251282   3.020   3.584   0.109 -0.0113 -0.1547  0.0158
 9931TIP3   OH251283   4.689   3.519  15.979  0.0798 -0.0020  0.2591
 9931TIP3    H151284   4.606   3.530  16.026 -0.3331  1.6626 -0.7795
 9931TIP3    H251285   4.726   3.607  15.974  1.4204 -0.5613 -0.2130
 9932TIP3   OH251286   3.258   0.193   1.563 -0.3865  0.0570 -0.4705
 9932TIP3    H151287   3.264   0.264   1.499  0.2404 -0.0586 -0.5533
 9932TIP3    H251288   3.337   0.202   1.616 -1.0448  0.3298  0.4915
 9933TIP3   OH251289   0.180   2.446   5.005 -0.2142  0.4638 -0.3353
 9933TIP3    H151290   0.265   2.425   5.045  0.5705  2.9571 -0.5116
 9933TIP3    H251291   0.197   2.443   4.911  0.0936  2.2097 -0.3748
 9934TIP3   OH251292   1.994   1.494   3.810  0.3674 -0.3879 -0.3626
 9934TIP3    H151293   2.007   1.432   3.883 -0.5149 -0.5147 -0.3006
 9934TIP3    H251294   1.906   1.529   3.824  0.1945 -0.3915 -1.3523
 9935TIP3   OH251295   0.038   0.605   3.539  0.6213 -0.0474  0.1114
 9935TIP3    H151296   0.056   0.513   3.518 -1.4702 -0.2513 -0.9777
 9935TIP3    H251297   0.038   0.608   3.634  1.0061 -1.1148  0.1581
 9936TIP3   OH251298   2.860   0.275   0.515  0.3689 -0.0997 -0.4035
 9936TIP3    H151299   2.932   0.334   0.492  1.1437 -0.4527  1.0151
 9936TIP3    H251300   2.800   0.280   0.440  1.5883  0.6255 -1.3617
 9937TIP3   OH251301   3.865   3.226  16.073 -0.0980  0.4669 -0.2202
 9937TIP3    H151302   3.790   3.241  16.131 -0.8171 -0.2483 -0.9374
 9937TIP3    H251303   3.827   3.224  15.985  0.2966 -2.5425 -0.4307
 9938TIP3   OH251304   0.228   0.178   3.957 -0.2111 -0.0829  0.0722
 9938TIP3    H151305   0.153   0.200   3.901  0.0257 -1.5289 -0.8528
 9938TIP3    H251306   0.243   0.257   4.009 -2.0583  0.4102 -0.0808
 9939TIP3   OH251307   4.836   1.788   5.690  0.5460  0.0186  0.2219
 9939TIP3    H151308   4.925   1.766   5.719  0.0383 -0.2797  1.6215
 9939TIP3    H251309   4.819   1.729   5.617  1.1473 -0.5822  0.5594
 9940TIP3   OH251310   4.410   1.417  15.514 -1.0768 -0.5251  0.1028
 9940TIP3    H151311   4.478   1.433  15.448  0.2893 -0.6905  1.4101
 9940TIP3    H251312   4.415   1.323  15.530 -0.5188 -0.3122  1.3101
 9941TIP3   OH251313   1.252   3.897  14.347 -0.0743  0.2689 -0.0565
 9941TIP3    H151314   1.199   3.968  14.381  0.1006  0.3164  0.1226
 9941TIP3    H251315   1.275   3.845  14.425 -1.1668 -0.6475 -0.3260
 9942TIP3   OH251316   4.655   1.929  15.718 -0.1756  0.2128 -0.4552
 9942TIP3    H151317   4.603   1.889  15.788  0.4345 -0.6343 -0.4649
 9942TIP3    H251318   4.591   1.972  15.662 -1.0869 -2.1701 -1.3692
 9943TIP3   OH251319   4.403   5.214  11.993  0.0598  0.4592  0.5091
 9943TIP3    H151320   4.427   5.133  12.037  1.3479 -0.0989 -1.0866
 9943TIP3    H251321   4.434   5.202  11.903 -1.4450  1.9737 -0.2577
 9944TIP3   OH251322   6.044   0.649   0.636  0.3664  0.4375 -0.1793
 9944TIP3    H151323   6.077   0.680   0.721  0.0633  0.0020  0.1040
 9944TIP3    H251324   5.949   0.661   0.642  0.2893 -0.1182 -0.2359
 9945TIP3   OH251325   3.013   4.752  15.433  0.4502 -0.1137  0.1820
 9945TIP3    H151326   3.056   4.677  15.390  0.2140 -0.1688  0.0348
 9945TIP3    H251327   2.920   4.739  15.414  0.4282  0.3403 -0.0361
 9946TIP3   OH251328   3.666   4.264   4.689  0.6030 -0.2008 -0.3442
 9946TIP3    H151329   3.725   4.200   4.650  0.4840 -0.5076 -0.0161
 9946TIP3    H251330   3.723   4.323   4.739  0.7003 -0.1042 -0.5673
 9947TIP3   OH251331   2.157   5.780  11.469  0.0695 -0.8909  0.9762
 9947TIP3    H151332   2.078   5.831  11.484  0.1942  0.4888 -2.2621
 9947TIP3    H251333   2.127   5.697  11.434  0.0111 -0.1831 -0.7142
 9948TIP3   OH251334   3.173   5.747   4.133 -0.4315 -0.2126 -0.2459
 9948TIP3    H151335   3.252   5.710   4.172 -1.3491 -1.1339  0.8184
 9948TIP3    H251336   3.160   5.831   4.179  0.5388  0.4995 -1.2361
 9949TIP3   OH251337   2.487   4.753   3.795 -0.2241 -0.2411  0.1813
 9949TIP3    H151338   2.468   4.660   3.784  1.4473 -0.8363  1.9638
 9949TIP3    H251339   2.527   4.779   3.712  2.1800 -1.9316  0.7136
 9950TIP3   OH251340   2.624   4.770  13.406  0.0297  0.3581 -0.2143
 9950TIP3    H151341   2.559   4.839  13.398 -0.3303  0.0493  0.0110
 9950TIP3    H251342   2.666   4.767  13.320 -0.0983  0.7097 -0.2919
 9951TIP3   OH251343   2.256   4.530  11.955  0.5128 -0.2788  0.3763
 9951TIP3    H151344   2.196   4.457  11.967 -1.2755  1.0236 -0.1515
 9951TIP3    H251345   2.239   4.587  12.031  0.6237  0.3890 -0.0938
 9952TIP3   OH251346   0.523   4.220   1.980  0.4689  0.4127  0.4427
 9952TIP3    H151347   0.557   4.255   2.063  1.4247  0.0529  0.2183
 9952TIP3    H251348   0.600   4.184   1.936 -0.1269  0.0690 -0.3437
 9953TIP3   OH251349   4.427   3.373   4.573 -0.0995  0.3467  0.0060
 9953TIP3    H151350   4.417   3.347   4.665  1.6613  0.0444  0.1609
 9953TIP3    H251351   4.370   3.313   4.525 -1.7269  1.0803  0.9431
 9954TIP3   OH251352   3.963   5.066   1.053 -0.5041  0.0958 -0.1641
 9954TIP3    H151353   3.918   5.131   1.000 -1.0512  0.3381  0.5756
 9954TIP3    H251354   3.895   5.031   1.112  0.0880 -0.1246  0.4076
 9955TIP3   OH251355   6.164   5.179   0.891  0.1275  0.0931  0.3198
 9955TIP3    H151356   6.094   5.119   0.865  0.1117  0.4087 -0.3733
 9955TIP3    H251357   6.138   5.209   0.979 -0.8747  0.5977 -0.1240
 9956TIP3   OH251358   3.474   0.292   1.746  0.3805 -0.4398 -0.6078
 9956TIP3    H151359   3.485   0.381   1.712  2.5045 -0.0923  0.7806
 9956TIP3    H251360   3.549   0.244   1.712  0.7780 -0.9258  0.8655
 9957TIP3   OH251361   2.617   0.425  13.082  0.2613  0.2752 -0.4236
 9957TIP3    H151362   2.694   0.453  13.133 -2.3456  0.8952  3.6364
 9957TIP3    H251363   2.600   0.335  13.112  0.7348 -0.8536 -3.2201
 9958TIP3   OH251364   1.182   4.242  13.443  0.0145  0.4814  0.0187
 9958TIP3    H151365   1.110   4.247  13.380  0.0095 -0.1674 -0.0391
 9958TIP3    H251366   1.260   4.227  13.389  0.2673  1.5867  0.0507
 9959TIP3   OH251367   3.047   2.981  12.919 -0.0320 -0.2889  0.0384
 9959TIP3    H151368   2.992   2.903  12.926  0.8358 -0.7509  3.4457
 9959TIP3    H251369   3.111   2.959  12.852 -0.0002 -2.4459  0.6930
 9960TIP3   OH251370   5.067   1.414   2.797 -0.6113  0.6442  0.3780
 9960TIP3    H151371   5.011   1.491   2.810 -1.1902  0.1638  0.7756
 9960TIP3    H251372   5.069   1.371   2.882  0.0282  0.4260  0.2563
 9961TIP3   OH251373   5.072   4.646  14.833  0.4690  0.5319  0.3448
 9961TIP3    H151374   5.036   4.732  14.810 -0.1551  0.5749  1.3999
 9961TIP3    H251375   5.129   4.623  14.760  0.2524  1.6199 -0.1825
 9962TIP3   OH251376   1.339   6.090   5.436 -0.3134  0.2571  0.0752
 9962TIP3    H151377   1.290   6.027   5.488  0.6877  0.1516  0.9124
 9962TIP3    H251378   1.279   6.163   5.423 -1.0566 -0.3303  0.1417
 9963TIP3   OH251379   1.042   2.037  13.019  0.3172 -0.0462 -0.3484
 9963TIP3    H151380   0.952   2.070  13.017 -0.0048 -0.5712  2.1917
 9963TIP3    H251381   1.096   2.114  13.003 -0.5438  0.3827 -1.3424
 9964TIP3   OH251382   2.703   4.355  15.316 -0.3731  0.4114 -0.3518
 9964TIP3    H151383   2.727   4.353  15.409 -1.3963  1.4937 -0.0519
 9964TIP3    H251384   2.634   4.289  15.308 -0.9575  0.9852 -0.1330
 9965TIP3   OH251385   1.601   0.156   0.240 -0.0003 -0.4969 -0.5868
 9965TIP3    H151386   1.593   0.132   0.332  0.0340  0.8921 -0.1951
 9965TIP3    H251387   1.532   0.107   0.196 -0.2611 -0.8872  0.2345
 9966TIP3   OH251388   0.939   0.257  11.271 -0.0220 -0.4107 -0.1200
 9966TIP3    H151389   0.944   0.286  11.180  0.8600  0.5767  0.2260
 9966TIP3    H251390   1.022   0.212  11.287  0.1792  0.1283  0.4180
 9967TIP3   OH251391   2.529   5.502  14.946 -0.0941 -0.8550  0.3084
 9967TIP3    H151392   2.547   5.535  14.858  0.7192  1.0996  1.1554
 9967TIP3    H251393   2.510   5.409  14.933  0.7745 -0.7939 -1.8422
 9968TIP3   OH251394   4.954   2.527  17.585  0.6660  0.3548  0.3666
 9968TIP3    H151395   4.931   2.436  17.603 -0.9328  0.6647  0.0920
 9968TIP3    H251396   5.049   2.530  17.590  0.9570 -1.8265 -1.9190
 9969TIP3   OH251397   1.205   2.741   5.655  0.4009 -0.3017  0.7892
 9969TIP3    H151398   1.267   2.687   5.605  1.1540  0.5914  0.7450
 9969TIP3    H251399   1.220   2.716   5.746  1.4730  0.5541  0.8584
 9970TIP3   OH251400   4.408   4.356   2.643  0.3891  0.5593 -0.3092
 9970TIP3    H151401   4.466   4.398   2.707  2.1440 -1.6255 -0.3638
 9970TIP3    H251402   4.355   4.296   2.695 -0.7585  1.4103 -0.4729
 9971TIP3   OH251403   6.547   5.676  11.478 -0.2007 -0.2048  0.2579
 9971TIP3    H151404   6.464   5.648  11.515 -0.2256  0.6458  0.8729
 9971TIP3    H251405   6.523   5.732  11.404 -0.2729  2.0849  1.9065
 9972TIP3   OH251406   6.389   4.484  12.401 -0.7017  0.3433  0.1055
 9972TIP3    H151407   6.345   4.416  12.350 -0.8555  0.6238 -0.1331
 9972TIP3    H251408   6.413   4.551  12.337  0.5279 -0.0338  0.1360
 9973TIP3   OH251409   1.928   6.023  13.097  0.1274 -0.9833 -0.2155
 9973TIP3    H151410   1.873   5.980  13.163 -0.8991 -1.3052 -1.2595
 9973TIP3    H251411   1.867   6.058  13.033  1.0994 -0.6300 -0.9794
 9974TIP3   OH251412   4.684   1.937   0.159 -0.7902  0.2954  0.6917
 9974TIP3    H151413   4.590   1.936   0.175 -0.8978  2.2483  0.4155
 9974TIP3    H251414   4.695   1.897   0.073 -1.4751  0.9167  0.3075
 9975TIP3   OH251415   0.900   0.595   2.043  0.2870  0.4848  0.1066
 9975TIP3    H151416   0.872   0.664   1.983  0.2689 -0.4455 -0.9889
 9975TIP3    H251417   0.855   0.517   2.013  0.5791 -0.0972  1.1091
 9976TIP3   OH251418   3.211   0.065   2.921 -0.3533  0.5057 -0.4986
 9976TIP3    H151419   3.204   0.043   3.014  1.2506 -4.0110 -1.1953
 9976TIP3    H251420   3.304   0.083   2.907 -0.6999  1.9251 -1.1472
 9977TIP3   OH251421   0.189   3.504   0.797  0.1813 -0.0992  0.0436
 9977TIP3    H151422   0.221   3.414   0.794 -0.0073 -0.1427 -0.7655
 9977TIP3    H251423   0.099   3.497   0.830  0.0350 -0.2435 -0.3851
 9978TIP3   OH251424   2.941   5.519  15.351  0.1021  0.1507 -0.1031
 9978TIP3    H151425   2.958   5.606  15.314  0.6952  0.7893  1.5470
 9978TIP3    H251426   2.856   5.527  15.393  0.4141  0.1310  0.5522
 9979TIP3   OH251427   5.183   3.477   0.683 -0.0800  0.0502  0.1703
 9979TIP3    H151428   5.207   3.563   0.717 -0.7128  0.6685 -0.8896
 9979TIP3    H251429   5.090   3.468   0.703 -0.2315  0.0087 -0.5269
 9980TIP3   OH251430   2.249   2.280  11.532  0.3292  0.5250 -0.1855
 9980TIP3    H151431   2.192   2.271  11.455  1.1693 -0.5870 -0.7114
 9980TIP3    H251432   2.218   2.359  11.576  0.9316  2.2357 -2.6099
 9981TIP3   OH251433   3.208   4.726  13.616  0.2950 -0.5693  0.2442
 9981TIP3    H151434   3.257   4.676  13.682 -1.0693 -1.3836  0.6794
 9981TIP3    H251435   3.159   4.791  13.667 -1.2149 -1.5743  0.1431
 9982TIP3   OH251436   0.533   4.387   6.426  0.0481  0.3906 -0.4486
 9982TIP3    H151437   0.593   4.444   6.379  0.3632 -0.8732 -1.6346
 9982TIP3    H251438   0.527   4.425   6.514  0.2489  2.2044 -1.1889
 9983TIP3   OH251439   4.850   0.974   4.595  0.1648 -0.0069 -0.1577
 9983TIP3    H151440   4.783   0.965   4.526 -1.1908 -0.3588  1.1475
 9983TIP3    H251441   4.850   1.067   4.616  1.1375  0.2375 -1.1204
 9984TIP3   OH251442   1.746   3.043  12.420 -0.3084  0.5758  0.2402
 9984TIP3    H151443   1.801   3.079  12.351  1.2001  0.3655  1.2672
 9984TIP3    H251444   1.740   2.949  12.401  0.1024  0.5187  0.3877
 9985TIP3   OH251445   0.723   0.088  12.621 -0.0811 -0.0264  0.0307
 9985TIP3    H151446   0.676   0.064  12.701 -1.0313  1.1088 -0.1570
 9985TIP3    H251447   0.800   0.033  12.621 -0.0004  0.0331  1.7984
 9986TIP3   OH251448   0.814   5.146   3.015 -0.4639  0.3915 -0.7155
 9986TIP3    H151449   0.845   5.061   3.045 -1.0474  0.4907  0.1992
 9986TIP3    H251450   0.879   5.208   3.049 -0.8382  0.4513 -0.0975
 9987TIP3   OH251451   1.866   5.707  13.471 -0.6490  0.1548 -0.3085
 9987TIP3    H151452   1.835   5.711  13.561 -1.4270  2.3340 -0.6126
 9987TIP3    H251453   1.926   5.633  13.469 -2.9855 -1.9218  1.2225
 9988TIP3   OH251454   3.285   6.449  16.262  0.1548  0.1460 -0.0441
 9988TIP3    H151455   3.264   6.403  16.344 -1.5505 -1.0100 -1.0586
 9988TIP3    H251456   3.222   6.520  16.258  0.2345  0.1972 -0.3556
 9989TIP3   OH251457   2.349   6.098  11.889 -0.4662  0.6687  0.2188
 9989TIP3    H151458   2.297   6.023  11.917 -1.2756  1.3817  0.6583
 9989TIP3    H251459   2.345   6.160  11.962 -0.2310  1.3522 -0.3346
 9990TIP3   OH251460   0.719   2.287  17.081 -0.5817  0.1817 -0.7403
 9990TIP3    H151461   0.682   2.372  17.058 -0.8499  0.5914  1.0936
 9990TIP3    H251462   0.806   2.307  17.115  0.9294 -0.6573 -3.7514
 9991TIP3   OH251463   3.127   0.811  14.877 -0.1113 -0.0607 -0.2909
 9991TIP3    H151464   3.206   0.774  14.838  0.6267  0.0395  1.0389
 9991TIP3    H251465   3.133   0.788  14.969 -0.0136  2.6091  0.4554
 9992TIP3   OH251466   5.294   4.934  12.493  0.0320  0.5152 -0.0927
 9992TIP3    H151467   5.253   4.864  12.443 -0.4231  0.6962  0.0190
 9992TIP3    H251468   5.364   4.968  12.436 -0.5247  0.7655 -0.6330
 9993TIP3   OH251469   4.483   6.405   3.978 -0.0999  0.2015  0.5593
 9993TIP3    H151470   4.560   6.461   3.987 -0.8893  1.0446  2.5898
 9993TIP3    H251471   4.414   6.463   3.946  0.1176 -0.6152 -1.5593
 9994TIP3   OH251472   1.936   1.379   6.231  0.4191  0.7406 -0.2731
 9994TIP3    H151473   1.989   1.458   6.225  1.3788  0.1634  0.2917
 9994TIP3    H251474   2.000   1.307   6.228 -0.3235  0.0260  0.4974
 9995TIP3   OH251475   6.632   5.227   0.412  1.1963  0.1321  0.0520
 9995TIP3    H151476   6.607   5.136   0.426 -1.7894  0.7861 -0.3614
 9995TIP3    H251477   6.697   5.224   0.342  0.7341 -1.6314 -0.3396
 9996TIP3   OH251478   0.711   1.833  12.463 -0.5423 -0.4062 -0.0269
 9996TIP3    H151479   0.685   1.883  12.385  1.1589 -0.7604 -0.8740
 9996TIP3    H251480   0.707   1.897  12.535  1.4208  0.9884 -1.0512
 9997TIP3   OH251481   6.026   6.609   1.570  0.4712 -0.2166 -0.4163
 9997TIP3    H151482   5.968   6.680   1.543  0.2387 -1.2662 -3.0616
 9997TIP3    H251483   6.110   6.629   1.528  1.2330 -0.1134  1.1119
 9998TIP3   OH251484   0.067   0.987   3.047 -0.4026  0.0446 -0.4307
 9998TIP3    H151485   0.142   0.960   3.100 -1.7199 -0.4492  1.2895
 9998TIP3    H251486   0.076   1.083   3.041  1.2950 -0.1676 -1.7996
 9999TIP3   OH251487   3.918   1.971  14.571 -0.0035  0.1011  0.2123
 9999TIP3    H151488   3.999   1.951  14.525 -0.3231  1.3279 -0.9633
 9999TIP3    H251489   3.849   1.951  14.508 -0.3650  4.2631 -1.0137
10000TIP3   OH251490   0.047   6.068  12.659 -0.2043  0.3712 -0.1162
10000TIP3    H151491  -0.006   6.016  12.719 -1.7721  0.0896 -1.6750
10000TIP3    H251492   0.073   6.145  12.710 -2.6888  0.8533  0.5331
10001TIP3   OH251493   2.978   4.090  16.541 -0.2517 -0.3843  0.0986
10001TIP3    H151494   3.010   4.089  16.451 -1.0628  0.7298 -0.2226
10001TIP3    H251495   2.914   4.161  16.543  0.8532  0.6505  1.9356
10002TIP3   OH251496   4.848   2.973  12.641  0.0912 -0.0915  0.1411
10002TIP3    H151497   4.754   2.988  12.641 -0.1607 -1.4037 -1.0407
10002TIP3    H251498   4.884   3.041  12.698 -1.5814  0.2873  0.7880
10003TIP3   OH251499   3.982   2.857   6.059 -0.2912  0.3648 -0.2294
10003TIP3    H151500   3.905   2.907   6.031 -0.4210 -0.3017 -1.1486
10003TIP3    H251501   3.963   2.767   6.030 -0.7639 -0.5906  2.7080
10004TIP3   OH251502   2.257   6.545  12.931 -0.0850  0.5634 -0.5793
10004TIP3    H151503   2.226   6.596  13.005  1.1881 -0.1926  0.5139
10004TIP3    H251504   2.315   6.480  12.969 -1.1197 -1.2928 -2.0004
10005TIP3   OH251505   0.602   6.013  14.078  0.0746 -0.4204  0.5207
10005TIP3    H151506   0.556   5.991  14.159 -0.7298 -0.1169  0.1575
10005TIP3    H251507   0.551   6.084  14.040  0.3458 -0.6710 -0.3372
10006TIP3   OH251508   5.709   5.705  12.314  0.0224  0.3301  0.0740
10006TIP3    H151509   5.765   5.783  12.311  1.3446 -0.6014 -2.6335
10006TIP3    H251510   5.748   5.650  12.382 -0.0820  1.3931  1.0174
10007TIP3   OH251511   0.952   2.918  15.980 -0.6278 -0.5859  0.0624
10007TIP3    H151512   0.926   2.996  16.030  0.2527 -0.9080  1.0622
10007TIP3    H251513   0.920   2.934  15.892 -1.1454  0.5612  0.4399
10008TIP3   OH251514   0.515   5.278  12.965 -0.2198  0.5297 -0.6955
10008TIP3    H151515   0.590   5.310  13.015 -0.0390 -0.1184 -0.5469
10008TIP3    H251516   0.553   5.231  12.891 -0.4415 -1.0244  0.1345
10009TIP3   OH251517   2.751   1.622  13.458  0.7050  0.3462 -0.3741
10009TIP3    H151518   2.680   1.676  13.492 -0.4313 -0.9459 -0.6431
10009TIP3    H251519   2.819   1.628  13.526 -0.6404 -0.4025  1.0920
10010TIP3   OH251520   2.152   5.482   0.472 -0.6045  0.2579  0.2113
10010TIP3    H151521   2.157   5.571   0.506  0.2143  0.1585  0.3638
10010TIP3    H251522   2.232   5.471   0.421 -1.7526  0.3799 -1.7135
10011TIP3   OH251523   0.111   3.082  16.638  0.6167  0.0282 -0.1226
10011TIP3    H151524   0.102   3.008  16.698  0.4427 -2.2054 -2.7201
10011TIP3    H251525   0.076   3.156  16.687 -0.5196 -1.8436  2.1343
10012TIP3   OH251526   5.984   5.259  17.149  0.2448  0.6713  0.1357
10012TIP3    H151527   5.938   5.203  17.212  0.8405  0.7066  0.6098
10012TIP3    H251528   5.950   5.347  17.165 -0.6330  0.4593 -0.5547
10013TIP3   OH251529   0.783   5.750  17.680 -0.0386 -0.3496  0.1024
10013TIP3    H151530   0.826   5.758  17.765  2.8066 -1.3350 -1.1083
10013TIP3    H251531   0.729   5.671  17.688  0.3551 -0.5418  0.9510
10014TIP3   OH251532   5.851   5.784  14.259 -0.3857  0.0021  0.3453
10014TIP3    H151533   5.862   5.697  14.298 -0.3778 -0.5522 -0.8455
10014TIP3    H251534   5.925   5.835  14.293 -1.1623 -0.0129  2.1582
10015TIP3   OH251535   1.871   2.714   0.514  0.8593  0.6917 -0.0530
10015TIP3    H151536   1.911   2.695   0.599 -3.8806 -0.8015  2.1842
10015TIP3    H251537   1.865   2.810   0.512  0.9334  0.7477  1.3533
10016TIP3   OH251538   2.618   3.315   5.635 -0.4370  0.0090  0.0459
10016TIP3    H151539   2.650   3.405   5.643  1.3609 -0.5402 -0.4265
10016TIP3    H251540   2.593   3.290   5.724  1.1368  0.2963  0.6142
10017TIP3   OH251541   4.052   6.216  11.020 -0.0776  0.0138 -0.1585
10017TIP3    H151542   4.107   6.294  11.012 -0.5864  0.3778 -0.2255
10017TIP3    H251543   3.978   6.233  10.962 -0.0182 -0.6829 -0.4524
10018TIP3   OH251544   3.246   1.264  15.590 -0.2387 -0.5417 -0.0911
10018TIP3    H151545   3.274   1.177  15.616  1.1548 -0.0753  0.0671
10018TIP3    H251546   3.325   1.305  15.554 -0.5905  1.0137  0.8101
10019TIP3   OH251547   1.732   3.068   6.248 -0.2719 -0.3558 -0.2723
10019TIP3    H151548   1.671   2.995   6.257  0.5217 -1.0501 -0.4121
10019TIP3    H251549   1.745   3.100   6.338 -0.3766 -0.5898 -0.1734
10020TIP3   OH251550   3.044   6.077   3.893 -0.5423  0.1454  0.1695
10020TIP3    H151551   2.955   6.059   3.861  0.5155 -0.8872 -2.4349
10020TIP3    H251552   3.077   5.993   3.922 -0.3993  0.5375  1.1906
10021TIP3   OH251553   5.352   0.096   4.335 -0.2397  0.2630  0.3912
10021TIP3    H151554   5.312   0.166   4.387 -1.2825  0.4285 -0.5938
10021TIP3    H251555   5.398   0.042   4.399 -0.0348  1.4309  1.2672
10022TIP3   OH251556   4.428   6.153   4.094 -0.4006 -0.3643 -0.3821
10022TIP3    H151557   4.463   6.237   4.063  1.8270 -1.1970 -0.2838
10022TIP3    H251558   4.376   6.119   4.021  0.2172  0.2357 -1.1123
10023TIP3   OH251559   6.083   3.017  15.632  0.2750 -0.2458 -1.0583
10023TIP3    H151560   6.045   2.956  15.696 -1.1815  1.2788 -0.4064
10023TIP3    H251561   6.034   3.002  15.552 -0.9301  0.8566 -0.5606
10024TIP3   OH251562   3.993   3.972   2.273 -0.2849  0.0620 -0.3165
10024TIP3    H151563   4.002   4.068   2.276 -0.5340  0.0847 -0.3037
10024TIP3    H251564   4.070   3.943   2.224  0.8208  0.1256  1.2790
10025TIP3   OH251565   6.456   5.354  15.970 -0.0127 -0.1053 -0.3329
10025TIP3    H151566   6.436   5.437  16.013  2.0678  0.7445 -0.8868
10025TIP3    H251567   6.406   5.357  15.888 -2.0699 -0.6605  0.8221
10026TIP3   OH251568   2.264   2.063   1.388 -0.0982 -0.4141 -0.0476
10026TIP3    H151569   2.210   2.076   1.310 -2.4162  0.8142  1.6261
10026TIP3    H251570   2.287   1.970   1.386 -1.6887 -0.8283 -1.2445
10027TIP3   OH251571   2.352   2.810  13.634  0.4878 -0.4927  0.1945
10027TIP3    H151572   2.364   2.860  13.553  1.1461 -1.1152 -0.1053
10027TIP3    H251573   2.437   2.815  13.677 -0.4440  1.7718  2.0170
10028TIP3   OH251574   0.100   0.181   4.672  0.5531  0.2245  0.0194
10028TIP3    H151575   0.098   0.097   4.625 -0.2828  0.3505 -0.1912
10028TIP3    H251576   0.193   0.197   4.688  0.6716 -1.4347  1.3139
10029TIP3   OH251577   2.969   6.059  16.104  0.4201  0.5262  0.2715
10029TIP3    H151578   3.058   6.040  16.076  0.0848 -3.1138  1.2052
10029TIP3    H251579   2.979   6.113  16.183  1.8029  0.3234  0.2495
10030TIP3   OH251580   3.826   0.016   0.960  0.1795  0.0135  0.2622
10030TIP3    H151581   3.899   0.035   0.902 -0.8092 -2.1271 -1.8860
10030TIP3    H251582   3.851  -0.066   1.003 -0.2326  0.1594  0.7822
10031TIP3   OH251583   1.836   6.597   2.805 -0.1348  0.2895  0.1716
10031TIP3    H151584   1.866   6.686   2.788 -0.6965  0.8742  1.9903
10031TIP3    H251585   1.791   6.570   2.725  1.4203  0.9961 -1.0092
10032TIP3   OH251586   3.272   0.476   1.897 -0.0920 -0.3020 -0.2360
10032TIP3    H151587   3.340   0.452   1.961 -0.0839  0.7085  0.1663
10032TIP3    H251588   3.321   0.515   1.824 -0.1485 -0.8202 -0.5499
10033TIP3   OH251589   4.617   1.587  15.324 -0.4582 -0.1907 -0.3251
10033TIP3    H151590   4.572   1.666  15.353  0.2096  0.3113 -0.6170
10033TIP3    H251591   4.708   1.615  15.310  0.0866 -1.2894  0.7822
10034TIP3   OH251592   0.845   2.824  12.708 -0.0913 -0.4397 -0.5138
10034TIP3    H151593   0.918   2.772  12.676  0.2909  0.7661 -1.7059
10034TIP3    H251594   0.794   2.763  12.761  1.6680 -1.3593  0.2231
10035TIP3   OH251595   3.314   5.961  14.768  0.0682  0.1250  0.3673
10035TIP3    H151596   3.409   5.952  14.776  0.3067  2.1981  0.3826
10035TIP3    H251597   3.299   5.960  14.673 -0.0277 -1.1054  0.3790
10036TIP3   OH251598   0.226   4.219   3.136 -0.5689  0.0396  0.8832
10036TIP3    H151599   0.211   4.140   3.189  1.7333 -1.4204 -0.4692
10036TIP3    H251600   0.185   4.199   3.052 -0.9615  0.7994  0.8827
10037TIP3   OH251601   3.601   6.318  14.924 -0.2005 -0.1860 -0.2227
10037TIP3    H151602   3.583   6.412  14.914 -0.9797 -0.2227  0.6800
10037TIP3    H251603   3.514   6.278  14.932  0.1065 -1.0616 -1.1497
10038TIP3   OH251604   1.522   0.367   4.001  0.2855 -0.1762  0.1806
10038TIP3    H151605   1.507   0.302   3.933  1.2020  1.3692 -1.5740
10038TIP3    H251606   1.614   0.392   3.992 -0.5151  2.8782 -0.6952
10039TIP3   OH251607   4.171   6.273   1.164  0.2822 -0.2193  0.4593
10039TIP3    H151608   4.109   6.326   1.114  0.7628  1.2305  1.3298
10039TIP3    H251609   4.198   6.204   1.104 -0.7593  0.2139 -0.5494
10040TIP3   OH251610   1.404   5.917  13.782  0.5062 -0.0044 -0.3740
10040TIP3    H151611   1.424   5.881  13.696 -0.5055 -1.4064 -0.0516
10040TIP3    H251612   1.370   6.004  13.765 -0.4014 -0.5543 -1.4589
10041TIP3   OH251613   0.105   4.617  12.076 -0.2923 -0.3824 -0.0714
10041TIP3    H151614   0.102   4.685  12.143 -0.3887 -1.8116  1.4246
10041TIP3    H251615   0.015   4.612  12.043 -0.2944  0.1593 -0.1634
10042TIP3   OH251616   2.064   1.139  15.884 -0.1565 -0.6429 -0.5054
10042TIP3    H151617   2.085   1.153  15.976 -2.1083 -0.1477 -0.1047
10042TIP3    H251618   2.125   1.196  15.837 -1.0537  1.3661  0.6361
10043TIP3   OH251619   1.119   3.302   3.029 -0.4951 -0.0999  0.1101
10043TIP3    H151620   1.193   3.253   2.993 -2.0044 -3.4495  1.0774
10043TIP3    H251621   1.157   3.358   3.096  1.1669 -1.9563  0.8098
10044TIP3   OH251622   4.540   0.804  14.539 -0.0599  0.2549  0.5869
10044TIP3    H151623   4.542   0.777  14.631 -2.0627 -0.6280  0.4375
10044TIP3    H251624   4.607   0.751  14.496 -0.6958 -1.0484  1.1513
10045TIP3   OH251625   5.687   0.821   0.911 -0.4872 -0.6292 -0.1190
10045TIP3    H151626   5.775   0.844   0.940 -0.8809  1.4739 -0.4388
10045TIP3    H251627   5.697   0.735   0.869  1.4189 -0.3831 -0.2348
10046TIP3   OH251628   3.663   0.564  16.818 -0.0744 -0.0029 -0.4913
10046TIP3    H151629   3.645   0.587  16.909 -1.0475 -0.1598 -0.6369
10046TIP3    H251630   3.624   0.477  16.807  0.8814 -0.4061 -0.7946
10047TIP3   OH251631   1.762   2.475   5.706  0.0711 -0.1375  0.4871
10047TIP3    H151632   1.812   2.516   5.635 -1.5559 -0.3514 -0.8412
10047TIP3    H251633   1.680   2.524   5.709 -0.8849 -1.6716  0.5600
10048TIP3   OH251634   3.667   3.852  14.379 -0.4990 -0.2583 -0.0825
10048TIP3    H151635   3.734   3.848  14.447 -2.1455 -0.4556  1.6198
10048TIP3    H251636   3.628   3.765  14.380  0.1238 -0.5972 -2.0622
10049TIP3   OH251637   4.204   3.702   6.560  0.2517 -1.0873 -0.1362
10049TIP3    H151638   4.199   3.619   6.609  0.4847 -1.2743 -0.4246
10049TIP3    H251639   4.298   3.720   6.553  0.2015 -0.7963 -0.0782
10050TIP3   OH251640   1.265   4.883   0.781 -0.0087  0.1255 -0.4310
10050TIP3    H151641   1.296   4.835   0.704 -1.3930  1.5241 -1.9401
10050TIP3    H251642   1.217   4.957   0.745  0.0570  1.3396  1.8113
10051TIP3   OH251643   1.487   5.813   5.145 -0.3321 -0.6462 -0.2626
10051TIP3    H151644   1.511   5.756   5.072 -0.7219 -1.2881  0.0968
10051TIP3    H251645   1.495   5.902   5.111  1.1820 -0.8706 -0.5728
10052TIP3   OH251646   5.926   0.737   3.002 -0.2684  0.1170 -0.2940
10052TIP3    H151647   5.993   0.758   3.067 -0.6704 -0.5619  0.3514
10052TIP3    H251648   5.941   0.800   2.931  1.0546 -0.0280 -0.1712
10053TIP3   OH251649   0.770   5.916  16.985 -0.0399 -0.2890  0.0829
10053TIP3    H151650   0.777   5.976  16.911  0.3210  0.3948  0.6551
10053TIP3    H251651   0.809   5.964  17.058 -3.2336  0.3984  1.5307
10054TIP3   OH251652   2.035   1.656  16.472 -0.1291 -0.6929 -0.2072
10054TIP3    H151653   2.016   1.732  16.526  0.5477 -0.3353 -0.4594
10054TIP3    H251654   1.953   1.637  16.427  0.0717  0.8113 -1.2889
10055TIP3   OH251655   0.869   0.001   3.295 -0.1778  0.6946 -0.4258
10055TIP3    H151656   0.857  -0.023   3.203 -0.4429  2.4512 -0.8842
10055TIP3    H251657   0.804   0.070   3.311  1.1367  1.7765  0.5012
10056TIP3   OH251658   1.933   4.543   4.167  0.2814  0.4169 -0.4803
10056TIP3    H151659   1.951   4.537   4.261  0.6143  1.2027 -0.4924
10056TIP3    H251660   1.870   4.472   4.151 -0.9012  1.1715  0.6145
10057TIP3   OH251661   1.699   1.974  16.989 -0.0558  0.3700  0.3147
10057TIP3    H151662   1.757   1.984  16.914  2.1474 -0.7302  1.7649
10057TIP3    H251663   1.717   2.050  17.044  0.3617 -0.2146  0.9968
10058TIP3   OH251664   1.029   1.450  16.891 -0.4968 -0.3437  0.1846
10058TIP3    H151665   1.111   1.482  16.928  0.5110 -0.6348 -1.6702
10058TIP3    H251666   1.012   1.508  16.817 -0.9604 -1.4368 -0.5822
10059TIP3   OH251667   0.837   3.755   6.382  0.4020 -0.0184  0.5952
10059TIP3    H151668   0.776   3.766   6.456  1.0262  0.0842  1.1047
10059TIP3    H251669   0.780   3.733   6.308 -0.1296 -1.7586  1.4510
10060TIP3   OH251670   5.335   0.192  16.398 -0.6709 -0.3973 -0.7030
10060TIP3    H151671   5.250   0.191  16.355 -2.2177  1.0808  2.1065
10060TIP3    H251672   5.383   0.263  16.355 -1.4979 -0.0904 -1.1324
10061TIP3   OH251673   4.086   2.573   5.424 -0.2431 -0.3852 -0.4909
10061TIP3    H151674   4.044   2.497   5.465 -0.1960 -0.0742  0.1499
10061TIP3    H251675   4.179   2.562   5.443 -0.4369  0.8926  1.4502
10062TIP3   OH251676   0.570   0.933  12.691  0.4469  0.0821  0.2358
10062TIP3    H151677   0.478   0.914  12.670 -0.2570  1.9216  1.4000
10062TIP3    H251678   0.583   0.895  12.778  0.2149  1.3507  0.8484
10063TIP3   OH251679   5.146   0.700   2.692  0.1191  0.0283  0.2601
10063TIP3    H151680   5.196   0.711   2.612 -0.8579  1.3442 -0.2184
10063TIP3    H251681   5.071   0.646   2.667  0.7526 -1.1026  0.7383
10064TIP3   OH251682   6.337   1.476   6.261 -0.0302 -0.2884  0.2889
10064TIP3    H151683   6.375   1.433   6.184 -1.3730 -2.8753  0.9818
10064TIP3    H251684   6.413   1.509   6.309  0.8539  1.6193 -2.1330
10065TIP3   OH251685   2.609   4.477   1.926  0.4109  0.4202  0.3486
10065TIP3    H151686   2.607   4.567   1.958 -1.1189  0.3233  0.6001
10065TIP3    H251687   2.553   4.478   1.848  1.3087 -0.0759 -0.3136
10066TIP3   OH251688   6.676   3.193  17.139  0.3608  0.8091  0.0796
10066TIP3    H151689   6.639   3.149  17.216  0.6748  0.9473  0.3093
10066TIP3    H251690   6.604   3.194  17.075  0.0825  0.7432  0.3895
10067TIP3   OH251691   6.345   1.020   1.893 -0.0226  0.0517 -0.1805
10067TIP3    H151692   6.420   0.965   1.869 -0.0381 -0.5029  0.9411
10067TIP3    H251693   6.348   1.094   1.833  2.3003  0.8071  0.7737
10068TIP3   OH251694   4.898   0.997  16.611  0.2796  0.2581 -0.0288
10068TIP3    H151695   4.924   0.955  16.693 -2.0326  0.3654  0.8352
10068TIP3    H251696   4.874   0.924  16.553  1.3945  0.2074 -0.4525
10069TIP3   OH251697   3.458   1.918   1.196 -0.5247 -0.2809 -0.1103
10069TIP3    H151698   3.478   1.957   1.111 -0.5890  0.4912  0.2172
10069TIP3    H251699   3.429   1.829   1.175 -1.3704  0.1705 -0.9783
10070TIP3   OH251700   0.847   2.736   2.660 -0.1511 -0.4246 -0.4779
10070TIP3    H151701   0.933   2.759   2.696 -0.4323  1.0600 -0.7152
10070TIP3    H251702   0.796   2.707   2.736 -0.0971  0.7510  0.0298
10071TIP3   OH251703   4.779   4.133   6.360 -0.0769 -0.0176 -0.0618
10071TIP3    H151704   4.699   4.136   6.414  0.0831  0.8517  0.1525
10071TIP3    H251705   4.816   4.047   6.377 -0.6952 -0.2341  0.2451
10072TIP3   OH251706   0.198   4.892  15.795  0.3863  0.0776 -0.2315
10072TIP3    H151707   0.135   4.907  15.866  0.8039 -2.2264  0.7333
10072TIP3    H251708   0.257   4.825  15.830  1.5828  0.0403 -2.1970
10073TIP3   OH251709   2.764   0.323   3.157 -0.1843  0.0564  0.0078
10073TIP3    H151710   2.716   0.402   3.181 -0.1487  0.0240  0.1841
10073TIP3    H251711   2.815   0.348   3.080 -0.6808  0.0177 -0.3404
10074TIP3   OH251712   4.024   0.526   4.174  0.2271 -0.2680  0.0245
10074TIP3    H151713   4.058   0.478   4.249 -0.4386 -0.4146  0.2458
10074TIP3    H251714   4.091   0.590   4.153 -0.3664  1.0620  1.9549
10075TIP3   OH251715   4.419   3.313  13.725  0.3743  0.3772  0.1282
10075TIP3    H151716   4.445   3.233  13.772  0.8819  1.1943  1.2916
10075TIP3    H251717   4.483   3.320  13.654 -0.4806 -0.9506 -0.8174
10076TIP3   OH251718   4.028   0.039  13.684 -0.0685  0.8771  0.1238
10076TIP3    H151719   3.937   0.057  13.659 -0.6852  0.1106  1.7057
10076TIP3    H251720   4.044  -0.050  13.652 -0.0819  0.7866  0.3656
10077TIP3   OH251721   3.880   0.857   2.251 -0.2838 -0.3706 -0.0994
10077TIP3    H151722   3.920   0.842   2.336 -1.7416 -1.0678  0.4988
10077TIP3    H251723   3.870   0.952   2.245 -0.4592 -0.3387  0.6499
10078TIP3   OH251724   3.851   1.932  11.679 -0.5847 -0.2051 -0.2146
10078TIP3    H151725   3.889   1.863  11.625  0.3523  0.1319 -0.0122
10078TIP3    H251726   3.758   1.932  11.657 -0.0809  0.6962 -2.7285
10079TIP3   OH251727   1.747   5.015   2.918 -0.2694  0.5385  0.4632
10079TIP3    H151728   1.815   5.025   2.851 -1.8914 -0.0561 -1.3686
10079TIP3    H251729   1.736   4.920   2.927 -0.8742  0.6272  0.7063
10080TIP3   OH251730   1.468   0.820   3.440 -0.2147  0.0925 -0.1080
10080TIP3    H151731   1.496   0.906   3.408 -1.7080  0.4239 -0.5924
10080TIP3    H251732   1.410   0.840   3.514 -0.6582 -0.4878 -0.2935
10081TIP3   OH251733   5.103   2.207   6.220  0.0346  0.3614  0.3904
10081TIP3    H151734   5.109   2.300   6.242 -0.4013  0.5083 -0.0995
10081TIP3    H251735   5.171   2.165   6.273  0.7315  1.0543  0.0547
10082TIP3   OH251736   6.358   0.830  17.583  0.4493  0.5551  0.1803
10082TIP3    H151737   6.426   0.769  17.554 -1.0897 -1.4209  0.4805
10082TIP3    H251738   6.325   0.792  17.664 -0.6373  1.7562  0.3291
10083TIP3   OH251739   0.463   6.167  17.289 -0.2736 -0.0372  1.1174
10083TIP3    H151740   0.502   6.094  17.336  0.7776 -0.0350  0.2808
10083TIP3    H251741   0.530   6.235  17.291 -0.1911 -0.0384 -0.3452
10084TIP3   OH251742   4.437   2.576   3.539 -0.4369  0.7157 -0.3052
10084TIP3    H151743   4.379   2.569   3.615  0.5393  1.4370  0.5356
10084TIP3    H251744   4.411   2.658   3.497 -0.7836  0.4606 -0.5996
10085TIP3   OH251745   1.865   5.069   3.958 -0.3727  0.0236  0.6196
10085TIP3    H151746   1.836   5.057   4.048 -0.5843 -0.7921  0.4489
10085TIP3    H251747   1.837   5.158   3.935  0.6618  0.6711  1.7147
10086TIP3   OH251748   4.021   2.958   3.591 -0.2496  0.2648 -0.0520
10086TIP3    H151749   3.961   3.028   3.564 -0.2051  1.6156  2.9661
10086TIP3    H251750   4.108   2.992   3.569 -0.3342  0.0891 -0.7004
10087TIP3   OH251751   1.811   1.879   0.694 -0.8057  0.1910 -0.6639
10087TIP3    H151752   1.856   1.828   0.626  0.3698 -0.3349  0.4660
10087TIP3    H251753   1.721   1.846   0.692 -0.5796 -0.4332 -1.3708
10088TIP3   OH251754   1.661   1.844   2.910 -0.7225  0.2198 -0.3385
10088TIP3    H151755   1.661   1.750   2.888 -1.5521  0.2445 -0.4522
10088TIP3    H251756   1.569   1.868   2.913 -0.6224  0.5200  1.9052
10089TIP3   OH251757   4.509   4.851  16.812  0.0853 -0.2950 -0.1208
10089TIP3    H151758   4.572   4.849  16.884 -0.3881 -0.7069  0.2897
10089TIP3    H251759   4.553   4.899  16.742  2.0548 -3.0184 -0.9451
10090TIP3   OH251760   0.091   0.120  14.904  0.5822 -0.2426 -0.0992
10090TIP3    H151761   0.105   0.135  14.997 -2.0396 -3.3598  0.9746
10090TIP3    H251762   0.160   0.059  14.878  0.2214 -0.8412  0.3243
10091TIP3   OH251763   3.989   4.286   0.810  0.4445  0.1441 -0.0056
10091TIP3    H151764   3.985   4.377   0.782  0.5598 -0.4724 -2.2201
10091TIP3    H251765   4.078   4.275   0.843  0.3788  0.8615  0.4201
10092TIP3   OH251766   5.821   5.078  16.808  0.4957  0.0492 -0.3092
10092TIP3    H151767   5.774   5.146  16.855 -1.0870  1.0764 -3.1517
10092TIP3    H251768   5.842   5.013  16.875  0.7144  2.5560  2.2352
10093TIP3   OH251769   1.794   6.704   3.973  0.1259  0.0928 -0.1418
10093TIP3    H151770   1.710   6.675   4.010  0.6707  1.1744  2.1507
10093TIP3    H251771   1.799   6.797   3.995  1.4328  0.3153 -1.2624
10094TIP3   OH251772   2.500   1.299   2.554 -0.4405  0.2480  0.4497
10094TIP3    H151773   2.487   1.368   2.619 -0.2691 -1.2941  2.1726
10094TIP3    H251774   2.541   1.227   2.602 -3.2076 -2.2078 -0.5475
10095TIP3   OH251775   5.279   0.369   1.448  0.1582  0.0177 -0.2231
10095TIP3    H151776   5.320   0.282   1.457 -1.4593 -0.6934  0.9059
10095TIP3    H251777   5.189   0.350   1.422  0.0692  1.4382 -1.0250
10096TIP3   OH251778   1.244   1.461  14.979 -0.1978 -0.2279  0.4691
10096TIP3    H151779   1.165   1.414  15.003 -0.8683  0.6124 -0.0097
10096TIP3    H251780   1.226   1.495  14.891 -0.2007  1.8132  1.1896
10097TIP3   OH251781   5.661   5.013   0.809 -0.3639 -0.2065 -0.1399
10097TIP3    H151782   5.662   5.061   0.891  0.4620 -0.2466 -0.1146
10097TIP3    H251783   5.668   4.921   0.834 -0.0300 -0.2139 -0.2528
10098TIP3   OH251784   6.050   6.580   0.798  0.5024  0.4115  0.2321
10098TIP3    H151785   6.145   6.567   0.797  0.5793  0.9127 -0.4433
10098TIP3    H251786   6.021   6.549   0.712  0.4213  2.5715 -0.5886
10099TIP3   OH251787   1.822   4.682  16.596 -0.2757 -0.2163  0.3203
10099TIP3    H151788   1.884   4.641  16.535 -0.2732  0.5704 -0.2121
10099TIP3    H251789   1.780   4.751  16.546 -0.1175  0.5938  1.2674
10100TIP3   OH251790   0.270   1.738  14.277  0.0876  0.8522 -0.0834
10100TIP3    H151791   0.236   1.794  14.207 -0.6815 -0.7799 -1.0809
10100TIP3    H251792   0.216   1.759  14.353 -0.2937  1.3473 -0.4798
10101TIP3   OH251793   1.248   3.733  15.256 -0.6663  0.2866  0.3244
10101TIP3    H151794   1.238   3.656  15.313 -0.6526  0.4894  0.6011
10101TIP3    H251795   1.299   3.795  15.308 -0.0430  0.1947 -0.1808
10102TIP3   OH251796   0.016   0.044  13.925  0.1671  0.1299  0.1327
10102TIP3    H151797  -0.046   0.020  13.994 -0.4439 -0.6629 -0.6635
10102TIP3    H251798   0.099   0.004  13.952 -0.2127 -0.6918  0.1309
10103TIP3   OH251799   0.616   5.739  10.802 -0.2440  0.1680 -0.2658
10103TIP3    H151800   0.623   5.654  10.846 -1.9827  1.1916  2.1976
10103TIP3    H251801   0.692   5.788  10.834  0.1066 -0.0382 -0.7632
10104TIP3   OH251802   2.451   6.737  17.645 -0.0736  0.0985 -0.3837
10104TIP3    H151803   2.475   6.726  17.737 -1.1890 -2.1723 -0.3002
10104TIP3    H251804   2.443   6.832  17.633  0.7892  0.4681  1.6520
10105TIP3   OH251805   1.962   2.578   5.519 -0.3969  0.5144 -0.5519
10105TIP3    H151806   2.038   2.551   5.571 -1.2156  2.7565  2.0573
10105TIP3    H251807   1.994   2.652   5.467 -0.3991  0.4578 -0.6331
10106TIP3   OH251808   3.990   4.376  12.020 -0.2005 -0.0270 -0.3845
10106TIP3    H151809   3.996   4.280  12.020  1.4142 -0.0543  2.8310
10106TIP3    H251810   4.080   4.406  12.005  0.1059  0.8118  2.5816
10107TIP3   OH251811   4.999   3.104  11.914 -0.1393 -0.5203  0.3259
10107TIP3    H151812   5.024   3.177  11.971  1.3262 -1.4920  0.9863
10107TIP3    H251813   5.080   3.077  11.871 -0.4936 -2.2134  0.6393
10108TIP3   OH251814   5.397   0.512   0.168  0.2574  0.7148 -0.2668
10108TIP3    H151815   5.401   0.608   0.167  0.8144  0.7086  0.6133
10108TIP3    H251816   5.332   0.491   0.235 -1.5913  0.4819 -2.0349
10109TIP3   OH251817   6.380   0.590  13.067 -1.0369 -0.3018  0.0469
10109TIP3    H151818   6.428   0.512  13.037 -0.2565  0.0020  0.4617
10109TIP3    H251819   6.319   0.609  12.996 -2.0464 -1.9503  0.4289
10110TIP3   OH251820   6.182   3.687   5.248 -0.5599  0.4051 -0.7935
10110TIP3    H151821   6.200   3.608   5.198 -2.0709  0.7850 -1.9768
10110TIP3    H251822   6.257   3.744   5.229  0.7075 -0.7827  0.3134
10111TIP3   OH251823   1.302   6.241   5.900 -0.1294 -0.3278 -0.1997
10111TIP3    H151824   1.350   6.204   5.975 -0.6506  0.0441  0.3174
10111TIP3    H251825   1.351   6.320   5.876 -1.3950  1.0052  1.4035
10112TIP3   OH251826   2.759   0.393  11.321 -0.4225  0.5296  0.3730
10112TIP3    H151827   2.727   0.369  11.408  2.0791 -0.3205  1.1378
10112TIP3    H251828   2.773   0.309  11.277  1.0079  0.8316  0.2090
10113TIP3   OH251829   1.538   1.815  15.225  0.2165 -0.1713 -0.1271
10113TIP3    H151830   1.465   1.841  15.282  0.3469 -0.5772  0.2303
10113TIP3    H251831   1.507   1.736  15.181  1.2215 -1.6480  1.6658
10114TIP3   OH251832   1.358   5.460  14.675 -0.1593 -0.3883  0.4822
10114TIP3    H151833   1.416   5.504  14.613 -1.2282 -0.3713 -0.5443
10114TIP3    H251834   1.323   5.531  14.730 -0.1057 -0.2589  0.3495
10115TIP3   OH251835   5.748   0.696   3.366  0.4528  1.0297 -0.3111
10115TIP3    H151836   5.705   0.782   3.364 -0.0334  1.0163  3.3865
10115TIP3    H251837   5.835   0.713   3.401  0.1033  0.0062  1.1475
10116TIP3   OH251838   4.374   1.977   0.807 -0.0521  0.1009 -0.5977
10116TIP3    H151839   4.421   2.042   0.858 -0.2746 -0.6453  0.5945
10116TIP3    H251840   4.294   1.960   0.856  0.7053 -2.1942 -0.0034
10117TIP3   OH251841   1.397   5.266  15.093 -0.2465  0.1451 -0.1958
10117TIP3    H151842   1.444   5.344  15.065 -1.2407  1.0639  0.5964
10117TIP3    H251843   1.312   5.272  15.049 -1.2165  0.7627  1.6687
10118TIP3   OH251844   0.645   0.717   4.571  0.0930 -0.5366  0.3346
10118TIP3    H151845   0.613   0.748   4.655  1.6465 -1.2056  1.2107
10118TIP3    H251846   0.739   0.705   4.583  0.1405 -2.0429 -1.0487
10119TIP3   OH251847   3.473   2.954   1.264  0.0330  0.4205  0.1316
10119TIP3    H151848   3.414   3.017   1.223 -2.1409 -0.9440  1.0169
10119TIP3    H251849   3.481   2.983   1.355 -0.4831 -0.1946  0.3845
10120TIP3   OH251850   1.032   0.746  10.636  0.3860  0.4800 -0.0316
10120TIP3    H151851   1.021   0.658  10.673 -0.2691  0.3939 -0.4230
10120TIP3    H251852   1.037   0.732  10.542  2.8039  0.6258  0.0237
10121TIP3   OH251853   5.251   0.001   1.637  0.1708 -0.4831  0.1008
10121TIP3    H151854   5.168   0.025   1.596  0.0227 -0.1838  0.5571
10121TIP3    H251855   5.317   0.045   1.584 -0.0762  0.6671  0.7025
10122TIP3   OH251856   2.277   4.462   3.255  0.4267 -0.3057 -0.3460
10122TIP3    H151857   2.314   4.550   3.262 -0.5724  0.1878 -0.9937
10122TIP3    H251858   2.215   4.456   3.328  1.3338 -0.9214  0.3998
10123TIP3   OH251859   6.682   1.862   5.331 -0.1800  0.2588  0.0774
10123TIP3    H151860   6.695   1.905   5.416 -2.1345 -1.5980  1.4360
10123TIP3    H251861   6.621   1.919   5.284 -0.1858  0.6277  0.5280
10124TIP3   OH251862   0.380   4.299   5.393  0.4083  0.1753  0.3264
10124TIP3    H151863   0.363   4.242   5.318 -2.5862  0.7915  0.4125
10124TIP3    H251864   0.324   4.375   5.379  1.8859  1.6119  1.8224
10125TIP3   OH251865   6.250   3.997  16.167  0.4616  0.2581  0.4009
10125TIP3    H151866   6.250   4.058  16.094 -0.4546 -0.2696 -0.0658
10125TIP3    H251867   6.172   4.020  16.218 -0.5110 -1.1608 -0.3739
10126TIP3   OH251868   4.288   2.290  10.798  0.3319  0.3817  0.2875
10126TIP3    H151869   4.355   2.259  10.858 -0.1230 -0.0612  0.5768
10126TIP3    H251870   4.310   2.382  10.783  1.1705  0.1624  0.1397
10127TIP3   OH251871   1.006   1.340   1.432 -0.2008  0.3764  0.2192
10127TIP3    H151872   1.034   1.409   1.492  1.0586  0.5035 -0.4717
10127TIP3    H251873   1.013   1.380   1.345 -1.4716  0.0269 -0.0663
10128TIP3   OH251874   0.620   3.154   5.332  0.6260  0.2003 -0.3792
10128TIP3    H151875   0.572   3.176   5.252  0.6942  1.9776  0.0292
10128TIP3    H251876   0.572   3.200   5.402  1.9802  0.7094  0.2452
10129TIP3   OH251877   4.908   1.409   4.562 -0.0378 -0.0033 -0.1772
10129TIP3    H151878   4.971   1.463   4.609  1.0061 -1.5687  0.3139
10129TIP3    H251879   4.831   1.407   4.619 -0.0789  0.8785 -0.1799
10130TIP3   OH251880   4.042   2.027   3.689  0.2353  0.1513  0.5336
10130TIP3    H151881   4.044   2.024   3.594 -0.0742 -1.2000  0.5378
10130TIP3    H251882   4.128   2.062   3.714  0.1181  1.0192 -0.2381
10131TIP3   OH251883   1.141   4.598  15.027  0.1396 -0.8172 -0.6577
10131TIP3    H151884   1.057   4.582  14.983  0.7688 -2.9669 -1.1943
10131TIP3    H251885   1.131   4.555  15.113  0.1929  0.2047 -0.1272
10132TIP3   OH251886   4.386   1.831  12.969 -0.2977 -0.5402 -0.2781
10132TIP3    H151887   4.326   1.905  12.956 -0.2012 -0.5480 -0.7748
10132TIP3    H251888   4.462   1.870  13.011 -0.3123 -0.3830 -0.3960
10133TIP3   OH251889   2.207   2.895   6.071 -0.7824 -0.0917  0.2195
10133TIP3    H151890   2.169   2.842   6.141 -0.9828 -2.9061 -1.8495
10133TIP3    H251891   2.145   2.888   5.999  0.4806  0.7871 -1.0030
10134TIP3   OH251892   5.875   3.716   6.231  0.1517  0.0032 -0.1450
10134TIP3    H151893   5.914   3.776   6.167 -0.5358  0.9843  0.3261
10134TIP3    H251894   5.922   3.734   6.312 -1.0487  1.0265  0.3714
10135TIP3   OH251895   3.296   4.824   0.410  0.6333 -0.2017 -0.0278
10135TIP3    H151896   3.334   4.886   0.347 -0.5602  0.0756 -0.5158
10135TIP3    H251897   3.204   4.851   0.417  0.2697 -1.4646  0.3190
10136TIP3   OH251898   3.542   0.964  14.722 -0.1471  0.0808  0.8753
10136TIP3    H151899   3.637   0.976  14.726 -0.1829  0.2344  1.3812
10136TIP3    H251900   3.514   0.967  14.813 -0.4531 -1.5298  0.8600
10137TIP3   OH251901   5.737   5.892   4.933  0.3794 -0.0607 -0.5696
10137TIP3    H151902   5.709   5.801   4.933 -1.7975  0.5484 -0.3806
10137TIP3    H251903   5.656   5.942   4.948  1.6725  1.8469  0.4763
10138TIP3   OH251904   6.055   3.790  12.725  0.6387  0.0889  0.6913
10138TIP3    H151905   6.066   3.828  12.638 -2.9156 -0.5779 -0.1991
10138TIP3    H251906   6.130   3.732  12.735  0.8879 -0.2395 -2.1789
10139TIP3   OH251907   6.191   4.140  12.863 -0.0637  0.2819 -0.2388
10139TIP3    H151908   6.115   4.199  12.865  1.4250  2.3784 -1.2923
10139TIP3    H251909   6.183   4.094  12.779 -1.0492 -0.8584  0.4373
10140TIP3   OH251910   6.408   6.576   0.294  0.1274 -0.3493  0.5476
10140TIP3    H151911   6.490   6.527   0.298  1.7705  2.1484  0.0906
10140TIP3    H251912   6.435   6.668   0.298 -2.5480  0.6273 -1.0462
10141TIP3   OH251913   1.084   1.494   1.903 -0.2697  0.8498 -0.0924
10141TIP3    H151914   1.001   1.468   1.862 -0.0900 -1.6010  0.9308
10141TIP3    H251915   1.083   1.590   1.899 -2.2890  0.8493 -1.7414
10142TIP3   OH251916   3.044   3.192  13.441  0.0345  0.0392  0.2718
10142TIP3    H151917   3.101   3.125  13.480  2.9767  2.9633  1.4391
10142TIP3    H251918   3.088   3.216  13.360 -0.4735  1.1496  0.3134
10143TIP3   OH251919   0.913   1.609  14.938  0.0086  0.0237 -0.0892
10143TIP3    H151920   0.954   1.543  14.883  0.4044 -1.1899  1.5788
10143TIP3    H251921   0.983   1.673  14.955  0.0726  0.0515 -0.4583
10144TIP3   OH251922   5.087   4.864  14.641 -0.2744 -0.6621 -0.3438
10144TIP3    H151923   5.176   4.831  14.644  0.6274  1.5884 -0.0448
10144TIP3    H251924   5.068   4.877  14.548 -0.5741 -1.8206 -0.4492
10145TIP3   OH251925   0.677   3.128   0.780 -0.5580  0.2597  0.4903
10145TIP3    H151926   0.596   3.095   0.818  0.1881 -0.9349  1.0985
10145TIP3    H251927   0.664   3.121   0.686  0.2302 -3.7838  0.4870
10146TIP3   OH251928   4.526   5.134   0.555  0.2122  0.6770 -0.0076
10146TIP3    H151929   4.595   5.154   0.618 -0.1080 -0.4294  0.7209
10146TIP3    H251930   4.446   5.164   0.598 -0.0423 -0.3574  0.2686
10147TIP3   OH251931   4.971   4.107   5.216  0.0946 -0.5398 -0.4195
10147TIP3    H151932   4.999   4.199   5.214  0.5308 -0.6267  0.7676
10147TIP3    H251933   4.903   4.105   5.283  2.9953 -1.7938  2.7412
10148TIP3   OH251934   1.955   3.473  17.318 -0.5517 -0.1352  0.5737
10148TIP3    H151935   1.946   3.416  17.394  1.4694  0.4792  1.3494
10148TIP3    H251936   2.028   3.531  17.340 -0.3509  0.5137 -1.5638
10149TIP3   OH251937   0.088   5.318  16.896  0.2376 -0.0389 -0.1794
10149TIP3    H151938   0.148   5.366  16.839  0.0970 -0.3995 -0.6330
10149TIP3    H251939   0.144   5.281  16.964  0.5127 -0.2754 -0.5324
10150TIP3   OH251940   5.113   6.248   5.675 -0.0520 -0.1465  0.4832
10150TIP3    H151941   5.144   6.158   5.687 -0.1183 -0.0784  1.2148
10150TIP3    H251942   5.165   6.281   5.602 -0.5774 -1.0276 -0.3068
10151TIP3   OH251943   5.413   3.451   3.294 -0.4070  0.0084  0.4004
10151TIP3    H151944   5.397   3.417   3.206  0.4487  3.1331 -1.0902
10151TIP3    H251945   5.332   3.496   3.318  0.0716  0.9663  0.2741
10152TIP3   OH251946   5.301   2.185  14.393  0.5434 -0.2086 -0.2183
10152TIP3    H151947   5.218   2.146  14.363  1.8454 -2.9750 -0.5639
10152TIP3    H251948   5.321   2.252  14.328  0.3011 -1.9724 -2.2479
10153TIP3   OH251949   0.626   6.534  13.135 -0.3039 -0.2580 -0.0406
10153TIP3    H151950   0.671   6.507  13.055  1.0205 -2.3497  1.2856
10153TIP3    H251951   0.551   6.474  13.142 -2.0337  1.6669 -1.0163
10154TIP3   OH251952   3.322   1.753  15.061 -0.7464  0.5146  0.1564
10154TIP3    H151953   3.374   1.681  15.024 -0.7658  0.4495  0.2549
10154TIP3    H251954   3.379   1.791  15.128 -0.3878  1.1547 -0.4901
10155TIP3   OH251955   5.988   3.695   0.510 -0.2961  0.3632 -0.5194
10155TIP3    H151956   6.050   3.634   0.548  1.3866  1.8318 -0.7837
10155TIP3    H251957   5.982   3.670   0.418 -0.1780  0.1541 -0.4697
10156TIP3   OH251958   4.059   2.869  16.770  0.5798  0.1790 -0.2718
10156TIP3    H151959   4.105   2.806  16.714  2.1041  0.7943  0.2284
10156TIP3    H251960   4.121   2.941  16.780 -1.2256  1.9321 -1.0652
10157TIP3   OH251961   0.600   0.022   5.035 -0.4011 -0.0664 -0.4366
10157TIP3    H151962   0.569   0.065   4.955 -1.7645 -1.7283 -0.8547
10157TIP3    H251963   0.548   0.061   5.105 -1.4950 -0.8457 -0.7879
10158TIP3   OH251964   2.433   6.329   4.388  0.2499  1.0094 -0.0103
10158TIP3    H151965   2.403   6.419   4.392  0.1478  0.9494  0.6717
10158TIP3    H251966   2.423   6.296   4.477  1.2232  0.6282 -0.0252
10159TIP3   OH251967   1.849   3.229   4.063 -0.4110 -0.6205 -0.6462
10159TIP3    H151968   1.838   3.152   4.119  0.0021 -0.7696 -0.7691
10159TIP3    H251969   1.903   3.288   4.114 -0.5818 -0.4826 -0.6239
10160TIP3   OH251970   1.124   0.739   1.720  0.0633 -0.1856  0.3276
10160TIP3    H151971   1.150   0.788   1.798 -1.2644  0.7532  0.2342
10160TIP3    H251972   1.028   0.734   1.726  0.0784 -1.7721 -0.2819
10161TIP3   OH251973   2.363   5.981   1.627 -0.2068 -0.5226  0.1568
10161TIP3    H151974   2.392   6.062   1.669 -3.3774  1.0574 -0.4072
10161TIP3    H251975   2.409   5.980   1.543  0.4678  0.2683  0.5006
10162TIP3   OH251976   0.882   0.499   1.493 -0.2195 -0.1737 -0.2065
10162TIP3    H151977   0.852   0.511   1.583  0.2255  0.4363 -0.1355
10162TIP3    H251978   0.971   0.465   1.502  0.5984  1.7682 -0.3771
10163TIP3   OH251979   0.471   5.629  14.504  0.3981  0.4430 -0.4069
10163TIP3    H151980   0.509   5.561  14.559  1.7238  1.6102  0.1744
10163TIP3    H251981   0.390   5.590  14.471  0.6236 -1.0472  0.6827
10164TIP3   OH251982   1.966   1.759  14.658  0.1909  0.0546 -0.2501
10164TIP3    H151983   1.873   1.777  14.646 -0.8203 -2.3139  2.8402
10164TIP3    H251984   1.996   1.827  14.718  0.2245  0.2875 -0.5303
10165TIP3   OH251985   2.678   2.724   0.187  0.3623  0.4489  0.0214
10165TIP3    H151986   2.625   2.702   0.263  1.4974  0.1134  0.7340
10165TIP3    H251987   2.733   2.797   0.216  0.7650  0.3549 -0.4847
10166TIP3   OH251988   4.749   5.242  13.879  0.1446  0.0695  0.4821
10166TIP3    H151989   4.823   5.212  13.826  1.1228  0.3200  1.6700
10166TIP3    H251990   4.673   5.231  13.822  0.8395 -1.9440 -0.1381
10167TIP3   OH251991   6.261   3.693   4.735 -0.1819 -0.1090 -0.2190
10167TIP3    H151992   6.325   3.670   4.668  0.2028 -0.8790  0.3993
10167TIP3    H251993   6.286   3.780   4.765  0.0386 -0.0407 -0.6057
10168TIP3   OH251994   0.631   3.049   4.914  0.0283  0.6672  0.4648
10168TIP3    H151995   0.686   3.059   4.991  0.7992 -4.0177  0.8384
10168TIP3    H251996   0.651   2.961   4.881 -1.3971  1.7765 -4.2168
10169TIP3   OH251997   4.288   2.383  14.274  0.3534  0.5929  0.3696
10169TIP3    H151998   4.349   2.455  14.258  3.2121 -1.3408  1.7321
10169TIP3    H251999   4.279   2.340  14.188  2.1386  0.0637  0.4136
10170TIP3   OH252000   4.469   0.790  10.835 -0.2050  0.5761 -0.1331
10170TIP3    H152001   4.452   0.710  10.785  1.8500 -0.3126  0.4871
10170TIP3    H252002   4.382   0.817  10.867 -0.8281 -2.2881  0.9296
10171TIP3   OH252003   0.839   5.228   4.979 -0.3169 -0.2710 -0.3818
10171TIP3    H152004   0.744   5.226   4.972 -0.3215  0.7978 -0.8425
10171TIP3    H252005   0.867   5.292   4.914  0.7687 -1.0148 -0.6838
10172TIP3   OH252006   2.901   4.176  15.235 -0.0885  0.4906  0.3278
10172TIP3    H152007   2.838   4.132  15.292 -0.9091  0.6428 -0.4403
10172TIP3    H252008   2.895   4.269  15.259  1.0179  0.3208  1.3532
10173TIP3   OH252009   5.581   1.489  14.731  0.5457 -0.4338 -0.3777
10173TIP3    H152010   5.626   1.414  14.770 -1.3281 -1.5943 -0.3313
10173TIP3    H252011   5.651   1.539  14.690  2.2928 -0.4584  2.2951
10174TIP3   OH252012   0.203   4.043  14.371 -0.4090  0.5236 -0.3082
10174TIP3    H152013   0.220   4.121  14.317 -3.1547  0.3045 -1.6708
10174TIP3    H252014   0.194   3.972  14.307  2.4176 -1.1380  0.9141
10175TIP3   OH252015   0.666   0.006   1.979 -1.0422  0.3302  0.0596
10175TIP3    H152016   0.724  -0.025   1.910 -2.2474  0.3730 -1.0192
10175TIP3    H252017   0.622   0.082   1.940  0.4935  2.2855  1.9828
10176TIP3   OH252018   6.055   1.711   0.222 -0.6403 -0.1576 -0.5373
10176TIP3    H152019   5.993   1.771   0.264 -1.4378 -1.3124 -0.0007
10176TIP3    H252020   6.087   1.758   0.145 -2.3014  0.4097 -0.9057
10177TIP3   OH252021   3.491   5.147   4.281  0.6518 -0.0026 -0.1056
10177TIP3    H152022   3.552   5.087   4.324  0.9840  1.1954  1.1940
10177TIP3    H252023   3.513   5.233   4.318 -0.0202  0.8727 -1.6628
10178TIP3   OH252024   2.035   2.513   2.788  0.1502  0.3507  0.0779
10178TIP3    H152025   1.985   2.539   2.865  0.7226  1.2509  0.1606
10178TIP3    H252026   2.087   2.590   2.765  2.2402 -0.8236  0.5744
10179TIP3   OH252027   0.723   1.986  12.687 -0.0663  0.0019  0.1008
10179TIP3    H152028   0.675   2.026  12.760  0.0149  0.3900 -0.0536
10179TIP3    H252029   0.811   2.023  12.693  0.2226 -0.7116  0.3851
10180TIP3   OH252030   3.849   1.307   2.838 -0.4373  0.2902 -0.6315
10180TIP3    H152031   3.881   1.242   2.776 -1.1187 -0.0381 -0.6480
10180TIP3    H252032   3.832   1.385   2.785 -0.1856  0.2933 -0.7083
10181TIP3   OH252033   5.575   4.543  16.499  0.0865  0.1942  0.7307
10181TIP3    H152034   5.642   4.603  16.531 -1.8585  3.4950 -0.8534
10181TIP3    H252035   5.615   4.501  16.423  1.1595  0.2476  1.2541
10182TIP3   OH252036   1.703   6.662  16.854  0.4532  0.2411 -0.2043
10182TIP3    H152037   1.672   6.743  16.813  1.5204  1.5846  1.5216
10182TIP3    H252038   1.645   6.649  16.929  1.3515  0.3638  0.5210
10183TIP3   OH252039   2.800   1.717  17.671 -0.2196 -0.1838  0.0948
10183TIP3    H152040   2.831   1.704  17.761 -0.8701 -2.2243  0.0801
10183TIP3    H252041   2.862   1.668  17.617  0.2258  1.1116 -0.6144
10184TIP3   OH252042   1.905   1.504  16.181  0.4116  0.0484 -0.2759
10184TIP3    H152043   1.907   1.409  16.173 -0.3451  0.1044 -1.3414
10184TIP3    H252044   1.960   1.535  16.109 -1.9564  0.4601 -2.0181
10185TIP3   OH252045   5.691   3.779  15.921 -0.5077 -0.3600  0.4260
10185TIP3    H152046   5.639   3.772  16.000 -1.8097 -2.0712 -0.5230
10185TIP3    H252047   5.739   3.696  15.916  1.4946  0.7044  0.6576
10186TIP3   OH252048   5.528   2.659   4.182  0.3014  0.0102 -0.1935
10186TIP3    H152049   5.494   2.746   4.201  0.5921 -0.3520  2.4786
10186TIP3    H252050   5.566   2.665   4.095  0.4527  2.5933 -0.0009
10187TIP3   OH252051   2.484   3.462  13.283 -0.2394  0.1636  0.3211
10187TIP3    H152052   2.528   3.398  13.340  0.3571  0.0317 -0.2677
10187TIP3    H252053   2.393   3.434  13.281 -0.1037 -0.3087  0.5743
10188TIP3   OH252054   0.335   6.401   3.495 -0.2861  0.2506 -0.0352
10188TIP3    H152055   0.417   6.359   3.524  0.0132 -0.5306 -1.8941
10188TIP3    H252056   0.345   6.493   3.521  0.6778 -0.0691  0.7890
10189TIP3   OH252057   3.160   3.541  16.817  0.6490  0.3698  0.0138
10189TIP3    H152058   3.158   3.637  16.811  1.5874  0.5131  1.4921
10189TIP3    H252059   3.248   3.521  16.849 -0.4207 -0.7981  2.4200
10190TIP3   OH252060   2.208   3.648  14.125  0.0259 -0.6318  0.2576
10190TIP3    H152061   2.241   3.587  14.059  1.8761  0.0877  0.4448
10190TIP3    H252062   2.154   3.710  14.076  0.8046 -0.5217 -0.4954
10191TIP3   OH252063   4.649   0.064  13.587 -0.7216 -0.2654 -0.2373
10191TIP3    H152064   4.570   0.061  13.532 -1.4996 -1.6311  0.8915
10191TIP3    H252065   4.646  -0.017  13.637  0.6000  0.3935  0.9638
10192TIP3   OH252066   4.457   1.331   5.164 -0.3660  0.0499 -0.0977
10192TIP3    H152067   4.375   1.282   5.165  0.8108 -2.0293  0.1355
10192TIP3    H252068   4.455   1.380   5.082 -0.8631 -1.7506 -1.1958
10193TIP3   OH252069   4.185   1.296   4.228 -0.5833  0.7157  0.4415
10193TIP3    H152070   4.259   1.251   4.269  0.3991  1.0767 -0.8626
10193TIP3    H252071   4.116   1.295   4.295  0.1734 -0.6987  1.2574
10194TIP3   OH252072   3.109   1.202  11.553  0.3276  0.1015  0.9679
10194TIP3    H152073   3.098   1.234  11.643  1.5219  0.4940  0.9948
10194TIP3    H252074   3.200   1.222  11.532 -0.4186  1.7591 -1.0160
10195TIP3   OH252075   3.677   4.661   3.292  0.8462  0.1110  0.0661
10195TIP3    H152076   3.742   4.699   3.233 -0.9215  2.7342 -0.3748
10195TIP3    H252077   3.666   4.726   3.361 -3.5452  1.4560 -1.5786
10196TIP3   OH252078   6.041   5.460   3.360  1.3797 -0.1204  0.2936
10196TIP3    H152079   5.952   5.434   3.384  0.5224  2.0768 -0.2410
10196TIP3    H252080   6.093   5.445   3.439 -0.4479  2.7484  2.2542
10197TIP3   OH252081   4.078   5.783  16.321 -0.2058  0.1773  0.2009
10197TIP3    H152082   4.031   5.714  16.367  1.2445 -0.8356  0.2325
10197TIP3    H252083   4.030   5.795  16.239  0.1040 -1.6298 -0.2763
10198TIP3   OH252084   4.662   3.655   2.268 -0.0568 -0.2047 -0.1612
10198TIP3    H152085   4.587   3.661   2.209 -0.5755  1.5745  0.6195
10198TIP3    H252086   4.737   3.640   2.209 -0.3575  2.8359 -1.5281
10199TIP3   OH252087   2.887   0.287   4.949  0.0426  0.2172 -0.1987
10199TIP3    H152088   2.850   0.371   4.975  2.7295  1.6229 -0.5488
10199TIP3    H252089   2.939   0.259   5.025  1.8679  0.6096 -1.2492
10200TIP3   OH252090   6.411   1.355  13.633  0.1978 -0.5652  0.0531
10200TIP3    H152091   6.430   1.440  13.674  1.9640 -1.1111  0.4655
10200TIP3    H252092   6.360   1.377  13.555  0.9251  0.9127 -0.0488
10201TIP3   OH252093   1.458   3.052  17.462 -0.1733 -0.5878  0.5153
10201TIP3    H152094   1.525   2.985  17.473 -0.4480 -0.6374  2.1593
10201TIP3    H252095   1.501   3.134  17.485  0.0136 -0.2345 -0.9725
10202TIP3   OH252096   3.155   5.026  13.081  0.5554 -0.2416  0.0322
10202TIP3    H152097   3.187   5.030  13.171 -1.1905 -1.1259  0.7419
10202TIP3    H252098   3.104   5.107  13.070 -2.2299 -1.6937  1.1447
10203TIP3   OH252099   2.882   2.224  12.418  0.2659 -0.0829  0.1696
10203TIP3    H152100   2.874   2.228  12.323 -0.9367 -1.0234  0.2060
10203TIP3    H252101   2.927   2.141  12.434 -2.3305 -1.5472  0.4846
10204TIP3   OH252102   1.339   4.539  14.841 -0.7301  0.4898 -0.1548
10204TIP3    H152103   1.297   4.569  14.922 -2.1016  1.7234 -1.2663
10204TIP3    H252104   1.317   4.446  14.835  0.6722 -0.0068  1.6144
10205TIP3   OH252105   4.939   4.849  12.448  0.5231  0.0725 -0.0122
10205TIP3    H152106   4.963   4.904  12.373  0.4487 -0.5703 -0.5142
10205TIP3    H252107   4.933   4.911  12.521  3.6822  0.3065  0.1846
10206TIP3   OH252108   4.548   1.125   5.466  0.4101  0.0825 -0.5359
10206TIP3    H152109   4.574   1.216   5.457  0.5603  0.1806  0.6693
10206TIP3    H252110   4.589   1.096   5.548  0.3866 -1.0713 -0.9113
10207TIP3   OH252111   6.061   6.157   5.615  0.6844 -0.5023  0.7109
10207TIP3    H152112   5.979   6.197   5.584  1.0782 -1.6721 -2.1237
10207TIP3    H252113   6.033   6.081   5.666 -0.0400 -0.6892  0.0576
10208TIP3   OH252114   5.677   4.059  12.599  0.8813  0.4543 -0.4055
10208TIP3    H152115   5.750   4.044  12.660  1.9589 -1.1650 -1.9614
10208TIP3    H252116   5.638   3.972  12.587 -0.9210  1.1931 -0.0954
10209TIP3   OH252117   0.002   3.747   1.999  0.4454  0.3134  0.7701
10209TIP3    H152118  -0.037   3.832   1.981  0.5077  0.0722 -0.6539
10209TIP3    H252119  -0.039   3.687   1.936  0.0388 -0.8231  2.0621
10210TIP3   OH252120   4.333   0.730  16.290  0.1621 -0.4512  0.2329
10210TIP3    H152121   4.333   0.712  16.196  1.4736  1.0738 -0.0950
10210TIP3    H252122   4.424   0.748  16.311 -0.1450 -0.5854  1.7779
10211TIP3   OH252123   4.875   1.173   0.905 -0.0435 -0.4045 -0.0462
10211TIP3    H152124   4.783   1.151   0.889  0.1607 -3.0076  1.8179
10211TIP3    H252125   4.917   1.158   0.820 -1.1366 -0.1714 -0.6645
10212TIP3   OH252126   6.496   0.442   5.812 -0.0598 -0.4274 -0.0723
10212TIP3    H152127   6.450   0.526   5.804 -0.8715 -0.5041  2.8472
10212TIP3    H252128   6.566   0.459   5.875  1.1529 -1.4683 -1.0639
10213TIP3   OH252129   2.038   4.654  15.331  0.2041  0.0644 -0.5860
10213TIP3    H152130   2.002   4.631  15.416  1.1963  0.8479  0.0711
10213TIP3    H252131   1.988   4.731  15.304  0.4904  0.3563 -0.2907
10214TIP3   OH252132   1.741   3.397  12.471  0.4087 -0.0763 -0.0641
10214TIP3    H152133   1.821   3.414  12.520  1.3833 -1.9955 -0.8867
10214TIP3    H252134   1.693   3.333  12.524  0.9445 -1.3171 -1.0350
10215TIP3   OH252135   5.462   1.305   4.268  0.0336  0.1900  0.2290
10215TIP3    H152136   5.403   1.236   4.237  0.6157  0.6623 -2.1002
10215TIP3    H252137   5.513   1.264   4.338 -1.5384 -0.8586  0.8264
10216TIP3   OH252138   6.511   4.440   6.129 -0.3099 -0.6868 -0.3921
10216TIP3    H152139   6.452   4.513   6.115  0.3020  0.0160  0.5611
10216TIP3    H252140   6.559   4.431   6.047 -2.2697 -1.8067 -1.4926
10217TIP3   OH252141   0.484   1.698   3.857  0.2004 -0.0082 -0.6088
10217TIP3    H152142   0.472   1.787   3.888 -1.4032 -0.2648 -0.4007
10217TIP3    H252143   0.516   1.650   3.933 -0.1662  0.1316 -0.3627
10218TIP3   OH252144   4.596   1.426   2.296 -0.0399  0.2063  0.2660
10218TIP3    H152145   4.689   1.444   2.310  0.3069  0.6428 -2.2054
10218TIP3    H252146   4.572   1.367   2.369  1.7362  1.3034  1.8352
10219TIP3   OH252147   3.129   6.674  16.228 -0.0610 -0.0990 -0.4767
10219TIP3    H152148   3.048   6.702  16.184 -0.6984 -0.2056  0.5878
10219TIP3    H252149   3.109   6.681  16.321  0.5959 -1.7246 -0.1801
10220TIP3   OH252150   0.457   3.456  17.195 -0.0763  0.1871  0.8044
10220TIP3    H152151   0.412   3.441  17.278 -0.1282 -1.4928  0.5058
10220TIP3    H252152   0.472   3.369  17.159  0.6399  0.8431 -0.5939
10221TIP3   OH252153   4.066   0.831  14.917  0.4045 -0.6108  0.4352
10221TIP3    H152154   4.105   0.865  14.836  0.3068 -0.5371  0.4188
10221TIP3    H252155   4.099   0.888  14.986  0.7574 -0.8819  0.4907
10222TIP3   OH252156   4.052   0.484   4.634  0.1571  0.2559  0.2825
10222TIP3    H152157   4.047   0.391   4.654 -1.1852  0.5934  1.6066
10222TIP3    H252158   4.117   0.519   4.696 -0.6166  0.4871  0.9815
10223TIP3   OH252159   0.542   2.998  15.026 -0.1429  0.5083 -0.5347
10223TIP3    H152160   0.616   2.973  15.082 -0.2983  0.2721 -0.4310
10223TIP3    H252161   0.520   3.087  15.053  0.0497  0.5454 -0.5048
10224TIP3   OH252162   3.497   5.113  15.763 -0.0400 -0.2268  0.7571
10224TIP3    H152163   3.574   5.110  15.820 -0.9014 -1.7773  1.9377
10224TIP3    H252164   3.431   5.159  15.815 -0.5232 -0.7534  0.6195
10225TIP3   OH252165   0.426   5.511  11.825  0.1551 -0.2248  0.5304
10225TIP3    H152166   0.479   5.435  11.798  0.8064  1.2998 -3.0535
10225TIP3    H252167   0.479   5.554  11.892  0.4340 -2.0836  1.5868
10226TIP3   OH252168   1.247   5.566  15.150 -0.4133 -0.1857  0.1706
10226TIP3    H152169   1.155   5.543  15.133 -1.3244  1.5069  2.3226
10226TIP3    H252170   1.269   5.630  15.083 -1.0146 -0.1410  0.0113
10227TIP3   OH252171   2.003   0.477  16.334  0.1900  0.4902 -0.7734
10227TIP3    H152172   2.056   0.414  16.285 -1.4508 -0.6955 -1.1330
10227TIP3    H252173   1.985   0.432  16.417  1.6111  1.8253  0.3108
10228TIP3   OH252174   0.843   4.942  11.817 -0.4120  0.2695  0.4819
10228TIP3    H152175   0.855   5.025  11.772 -2.1208  0.2860 -0.0083
10228TIP3    H252176   0.915   4.937  11.879  0.4301  1.5140 -0.3719
10229TIP3   OH252177   0.598   0.404  15.577 -0.0635  0.1627  0.2665
10229TIP3    H152178   0.542   0.480  15.559  0.7749  1.2160  1.8063
10229TIP3    H252179   0.594   0.351  15.498 -1.1588  1.5119 -0.6258
10230TIP3   OH252180   4.537   1.079  16.254 -0.0706  0.0996 -0.3852
10230TIP3    H152181   4.455   1.073  16.204  0.5456 -0.3688 -1.3817
10230TIP3    H252182   4.596   1.017  16.210  0.7680  0.3091  0.4147
10231TIP3   OH252183   6.589   5.725   5.702 -0.0952 -0.7662 -0.7402
10231TIP3    H152184   6.684   5.719   5.716 -0.3018 -1.0405  0.7301
10231TIP3    H252185   6.573   5.818   5.685  0.1136 -0.1113  2.1230
10232TIP3   OH252186   4.920   4.245   3.334 -0.0271 -0.2916  0.6082
10232TIP3    H152187   4.943   4.240   3.241 -2.0010 -0.6990  0.0817
10232TIP3    H252188   4.846   4.306   3.337 -0.1194 -0.4438  1.8887
10233TIP3   OH252189   2.524   5.776  17.493 -0.0566 -0.0718 -0.4320
10233TIP3    H152190   2.488   5.838  17.556  1.1794  0.5398 -0.2982
10233TIP3    H252191   2.465   5.700  17.497 -1.5422  1.0416 -0.5383
10234TIP3   OH252192   4.168   6.499  16.813 -0.1425  0.0075  0.2585
10234TIP3    H152193   4.102   6.505  16.881 -0.1849  0.7212  0.1576
10234TIP3    H252194   4.121   6.516  16.731  0.3425  1.5893  0.2843
10235TIP3   OH252195   4.299   2.110   1.108 -0.3899  0.3837  0.1603
10235TIP3    H152196   4.361   2.049   1.148  0.4113  1.0606 -0.0503
10235TIP3    H252197   4.219   2.099   1.160 -0.2948 -0.8937  0.0856
10236TIP3   OH252198   6.281   3.327  14.986  0.4771 -0.0043  0.0721
10236TIP3    H152199   6.238   3.392  15.042 -1.4566 -1.1285  0.0020
10236TIP3    H252200   6.372   3.354  14.982  0.2552  1.2182  2.1497
10237TIP3   OH252201   5.990   5.817  15.462 -0.5600 -0.5328 -0.2653
10237TIP3    H152202   6.028   5.746  15.409  1.2112 -0.6701  1.1005
10237TIP3    H252203   6.009   5.896  15.412  1.2783 -0.6383  0.1776
10238TIP3   OH252204   0.984   6.730   2.130  0.4998 -0.3439 -0.4348
10238TIP3    H152205   1.034   6.683   2.197  0.5593 -1.0784 -0.9914
10238TIP3    H252206   0.893   6.701   2.143  0.1271  1.2066  0.7642
10239TIP3   OH252207   1.035   3.396   1.364 -0.5997  0.0637  0.2897
10239TIP3    H152208   1.020   3.439   1.448 -1.8229 -0.9855  0.6400
10239TIP3    H252209   1.074   3.312   1.387 -3.2958 -1.3624  0.0795
10240TIP3   OH252210   3.715   5.688   4.138 -0.9781 -0.1557 -0.3633
10240TIP3    H152211   3.800   5.658   4.106  0.2227  0.9766  1.5042
10240TIP3    H252212   3.694   5.764   4.084 -0.1165  0.3697  0.0270
10241TIP3   OH252213   5.439   1.767   1.233  0.0145 -0.4403 -0.2561
10241TIP3    H152214   5.525   1.727   1.249 -0.7659 -1.5918  1.3020
10241TIP3    H252215   5.440   1.847   1.285  0.5588  0.1890 -1.1990
10242TIP3   OH252216   2.314   0.591   2.837  0.0298 -0.0705  0.4575
10242TIP3    H152217   2.362   0.668   2.869  0.9884 -1.0576  1.4868
10242TIP3    H252218   2.329   0.591   2.743 -1.3340  1.8845  0.1586
10243TIP3   OH252219   3.969   6.028  12.026 -0.0939  0.4646 -0.1393
10243TIP3    H152220   3.923   6.059  12.104  0.3205  1.2823 -0.2036
10243TIP3    H252221   4.043   5.977  12.060  0.0316  0.7405  0.0030
10244TIP3   OH252222   6.576   4.037  14.233  0.1116 -0.3342 -0.1929
10244TIP3    H152223   6.567   3.945  14.206  0.4713 -0.0850 -1.1931
10244TIP3    H252224   6.604   4.082  14.154 -2.1477  1.0123 -0.3283
10245TIP3   OH252225   2.752   2.838   1.463 -0.1614  0.2396 -0.7249
10245TIP3    H152226   2.658   2.822   1.465  0.1130 -1.6034  1.3521
10245TIP3    H252227   2.768   2.899   1.534  0.4243 -1.2478  0.4773
10246TIP3   OH252228   2.382   5.621  11.513 -0.2770 -0.0803  0.2155
10246TIP3    H152229   2.298   5.655  11.483 -1.4747 -1.9832  1.2069
10246TIP3    H252230   2.400   5.668  11.594 -1.7008 -1.3919  1.3546
10247TIP3   OH252231   4.450   3.866  16.311  0.0679  0.0400 -0.2704
10247TIP3    H152232   4.511   3.938  16.326  0.7120 -0.6276  0.4233
10247TIP3    H252233   4.401   3.859  16.394 -0.6438  0.2755 -0.6621
10248TIP3   OH252234   6.588   3.049  17.646  0.5512  0.3230 -0.4495
10248TIP3    H152235   6.511   3.010  17.686  0.3250  0.4431 -0.7610
10248TIP3    H252236   6.570   3.046  17.552  1.4977 -0.8761 -0.6228
10249TIP3   OH252237   3.496   4.582   0.015 -0.3338 -0.2849  0.0353
10249TIP3    H152238   3.503   4.657   0.074  1.3203 -0.7072  0.4300
10249TIP3    H252239   3.459   4.512   0.070 -0.3244 -0.2279  0.1133
10250TIP3   OH252240   2.572   2.934  17.171  0.2283  0.2985 -0.2470
10250TIP3    H152241   2.655   2.978  17.154 -0.4353  2.6423  1.8706
10250TIP3    H252242   2.583   2.846  17.136  4.5013 -0.3335  2.1012
10251TIP3   OH252243   3.333   1.395  16.731  0.0569  0.0506 -0.4831
10251TIP3    H152244   3.314   1.484  16.701 -0.4430  0.5480  1.1791
10251TIP3    H252245   3.374   1.408  16.817 -1.5130 -1.3543  0.5251
10252TIP3   OH252246   1.755   5.461   5.878  0.1076 -0.4349  0.3741
10252TIP3    H152247   1.666   5.462   5.910  0.4658  2.1851  1.5468
10252TIP3    H252248   1.808   5.489   5.952  1.9154 -1.6632 -0.3714
10253TIP3   OH252249   0.088   0.851   4.190 -0.4819 -0.3081 -0.4023
10253TIP3    H152250   0.178   0.884   4.179 -0.2260 -1.2398 -1.2914
10253TIP3    H252251   0.090   0.805   4.274 -0.6078  1.1312  0.4232
10254TIP3   OH252252   5.214   3.978   1.439  0.5133 -0.4344  0.9020
10254TIP3    H152253   5.245   3.901   1.391 -1.3073 -1.0115  0.5839
10254TIP3    H252254   5.192   3.944   1.526  0.6254 -0.0706  1.0743
10255TIP3   OH252255   3.976   2.698   2.131  0.6225 -0.6277  0.1477
10255TIP3    H152256   4.051   2.721   2.186 -0.0054  0.2520  0.6661
10255TIP3    H252257   3.930   2.629   2.180 -1.3184  1.8235  2.0549
10256TIP3   OH252258   2.244   0.453   1.708  0.1779  0.2729  0.1605
10256TIP3    H152259   2.321   0.462   1.763  0.9424  0.3635 -0.8987
10256TIP3    H252260   2.175   0.422   1.768  1.0097  0.2290  1.1208
10257TIP3   OH252261   6.730   1.621   3.396 -0.3218  0.1884 -0.3102
10257TIP3    H152262   6.783   1.676   3.339 -0.0897  0.2664 -0.0176
10257TIP3    H252263   6.644   1.620   3.354 -0.5828  1.4922  0.1366
10258TIP3   OH252264   3.137   6.667   0.007  0.0248  0.3416  0.4261
10258TIP3    H152265   3.167   6.733   0.070 -0.3726  0.6337  0.3110
10258TIP3    H252266   3.104   6.596   0.062  1.3585 -0.1988  0.5613
10259TIP3   OH252267   3.726   3.280   3.754  0.4088  0.5305  0.1190
10259TIP3    H152268   3.644   3.239   3.780  0.9928 -2.3667 -2.0919
10259TIP3    H252269   3.703   3.371   3.736 -2.3753 -0.2272 -0.5960
10260TIP3   OH252270   1.038   3.940  16.692 -0.0383  0.4697  0.5329
10260TIP3    H152271   1.021   4.030  16.722  0.8254  1.8712 -2.7312
10260TIP3    H252272   1.131   3.939  16.670 -0.2568 -0.9007 -0.4261
10261TIP3   OH252273   0.731   5.162  14.165 -0.4200 -0.3010  0.3459
10261TIP3    H152274   0.708   5.078  14.206 -1.2509  0.5347  1.6889
10261TIP3    H252275   0.761   5.216  14.238  2.4425 -0.1360 -0.8287
10262TIP3   OH252276   0.432   0.126  11.474 -0.3776 -0.1514 -0.2938
10262TIP3    H152277   0.342   0.150  11.496  0.2019  3.5325 -1.1733
10262TIP3    H252278   0.468   0.090  11.555 -1.7523  1.3545  1.0718
10263TIP3   OH252279   1.233   1.760   3.205  0.0676 -0.7010  0.0132
10263TIP3    H152280   1.166   1.719   3.261  0.4015  0.1037  1.0244
10263TIP3    H252281   1.230   1.709   3.124 -1.8822 -0.5956 -0.0292
10264TIP3   OH252282   6.393   1.203  13.845 -0.2025  0.1180 -0.4087
10264TIP3    H152283   6.476   1.158  13.863  0.3039  1.6652  1.4786
10264TIP3    H252284   6.403   1.239  13.757  0.1793 -1.6170 -1.1223
10265TIP3   OH252285   5.860   6.482   1.019 -0.4718 -1.0760  0.2221
10265TIP3    H152286   5.792   6.547   1.034 -0.6028 -1.2196  0.2569
10265TIP3    H252287   5.914   6.519   0.949 -0.2920 -0.7364  0.5399
10266TIP3   OH252288   4.147   1.315   3.774 -0.0761 -0.1032  0.6335
10266TIP3    H152289   4.236   1.291   3.801 -0.1578 -0.4930  0.5567
10266TIP3    H252290   4.130   1.398   3.819  0.2374 -0.1446  0.8326
10267TIP3   OH252291   0.296   4.683   3.024  0.7471 -0.2362  0.6446
10267TIP3    H152292   0.278   4.747   3.093 -0.9616 -1.0731  1.0148
10267TIP3    H252293   0.298   4.599   3.069  0.3820 -0.7105 -0.2157
10268TIP3   OH252294   0.978   2.492  12.590 -0.2825  0.0220  0.0470
10268TIP3    H152295   0.993   2.469  12.499  0.3067 -0.3703  0.2384
10268TIP3    H252296   0.884   2.506  12.596 -0.3241  0.0414 -0.6179
10269TIP3   OH252297   0.065   5.575   3.999  0.2872 -0.0192 -0.3554
10269TIP3    H152298   0.085   5.653   4.050 -1.2399 -0.2677  0.7031
10269TIP3    H252299   0.086   5.502   4.056  3.2982 -0.5302 -1.9251
10270TIP3   OH252300   0.127   1.322  15.097  0.2228  0.4250 -0.1013
10270TIP3    H152301   0.198   1.377  15.065 -1.4802  1.1939 -2.8767
10270TIP3    H252302   0.149   1.234  15.066  0.8218  0.2997  0.6386
10271TIP3   OH252303   5.638   5.952  15.686 -0.1508  0.4196  0.8036
10271TIP3    H152304   5.545   5.931  15.678  0.1226 -0.3311 -0.8171
10271TIP3    H252305   5.675   5.877  15.733  0.2480 -1.2995 -2.0223
10272TIP3   OH252306   4.430   0.668   1.940 -0.0737 -0.1662 -0.1379
10272TIP3    H152307   4.454   0.689   2.030  0.0157  0.5797 -0.3344
10272TIP3    H252308   4.424   0.752   1.895 -1.9506 -0.3822 -0.3741
10273TIP3   OH252309   6.295   3.773   1.890 -0.0220  0.7061 -0.5763
10273TIP3    H152310   6.298   3.813   1.977 -0.9845 -0.6077  0.0827
10273TIP3    H252311   6.310   3.847   1.830 -0.7539  1.8850  0.6278
10274TIP3   OH252312   3.759   3.491  17.083  0.1657 -0.3642 -0.1782
10274TIP3    H152313   3.674   3.457  17.109  0.5833 -1.3594 -0.0707
10274TIP3    H252314   3.772   3.459  16.994  0.7008 -0.7538  0.0355
10275TIP3   OH252315   0.630   1.065   0.719  0.4292  0.0430 -0.3582
10275TIP3    H152316   0.581   1.020   0.788 -2.3077  1.0890 -1.4582
10275TIP3    H252317   0.614   1.013   0.640  0.9812  0.5042 -0.7813
10276TIP3   OH252318   3.580   2.346  12.189  0.1589  0.1036  0.2883
10276TIP3    H152319   3.507   2.387  12.142 -0.0140 -0.0524  0.4177
10276TIP3    H252320   3.617   2.284  12.125  1.9734  2.1733 -0.7711
10277TIP3   OH252321   3.601   4.532   4.559 -0.1821 -0.1964 -0.4231
10277TIP3    H152322   3.582   4.449   4.515 -1.4445  0.2478 -0.7390
10277TIP3    H252323   3.645   4.585   4.493  0.9085 -0.7033 -0.1281
10278TIP3   OH252324   4.668   1.832   1.779  0.2624  0.2157 -0.0846
10278TIP3    H152325   4.692   1.751   1.825 -1.2555 -0.2899 -0.1519
10278TIP3    H252326   4.608   1.877   1.837 -2.0785 -0.6620 -1.6706
10279TIP3   OH252327   6.218   4.150   6.368  0.3226  0.2050  0.0467
10279TIP3    H152328   6.150   4.083   6.366  1.2881 -0.8207  0.7713
10279TIP3    H252329   6.289   4.112   6.420  0.7897  1.9016  0.7252
10280TIP3   OH252330   4.109   0.345   1.914 -0.3529 -0.0520  0.4938
10280TIP3    H152331   4.126   0.417   1.854 -0.2777 -0.2371  0.2916
10280TIP3    H252332   4.103   0.267   1.858 -1.2124 -0.0928  0.6331
10281TIP3   OH252333   0.161   1.438   5.196  0.0147 -0.0837  0.6476
10281TIP3    H152334   0.173   1.390   5.115 -0.2204  0.1685  0.4631
10281TIP3    H252335   0.138   1.527   5.169 -0.4170 -0.0883  0.9905
10282TIP3   OH252336   1.455   0.326   4.276  0.0182  0.5146 -0.1327
10282TIP3    H152337   1.463   0.310   4.181 -1.0663  1.9522 -0.5054
10282TIP3    H252338   1.403   0.252   4.308  0.5687 -0.0980 -0.6221
10283TIP3   OH252339   4.773   4.667  11.457 -0.0310 -0.2938  0.3644
10283TIP3    H152340   4.844   4.614  11.421 -0.4867  0.8531 -2.4886
10283TIP3    H252341   4.816   4.729  11.516  1.2275 -0.2243 -0.5989
10284TIP3   OH252342   6.207   2.908   1.745  0.1071  0.4092  0.1551
10284TIP3    H152343   6.218   2.992   1.701 -0.9761  0.8235  0.6262
10284TIP3    H252344   6.289   2.896   1.794  1.0616  0.2404 -1.4205
10285TIP3   OH252345   0.512   4.840   1.693 -0.0916 -0.5317  0.1583
10285TIP3    H152346   0.490   4.933   1.697 -0.9185 -0.7354  0.5819
10285TIP3    H252347   0.429   4.796   1.678  0.3610 -1.1769 -0.4993
10286TIP3   OH252348   2.202   0.474  15.649 -0.2861  0.6012 -0.9464
10286TIP3    H152349   2.291   0.448  15.625 -0.1619  0.2228 -0.1113
10286TIP3    H252350   2.146   0.420  15.594 -0.0255 -1.2297  0.4743
10287TIP3   OH252351   4.815   1.626  17.292 -0.5009 -0.6028 -0.3553
10287TIP3    H152352   4.738   1.678  17.265  0.4801 -0.1303 -2.5115
10287TIP3    H252353   4.806   1.543  17.244  0.3245 -0.5227 -0.6764
10288TIP3   OH252354   1.119   2.069   4.153 -0.3364 -0.2278  0.5796
10288TIP3    H152355   1.209   2.056   4.183 -0.5616 -0.6252  1.0909
10288TIP3    H252356   1.122   2.046   4.060  0.6299  2.1698 -0.0779
10289TIP3   OH252357   4.313   1.582  12.825 -0.4200 -0.4658  0.0801
10289TIP3    H152358   4.252   1.610  12.756 -0.9146  1.1226  1.0954
10289TIP3    H252359   4.368   1.659  12.839  1.5874 -1.7345 -0.5099
10290TIP3   OH252360   0.448   5.156   3.195 -0.7124 -0.1591 -0.1625
10290TIP3    H152361   0.524   5.107   3.225 -1.6761 -1.8034 -0.3277
10290TIP3    H252362   0.405   5.098   3.132 -0.3701  2.0071 -2.5889
10291TIP3   OH252363   0.839   4.382  13.231  0.3379  0.2843  0.1347
10291TIP3    H152364   0.754   4.413  13.199 -1.2969 -1.3415  2.5632
10291TIP3    H252365   0.871   4.325  13.162  0.8255  2.9357 -1.9908
10292TIP3   OH252366   4.473   2.855  16.600  0.2966 -0.1814  0.4149
10292TIP3    H152367   4.420   2.778  16.578 -0.3483  0.3104  0.2339
10292TIP3    H252368   4.551   2.847  16.545 -0.2866 -0.1114 -0.4339
10293TIP3   OH252369   5.790   3.787   5.770 -0.0139 -0.0096 -0.2975
10293TIP3    H152370   5.734   3.747   5.704 -2.5034  2.4103  0.1519
10293TIP3    H252371   5.769   3.741   5.851 -0.1299 -0.1952 -0.4321
10294TIP3   OH252372   4.591   5.064  16.208 -0.5359 -0.0668 -0.2674
10294TIP3    H152373   4.522   5.123  16.240  0.0892  0.8960 -0.6266
10294TIP3    H252374   4.635   5.033  16.286 -2.0854 -1.6257  0.0426
10295TIP3   OH252375   2.554   1.134   4.729 -0.1969 -0.1934  0.1012
10295TIP3    H152376   2.577   1.158   4.640  0.2291  0.7156  0.4356
10295TIP3    H252377   2.537   1.040   4.726 -1.3429  0.0262 -1.1641
10296TIP3   OH252378   0.427   1.086   3.352  0.1097  0.0361  0.5874
10296TIP3    H152379   0.414   1.174   3.317  0.0690  1.0759  3.0327
10296TIP3    H252380   0.342   1.061   3.388 -0.0013 -1.2332 -0.4721
10297TIP3   OH252381   4.923   2.554   5.501  0.3915  0.6924 -0.3649
10297TIP3    H152382   4.932   2.476   5.447  2.2810 -1.5770  2.8943
10297TIP3    H252383   4.999   2.608   5.477  0.2740  0.5502 -1.1046
10298TIP3   OH252384   4.764   2.642   5.161  0.5351 -0.4115  0.6331
10298TIP3    H152385   4.823   2.706   5.120  0.9248 -0.7258  0.6920
10298TIP3    H252386   4.822   2.571   5.189  0.4139  0.1571  2.4731
10299TIP3   OH252387   5.161   4.555  11.070 -0.2174  0.1014  0.1416
10299TIP3    H152388   5.116   4.613  11.008  0.7046  0.3020 -0.3589
10299TIP3    H252389   5.145   4.467  11.036 -2.0679 -0.0334  1.1915
10300TIP3   OH252390   1.260   2.682   2.188 -0.3812  0.5394  0.4476
10300TIP3    H152391   1.351   2.655   2.200 -0.3040  0.8654  0.6029
10300TIP3    H252392   1.252   2.763   2.238 -0.4661  1.0798 -0.4006
10301TIP3   OH252393   2.148   2.477   3.099 -0.7155  0.1118  0.1382
10301TIP3    H152394   2.133   2.436   3.014  1.2336 -0.3904 -0.0177
10301TIP3    H252395   2.212   2.546   3.082  1.0784 -1.1468  1.4065
10302TIP3   OH252396   0.749   1.777  17.359 -0.0401 -0.3437 -0.1129
10302TIP3    H152397   0.699   1.750  17.283  2.5781 -1.8501 -1.4603
10302TIP3    H252398   0.707   1.732  17.433 -1.3630 -0.5343 -0.9595
10303TIP3   OH252399   0.794   2.150  13.082 -0.2718  0.1952 -0.4436
10303TIP3    H152400   0.748   2.188  13.157 -0.9497  0.5113 -1.0133
10303TIP3    H252401   0.730   2.089  13.044  1.0984 -2.3263  1.0364
10304TIP3   OH252402   5.809   0.892  12.154 -0.2257  0.1140  0.1230
10304TIP3    H152403   5.763   0.845  12.225 -1.4556 -1.4526 -1.6116
10304TIP3    H252404   5.761   0.974  12.144 -0.8974 -0.2665  0.1976
10305TIP3   OH252405   1.540   2.944  13.903  0.4144  0.0962  0.1103
10305TIP3    H152406   1.489   2.926  13.983 -0.6108  1.1019 -0.2860
10305TIP3    H252407   1.559   2.857  13.867 -2.6896 -0.3547 -0.7321
10306TIP3   OH252408   2.903   4.586  14.324  0.0993 -0.1331 -0.2040
10306TIP3    H152409   2.958   4.575  14.401 -1.1889  1.8581  1.0673
10306TIP3    H252410   2.950   4.650  14.270 -0.1024  0.1981  0.0147
10307TIP3   OH252411   5.771   5.607  12.070 -0.8711  0.4287 -0.4508
10307TIP3    H152412   5.683   5.587  12.038 -1.3179  3.1856 -1.2443
10307TIP3    H252413   5.756   5.656  12.151 -0.1856  2.0781 -1.2707
10308TIP3   OH252414   4.797   6.510   1.678 -0.0493 -0.2129 -0.2052
10308TIP3    H152415   4.815   6.600   1.704  0.3200 -0.8267  1.7909
10308TIP3    H252416   4.853   6.496   1.601 -0.2577  1.2856 -0.6645
10309TIP3   OH252417   4.551   2.515   5.929 -0.3995 -0.0539  0.4584
10309TIP3    H152418   4.585   2.438   5.974 -0.9789  0.1743  1.3162
10309TIP3    H252419   4.587   2.589   5.978  0.6796  0.2612 -0.7447
10310TIP3   OH252420   1.244   1.194   4.617 -0.3517 -0.1824 -0.0200
10310TIP3    H152421   1.170   1.187   4.558  0.1135  0.2505 -0.6748
10310TIP3    H252422   1.208   1.233   4.696 -1.0593 -1.1374  0.1398
10311TIP3   OH252423   1.040   0.137  16.703 -0.5933  0.2150 -0.5152
10311TIP3    H152424   1.095   0.070  16.663 -1.1863  0.1007 -1.1718
10311TIP3    H252425   0.965   0.144  16.644 -1.9338 -0.5600  1.0223
10312TIP3   OH252426   4.443   1.356  12.708  0.1069 -0.4208  0.5299
10312TIP3    H152427   4.382   1.425  12.733  0.4438  0.1634 -0.2189
10312TIP3    H252428   4.463   1.311  12.790 -1.7631 -1.0037  0.6992
10313TIP3   OH252429   1.825   5.879   3.389 -0.0245  0.0122  0.5044
10313TIP3    H152430   1.914   5.871   3.353  0.7284  0.1740  2.2143
10313TIP3    H252431   1.770   5.897   3.313  1.6240  1.3788 -0.4607
10314TIP3   OH252432   6.504   6.456  13.785  0.0382  0.5471  0.2239
10314TIP3    H152433   6.543   6.475  13.700 -0.2328 -0.4468 -0.1382
10314TIP3    H252434   6.542   6.372  13.811 -0.9367  0.1539  0.4172
10315TIP3   OH252435   4.785   5.894  15.722  0.4969 -0.2384  0.4455
10315TIP3    H152436   4.835   5.971  15.750  2.2089 -0.7694 -0.9920
10315TIP3    H252437   4.730   5.926  15.651  0.8215 -0.2368  0.1958
10316TIP3   OH252438   5.891   4.218   7.168 -0.3935 -0.1051 -0.1949
10316TIP3    H152439   5.891   4.224   7.073  1.4966  1.2350 -0.1699
10316TIP3    H252440   5.984   4.219   7.193 -0.6820 -3.5500  1.5537
10317TIP3   OH252441   0.529   5.440  17.406 -0.2301 -0.4200 -0.2635
10317TIP3    H152442   0.462   5.509  17.405  0.0938 -0.1043 -0.3230
10317TIP3    H252443   0.492   5.371  17.351 -0.1563  0.0900 -0.9706
10318TIP3   OH252444   0.036   2.648   3.407  0.1043 -0.0246 -0.1243
10318TIP3    H152445  -0.022   2.591   3.458  0.0922  0.7247  0.7324
10318TIP3    H252446  -0.019   2.683   3.338 -0.1299 -0.3151 -0.0865
10319TIP3   OH252447   6.150   0.477  16.415  0.1524 -0.4517  0.0599
10319TIP3    H152448   6.091   0.529  16.361  2.2400  1.1249 -0.8317
10319TIP3    H252449   6.150   0.521  16.500 -1.0813 -1.3823  0.5841
10320TIP3   OH252450   0.353   5.436   6.730  0.3638 -0.1985 -0.4952
10320TIP3    H152451   0.448   5.427   6.720  0.8149  2.2968  0.6926
10320TIP3    H252452   0.337   5.530   6.720 -1.6399 -0.2051  1.7507
10321TIP3   OH252453   2.342   1.521  13.712  0.2526  0.1649 -0.4487
10321TIP3    H152454   2.340   1.566  13.796 -2.2209 -0.9590  0.1898
10321TIP3    H252455   2.435   1.510  13.693  0.8848  1.7245  1.4027
10322TIP3   OH252456   0.596   1.182  16.547  0.3103  0.4220  0.3349
10322TIP3    H152457   0.649   1.111  16.512 -2.5447 -0.8743 -1.6994
10322TIP3    H252458   0.617   1.257  16.492  0.6050  0.1553  0.0762
10323TIP3   OH252459   2.539   5.797   5.575 -0.2361  0.5580 -0.6666
10323TIP3    H152460   2.538   5.708   5.609  1.6302 -0.8366 -3.7903
10323TIP3    H252461   2.450   5.810   5.541 -0.1815 -0.6555 -1.3458
10324TIP3   OH252462   0.291   0.392  14.791 -0.4306 -0.6823 -0.3199
10324TIP3    H152463   0.246   0.308  14.778 -0.0213 -0.7734 -1.1954
10324TIP3    H252464   0.315   0.420  14.703 -2.2705  1.3162 -0.2598
10325TIP3   OH252465   2.967   1.468  14.716 -0.0550 -0.2270 -0.7560
10325TIP3    H152466   2.873   1.480  14.727 -0.1402 -1.5407  0.1359
10325TIP3    H252467   2.980   1.465  14.621 -1.0448 -1.0113 -0.8806
10326TIP3   OH252468   4.063   2.866   5.429 -0.3839 -0.1525  0.3553
10326TIP3    H152469   4.040   2.774   5.447  0.4889 -0.7747 -1.4485
10326TIP3    H252470   4.122   2.890   5.500 -0.5080 -1.0295  0.7768
10327TIP3   OH252471   6.553   2.578  12.790  0.4449  0.4130  0.1395
10327TIP3    H152472   6.574   2.667  12.763  1.1555 -0.1708 -1.3513
10327TIP3    H252473   6.637   2.540  12.816 -0.3434  1.5553  5.6249
10328TIP3   OH252474   4.293   0.494   3.035 -0.2982  0.0788 -0.3438
10328TIP3    H152475   4.385   0.470   3.046 -0.5722 -0.6320  0.4702
10328TIP3    H252476   4.285   0.579   3.078 -0.0351  0.1152 -0.3626
10329TIP3   OH252477   4.631   6.416  13.528  0.9854  0.5234  0.9174
10329TIP3    H152478   4.640   6.379  13.440  2.3351  2.4148  0.2013
10329TIP3    H252479   4.586   6.499  13.514  2.9775  1.7993  1.7033
10330TIP3   OH252480   3.427   5.298   5.877  0.4701 -0.0875 -0.1821
10330TIP3    H152481   3.354   5.346   5.838  0.4159 -0.7703 -0.9573
10330TIP3    H252482   3.483   5.276   5.802 -1.0308 -3.9051 -0.4285
10331TIP3   OH252483   6.120   6.467  17.582  0.1520  0.4456  0.4442
10331TIP3    H152484   6.039   6.514  17.561 -0.9128 -1.2926  0.4452
10331TIP3    H252485   6.167   6.525  17.642 -1.2391  1.3561  0.7067
10332TIP3   OH252486   4.884   5.696   2.942  0.4998  0.2672  0.2002
10332TIP3    H152487   4.937   5.622   2.912  1.4587  1.8959 -2.4209
10332TIP3    H252488   4.825   5.715   2.870 -0.8688  1.0670  1.4697
10333TIP3   OH252489   1.336   3.868  12.438 -0.3254 -0.4412 -0.3323
10333TIP3    H152490   1.416   3.920  12.445  0.3764 -1.6256  0.8070
10333TIP3    H252491   1.331   3.845  12.345  0.4347 -0.0454 -0.4812
10334TIP3   OH252492   5.386   0.363   5.672  0.0838 -0.2578 -0.1829
10334TIP3    H152493   5.399   0.307   5.749 -0.8763  0.4295  0.5001
10334TIP3    H252494   5.293   0.357   5.653 -0.3534  2.1648  0.7802
10335TIP3   OH252495   6.439   0.495  12.273 -0.4839  0.0019 -0.5090
10335TIP3    H152496   6.467   0.408  12.300 -1.6801 -0.4803 -0.7946
10335TIP3    H252497   6.455   0.497  12.178  0.6400  0.5373 -0.3366
10336TIP3   OH252498   5.807   0.163  12.971  0.2512 -0.7197  0.0227
10336TIP3    H152499   5.781   0.246  12.931 -0.3934 -0.9322 -0.0161
10336TIP3    H252500   5.804   0.100  12.899  1.6702 -0.6146 -0.1660
10337TIP3   OH252501   5.389   2.091   5.146 -0.0909  0.0110  0.0287
10337TIP3    H152502   5.317   2.027   5.151 -0.8852  0.8889  0.2011
10337TIP3    H252503   5.430   2.088   5.232 -0.1801 -0.2069  0.0636
10338TIP3   OH252504   3.882   3.312   4.396  0.7911 -0.1947 -0.2028
10338TIP3    H152505   3.906   3.220   4.408 -0.5838 -0.5395 -0.0223
10338TIP3    H252506   3.856   3.343   4.482  1.7635  0.5401 -0.1506
10339TIP3   OH252507   4.573   5.118  16.729 -0.1226 -0.1276  0.1797
10339TIP3    H152508   4.610   5.200  16.694 -0.2362  0.1641  0.7325
10339TIP3    H252509   4.602   5.051  16.668  0.7851  0.1898  0.2557
10340TIP3   OH252510   5.953   2.171   5.594  0.4993 -0.8015 -0.3647
10340TIP3    H152511   5.902   2.161   5.513  0.8174 -0.6765 -0.5811
10340TIP3    H252512   6.015   2.241   5.575 -0.6901  0.5869  0.6313
10341TIP3   OH252513   0.323   2.718  16.592 -0.7971  0.8244  0.1496
10341TIP3    H152514   0.276   2.727  16.675 -1.9567  0.9626 -0.4988
10341TIP3    H252515   0.254   2.716  16.525 -0.0889 -2.0812 -0.6289
10342TIP3   OH252516   4.110   5.804  12.326  0.1409 -0.1876  0.5366
10342TIP3    H152517   4.191   5.822  12.373 -0.1415  2.2154  0.2022
10342TIP3    H252518   4.130   5.825  12.235 -0.7718  0.0885  0.3917
10343TIP3   OH252519   6.170   6.286   0.820  0.4425 -0.5739  0.3647
10343TIP3    H152520   6.201   6.360   0.767 -0.6328 -0.8022 -0.6419
10343TIP3    H252521   6.217   6.294   0.902  1.6508  0.2130 -0.3718
10344TIP3   OH252522   6.140   0.354  11.628  0.2307  0.2292 -0.0550
10344TIP3    H152523   6.211   0.390  11.574 -0.3518  1.2962 -0.1300
10344TIP3    H252524   6.185   0.319  11.705  0.7000  3.8585  1.5706
10345TIP3   OH252525   3.762   3.526   6.049  0.2859  0.8119 -0.0535
10345TIP3    H152526   3.755   3.620   6.035  2.1887  0.7829 -1.6174
10345TIP3    H252527   3.856   3.509   6.052  0.0006 -1.1449 -0.7921
10346TIP3   OH252528   1.341   2.489   2.510  0.0953  0.7813  0.3947
10346TIP3    H152529   1.419   2.465   2.461 -0.6445  0.6398 -0.7507
10346TIP3    H252530   1.342   2.584   2.515  0.8404  0.7408  1.2554
10347TIP3   OH252531   0.437   5.221  16.070  0.5643  0.0998  0.1553
10347TIP3    H152532   0.513   5.279  16.066  1.2671 -0.8013  0.1561
10347TIP3    H252533   0.363   5.278  16.051  1.2761  0.9165 -0.2511
10348TIP3   OH252534   0.452   5.430   3.072 -0.1329  0.5231 -0.4353
10348TIP3    H152535   0.465   5.341   3.107 -0.6141  1.1237  1.3982
10348TIP3    H252536   0.378   5.422   3.013 -0.3839 -0.2476 -0.0341
10349TIP3   OH252537   4.070   2.592   0.067  0.2079  0.4195 -0.2603
10349TIP3    H152538   4.034   2.635  -0.011  0.1702  0.7273 -0.0770
10349TIP3    H252539   4.043   2.501   0.060  0.1400  0.4633 -0.5681
10350TIP3   OH252540   5.741   6.027   5.745 -0.1051  0.4486 -1.2969
10350TIP3    H152541   5.688   5.951   5.721  1.6978 -2.0947  1.9333
10350TIP3    H252542   5.824   5.990   5.775  1.0757  3.7404 -0.0223
10351TIP3   OH252543   5.154   1.291  13.420  0.0059 -0.3263  0.0491
10351TIP3    H152544   5.112   1.244  13.492 -0.2970 -1.8155 -1.0541
10351TIP3    H252545   5.081   1.328  13.370  0.1636 -0.1729 -0.0671
10352TIP3   OH252546   4.086   0.905  15.937  0.1268  0.0675 -1.0939
10352TIP3    H152547   4.061   0.910  15.845  0.2810 -0.1599 -1.1487
10352TIP3    H252548   4.152   0.974  15.948  1.4696 -1.0859 -1.5986
10353TIP3   OH252549   3.071   3.649  11.374 -0.2839 -0.3735 -0.2053
10353TIP3    H152550   3.106   3.634  11.286  0.7888  1.9336 -0.2543
10353TIP3    H252551   2.976   3.654  11.361 -0.1198  0.3625 -1.3582
10354TIP3   OH252552   1.223   6.522   2.211  0.2157  0.2265  0.2003
10354TIP3    H152553   1.192   6.441   2.250  1.0352 -0.5689 -0.7485
10354TIP3    H252554   1.279   6.562   2.278  0.2398 -0.2578  0.4683
10355TIP3   OH252555   3.356   1.243   2.437  0.2694 -0.1173 -0.5279
10355TIP3    H152556   3.304   1.199   2.505  0.5156  0.4444  0.0370
10355TIP3    H252557   3.355   1.183   2.363 -1.0033 -0.2091 -0.4460
10356TIP3   OH252558   1.671   1.083   0.507  0.1434 -0.5108  0.4020
10356TIP3    H152559   1.628   1.156   0.461  0.3715 -0.0527  0.9006
10356TIP3    H252560   1.606   1.055   0.572 -0.6748 -1.9651 -0.9503
10357TIP3   OH252561   5.584   2.170  11.575 -0.6544 -0.4386  0.3627
10357TIP3    H152562   5.508   2.122  11.540 -0.8294 -0.2449  0.4731
10357TIP3    H252563   5.562   2.186  11.666 -1.6500  1.8638 -0.2116
10358TIP3   OH252564   1.639   0.847  15.807 -0.5091  0.7221  0.6236
10358TIP3    H152565   1.691   0.842  15.887 -1.9662 -2.3864  1.5747
10358TIP3    H252566   1.586   0.926  15.817  1.4402  2.0038  1.2783
10359TIP3   OH252567   1.143   2.695   4.553  0.5044 -0.0845 -0.1041
10359TIP3    H152568   1.181   2.629   4.611  0.6069  0.2986  0.2720
10359TIP3    H252569   1.208   2.706   4.483 -0.5270 -2.0412 -1.4415
10360TIP3   OH252570   5.420   6.170   4.544 -0.2196  0.2385 -0.3179
10360TIP3    H152571   5.435   6.172   4.450 -0.4065 -1.3926 -0.4022
10360TIP3    H252572   5.327   6.153   4.553 -0.0688 -0.3749  0.1471
10361TIP3   OH252573   1.199   4.976  11.635  0.1548  0.7878 -0.4081
10361TIP3    H152574   1.147   5.052  11.609 -2.0495 -1.3947 -2.9804
10361TIP3    H252575   1.271   4.974  11.573  0.9596  1.4134  0.4701
10362TIP3   OH252576   1.243   1.870  14.143 -0.0615 -0.2810 -0.2772
10362TIP3    H152577   1.252   1.850  14.050 -1.9693 -0.0853 -0.5581
10362TIP3    H252578   1.167   1.929  14.148  0.7088  0.6778  1.2993
10363TIP3   OH252579   5.065   3.341   3.195 -0.0696  0.1583  0.3439
10363TIP3    H152580   5.090   3.290   3.118 -0.6480 -1.8534  1.4312
10363TIP3    H252581   5.061   3.432   3.163  2.4253 -0.2095 -1.3287
10364TIP3   OH252582   3.096   3.199   0.626  0.1137 -1.4767  0.1941
10364TIP3    H152583   3.169   3.261   0.621  1.3522 -2.8926  0.3620
10364TIP3    H252584   3.038   3.225   0.554  0.9194 -0.5422 -0.1446
10365TIP3   OH252585   2.987   1.328  13.256  0.0495 -0.2478 -0.9114
10365TIP3    H152586   2.906   1.373  13.234  0.1047  0.5417  0.3935
10365TIP3    H252587   3.005   1.354  13.346  1.1999 -1.2465 -0.8304
10366TIP3   OH252588   6.246   6.571   5.430 -0.8747  0.3416  0.6302
10366TIP3    H152589   6.316   6.624   5.393 -2.5147  1.1529 -1.5419
10366TIP3    H252590   6.223   6.615   5.512 -0.5388  1.5414  0.1043
10367TIP3   OH252591   0.605   5.126   0.043 -0.2606  0.1630 -0.5534
10367TIP3    H152592   0.669   5.055   0.047  1.3082  1.5186 -0.2017
10367TIP3    H252593   0.587   5.147   0.135  1.6757  2.1731 -0.5389
10368TIP3   OH252594   4.765   5.807   5.133 -0.1141  0.0232 -0.2144
10368TIP3    H152595   4.725   5.765   5.057  0.6253 -0.4125 -0.3788
10368TIP3    H252596   4.859   5.794   5.121 -0.0211 -1.1738  1.3931
10369TIP3   OH252597   3.122   0.852   1.029  0.1161  0.7372 -0.5377
10369TIP3    H152598   3.139   0.769   1.072  0.3289  1.2507  0.3859
10369TIP3    H252599   3.206   0.898   1.031  0.2882  0.5616 -2.0124
10370TIP3   OH252600   4.337   0.147  15.385  0.0840  0.1546 -0.1734
10370TIP3    H152601   4.393   0.126  15.459 -0.5209 -0.6274  0.0790
10370TIP3    H252602   4.248   0.149  15.422 -0.0200  1.8961 -0.4510
10371TIP3   OH252603   1.134   0.412   2.598  0.4249 -0.0840 -0.0379
10371TIP3    H152604   1.056   0.416   2.654  1.2953  2.0127  1.1676
10371TIP3    H252605   1.100   0.390   2.511 -1.3853 -0.1884  0.6449
10372TIP3   OH252606   3.386   0.783   1.868 -0.1723  1.0478 -0.9922
10372TIP3    H152607   3.351   0.838   1.938  1.1077  1.5524 -0.7219
10372TIP3    H252608   3.476   0.764   1.894 -0.3073 -0.4585 -1.5220
10373TIP3   OH252609   3.321   5.437  12.623  0.2416  0.0957  0.0392
10373TIP3    H152610   3.231   5.443  12.591 -0.0358  1.2729  0.9737
10373TIP3    H252611   3.370   5.501  12.571  0.0448  1.1176  1.0795
10374TIP3   OH252612   5.009   3.244  13.499 -0.1177 -0.3564  0.0354
10374TIP3    H152613   4.985   3.335  13.515  1.9689  0.1212  0.6782
10374TIP3    H252614   4.996   3.201  13.584 -0.9194 -0.6502 -0.2213
10375TIP3   OH252615   1.405   6.527  11.867 -0.1499 -0.3437 -0.8115
10375TIP3    H152616   1.486   6.476  11.873 -1.4349 -2.3320  2.1376
10375TIP3    H252617   1.347   6.471  11.815 -0.4914 -0.2860 -0.4945
10376TIP3   OH252618   5.497   6.558  13.802 -0.0039  0.2332 -0.8393
10376TIP3    H152619   5.445   6.493  13.755  1.1094 -0.9241 -0.5124
10376TIP3    H252620   5.588   6.540  13.776  0.3854  1.2722 -0.2718
10377TIP3   OH252621   3.478   6.552   1.868 -0.2592 -0.1113  0.3741
10377TIP3    H152622   3.541   6.587   1.931  0.6385 -1.5242  0.2872
10377TIP3    H252623   3.448   6.629   1.819  0.7893  0.6866  0.9483
10378TIP3   OH252624   1.288   5.101  17.464 -0.1079 -0.1472  0.7213
10378TIP3    H152625   1.199   5.130  17.485 -0.3585  0.6703 -1.2988
10378TIP3    H252626   1.286   5.085  17.370  1.3448 -2.1665  0.9862
10379TIP3   OH252627   6.437   3.727  11.600  0.3054 -0.2378  0.0744
10379TIP3    H152628   6.474   3.654  11.550  0.8156  0.0749 -0.0065
10379TIP3    H252629   6.509   3.757  11.655 -0.0947 -0.2213  0.6000
10380TIP3   OH252630   1.799   4.142  13.086 -0.2789 -0.4370  0.1349
10380TIP3    H152631   1.860   4.109  13.020  0.0777 -2.8264  1.5299
10380TIP3    H252632   1.853   4.198  13.142  0.4694 -1.7165  0.7557
10381TIP3   OH252633   1.457   4.668  16.772  0.5311 -0.0227  0.7499
10381TIP3    H152634   1.364   4.647  16.782  0.4965 -0.4444 -0.3328
10381TIP3    H252635   1.482   4.626  16.690  1.3505  1.2119  0.3462
10382TIP3   OH252636   3.921   6.687   0.512 -0.2021 -0.0178 -0.2269
10382TIP3    H152637   3.866   6.679   0.433  0.0951  1.4521 -0.6262
10382TIP3    H252638   3.859   6.679   0.585 -0.7306  0.1204 -0.6514
10383TIP3   OH252639   4.536   6.453  17.121 -0.0209 -0.3913 -0.1219
10383TIP3    H152640   4.503   6.464  17.210  0.4613 -0.7577  0.1049
10383TIP3    H252641   4.477   6.506  17.067 -0.3665 -0.2354  0.4020
10384TIP3   OH252642   6.208   3.551   1.561 -0.0090 -0.4563  0.1464
10384TIP3    H152643   6.195   3.460   1.535 -0.1970 -0.0064 -1.4192
10384TIP3    H252644   6.296   3.573   1.529  0.0687 -0.1177  0.5899
10385TIP3   OH252645   4.384   3.964   1.465 -0.2786  0.3587 -0.1423
10385TIP3    H152646   4.413   3.944   1.376 -0.8659  0.8353 -0.4447
10385TIP3    H252647   4.460   4.006   1.506 -0.1961  0.6596 -0.5993
10386TIP3   OH252648   2.744   2.515  14.514  0.5349 -0.8378  0.1586
10386TIP3    H152649   2.728   2.465  14.434 -0.7376  2.8803 -2.1123
10386TIP3    H252650   2.661   2.512  14.561  0.3998 -0.6637 -0.0694
10387TIP3   OH252651   5.140   5.572  13.304  0.4181 -0.6431  0.2173
10387TIP3    H152652   5.188   5.493  13.329  1.4578  0.4424  1.8087
10387TIP3    H252653   5.092   5.597  13.383  2.0348  1.6642  0.5809
10388TIP3   OH252654   3.596   1.497  10.972 -0.1798 -0.7617  0.1731
10388TIP3    H152655   3.640   1.582  10.968 -0.9338 -0.4056 -2.1362
10388TIP3    H252656   3.642   1.442  10.908 -1.4863 -1.1453 -0.4878
10389TIP3   OH252657   3.365   6.190  15.067  0.2313 -0.3414 -0.1641
10389TIP3    H152658   3.351   6.103  15.030  0.5311 -0.2800 -0.4300
10389TIP3    H252659   3.429   6.176  15.137  0.7038 -0.2556 -0.5727
10390TIP3   OH252660   0.679   5.407  13.199 -0.1612 -0.0365 -0.2739
10390TIP3    H152661   0.641   5.425  13.285  2.0023  1.5987  0.4391
10390TIP3    H252662   0.756   5.465  13.195  0.1191 -0.4991 -3.0813
10391TIP3   OH252663   5.617   4.261   2.772  0.2261 -0.1244  0.1640
10391TIP3    H152664   5.658   4.317   2.706 -2.8919 -0.1086 -1.9577
10391TIP3    H252665   5.652   4.174   2.753  0.1633  0.0532 -0.8373
10392TIP3   OH252666   0.575   2.040   2.417  0.1053  0.6455 -0.6789
10392TIP3    H152667   0.535   2.032   2.504  1.0905 -1.2224 -0.3399
10392TIP3    H252668   0.650   2.099   2.431 -0.0443  0.7654 -0.3635
10393TIP3   OH252669   1.260   6.048  17.458 -0.5113  0.1399 -0.1102
10393TIP3    H152670   1.297   5.995  17.387  1.7450  3.4482 -1.6808
10393TIP3    H252671   1.326   6.043  17.528  1.6909  3.4788 -1.6793
10394TIP3   OH252672   2.073   1.624  15.977  0.1798 -0.5155 -0.0430
10394TIP3    H152673   2.096   1.535  16.004 -0.7323 -0.9865 -0.7951
10394TIP3    H252674   2.131   1.680  16.029  1.5990 -1.5856 -0.4284
10395TIP3   OH252675   2.965   0.112   5.525 -0.2819 -0.2177 -0.4935
10395TIP3    H152676   2.997   0.023   5.513 -0.5383 -0.5483  1.0920
10395TIP3    H252677   2.996   0.137   5.612  2.8891  2.6074 -2.1631
10396TIP3   OH252678   5.861   4.199   3.584 -0.2418  0.2797 -0.0333
10396TIP3    H152679   5.924   4.261   3.620 -1.2434  1.5293 -0.3905
10396TIP3    H252680   5.820   4.159   3.660  0.7624 -0.3412  0.2009
10397TIP3   OH252681   2.985   2.643   4.445  0.5299 -0.2335 -0.4994
10397TIP3    H152682   2.921   2.631   4.515  0.5754 -0.0604 -0.4270
10397TIP3    H252683   2.973   2.733   4.417  1.6149  0.2159  0.3895
10398TIP3   OH252684   3.490   2.687   2.253  0.2085 -0.0926 -0.3613
10398TIP3    H152685   3.470   2.603   2.293  0.7262 -0.4148 -0.7715
10398TIP3    H252686   3.502   2.668   2.160 -2.6121  0.9009 -1.0404
10399TIP3   OH252687   2.406   3.165   0.811  0.2924  0.4311  0.4607
10399TIP3    H152688   2.476   3.175   0.877  0.8951 -1.4615  0.1536
10399TIP3    H252689   2.411   3.245   0.759  1.3173  0.9473  1.3140
10400TIP3   OH252690   5.210   0.312   0.099  0.1806 -0.0041  0.3392
10400TIP3    H152691   5.162   0.306   0.182  2.3176  2.5402  1.9262
10400TIP3    H252692   5.264   0.233   0.097 -2.4699 -1.9405 -0.5571
10401TIP3   OH252693   6.274   4.604  10.732 -0.2100 -0.3565  0.0934
10401TIP3    H152694   6.293   4.519  10.772  2.7575 -1.0105 -2.3291
10401TIP3    H252695   6.257   4.583  10.640  1.6583  1.6526 -0.7970
10402TIP3   OH252696   1.699   1.162  12.271 -0.6952  0.0250 -0.0444
10402TIP3    H152697   1.777   1.200  12.229 -0.6692  1.4418  1.1991
10402TIP3    H252698   1.708   1.068  12.256  1.1476  0.1623 -0.1290
10403TIP3   OH252699   4.328   2.785   2.746 -0.3390  0.3328 -0.0918
10403TIP3    H152700   4.236   2.786   2.771  0.3708  1.6038  3.0043
10403TIP3    H252701   4.370   2.729   2.813  1.3604  1.2771 -0.3073
10404TIP3   OH252702   2.632   3.539  14.159  0.2141  0.1949 -0.2989
10404TIP3    H152703   2.705   3.478  14.156  0.7329  0.8213 -0.9130
10404TIP3    H252704   2.667   3.619  14.119 -0.8343  0.4759 -0.6734
10405TIP3   OH252705   5.470   1.589   3.422 -0.0712  0.1545 -0.1527
10405TIP3    H152706   5.495   1.664   3.475  0.3412 -0.7770  1.0155
10405TIP3    H252707   5.389   1.616   3.379  0.7565  1.7373 -0.8193
10406TIP3   OH252708   0.255   1.771   4.891 -0.4911 -0.6564  0.4622
10406TIP3    H152709   0.205   1.782   4.971  0.1779  0.3262  0.7716
10406TIP3    H252710   0.341   1.740   4.920 -0.5902 -1.3381  0.0331
10407TIP3   OH252711   3.399   3.001   5.682 -0.1560 -0.6637  0.2231
10407TIP3    H152712   3.413   3.073   5.743 -1.8671  2.1100 -2.4005
10407TIP3    H252713   3.481   2.995   5.633  0.1410 -0.8164  0.7305
10408TIP3   OH252714   5.786   0.887  17.063  0.4082  0.4042  0.0108
10408TIP3    H152715   5.710   0.863  17.116  1.2184 -1.5610  0.3983
10408TIP3    H252716   5.846   0.813  17.073  1.6803  1.1446 -1.5995
10409TIP3   OH252717   4.589   6.147   5.198 -0.5954 -0.1297  0.2851
10409TIP3    H152718   4.671   6.195   5.211 -0.7954  0.1264  0.5975
10409TIP3    H252719   4.612   6.056   5.219  0.3373 -0.6080 -2.3230
10410TIP3   OH252720   0.983   2.477   0.522  0.5697 -0.6509  0.3226
10410TIP3    H152721   1.040   2.447   0.592  1.5848 -1.1140 -0.6558
10410TIP3    H252722   0.974   2.401   0.464  1.5698  0.3068 -1.1689
10411TIP3   OH252723   4.683   2.052  13.951  0.5552  0.4004 -0.8719
10411TIP3    H152724   4.598   2.050  13.995  1.2990 -0.6230  0.6008
10411TIP3    H252725   4.699   1.961  13.928  1.7782  0.3868 -0.0462
10412TIP3   OH252726   1.277   4.433  15.798 -0.2203 -0.6009  0.4682
10412TIP3    H152727   1.296   4.399  15.711  0.2801 -0.1780  0.4083
10412TIP3    H252728   1.363   4.444  15.839 -0.4245 -0.2917  0.8221
10413TIP3   OH252729   5.962   5.635   1.484  0.2259 -0.1150 -0.2581
10413TIP3    H152730   5.887   5.600   1.436  1.6639 -1.2137 -1.8303
10413TIP3    H252731   5.983   5.717   1.439  0.6897 -0.4248 -0.6232
10414TIP3   OH252732   0.918   0.427  17.575  0.5374  0.5359 -0.1753
10414TIP3    H152733   1.011   0.411  17.559  0.4204 -0.1391 -0.2024
10414TIP3    H252734   0.896   0.368  17.647 -0.0538  0.0962 -0.7032
10415TIP3   OH252735   5.324   6.145  14.418 -0.1927  0.1738 -0.2458
10415TIP3    H152736   5.242   6.168  14.374  0.4019  0.9798 -0.9533
10415TIP3    H252737   5.301   6.070  14.474 -1.5934  0.9098  0.1948
10416TIP3   OH252738   6.495   5.728  11.982 -0.8119 -0.1406 -0.0553
10416TIP3    H152739   6.548   5.650  11.967 -0.6068  0.2149 -1.3400
10416TIP3    H252740   6.489   5.769  11.896  0.0045  1.8518  0.7954
10417TIP3   OH252741   2.154   1.710   5.741  0.1497  0.6678 -0.2507
10417TIP3    H152742   2.209   1.653   5.687 -0.2821  1.1829 -1.2554
10417TIP3    H252743   2.069   1.711   5.697 -0.4001  0.6171  0.7836
10418TIP3   OH252744   6.008   4.717  12.173  0.1149 -0.9060 -0.1354
10418TIP3    H152745   5.960   4.797  12.196  1.2380  0.1472 -1.2623
10418TIP3    H252746   5.962   4.683  12.097  0.3207 -0.6692 -0.3681
10419TIP3   OH252747   6.135   1.050  17.044  0.1383 -0.3222 -0.1815
10419TIP3    H152748   6.091   1.071  16.962 -0.4592  1.6652  0.5789
10419TIP3    H252749   6.074   1.079  17.112  1.6435  0.4427  0.9243
10420TIP3   OH252750   3.061   0.449  17.029  0.3729  0.0730 -0.2181
10420TIP3    H152751   3.061   0.480  17.119  1.7264 -0.2009 -0.1068
10420TIP3    H252752   2.968   0.447  17.004 -0.1049 -0.9831  1.5337
10421TIP3   OH252753   2.196   1.581   6.423 -0.0150 -0.2055  0.1785
10421TIP3    H152754   2.179   1.644   6.493  0.1701 -1.4418  1.3767
10421TIP3    H252755   2.118   1.584   6.368 -0.1004  0.8908  0.3446
10422TIP3   OH252756   3.277   3.357  16.451 -0.0706 -0.7166  0.3784
10422TIP3    H152757   3.268   3.279  16.397  1.7262 -0.3037 -0.5830
10422TIP3    H252758   3.367   3.386  16.438 -0.0758  0.3684  2.3010
10423TIP3   OH252759   1.902   2.671  11.096 -0.2125 -0.2162  0.0111
10423TIP3    H152760   1.933   2.580  11.094 -0.1608 -0.1977 -1.6871
10423TIP3    H252761   1.886   2.692  11.004  2.2901  2.3498  0.0411
10424TIP3   OH252762   3.412   3.465  17.533  0.3465  0.4427  0.1736
10424TIP3    H152763   3.387   3.436  17.620 -0.7528  0.6751 -0.0557
10424TIP3    H252764   3.462   3.392  17.496 -2.2137 -1.1610 -0.3428
10425TIP3   OH252765   6.114   5.618  14.739 -0.2168  0.1084  0.1122
10425TIP3    H152766   6.131   5.532  14.699  1.2425  1.9899 -3.8005
10425TIP3    H252767   6.030   5.645  14.702  1.0613  1.8196 -1.6998
10426TIP3   OH252768   1.036   5.508  17.599 -0.0387  0.1408 -0.4790
10426TIP3    H152769   0.962   5.545  17.647  0.2707  0.3149 -0.1390
10426TIP3    H252770   1.017   5.529  17.507 -2.8233 -3.7851 -1.0678
10427TIP3   OH252771   0.405   5.458   4.843 -0.5270  0.0662  0.3598
10427TIP3    H152772   0.479   5.518   4.833 -0.1253 -0.5211 -0.2244
10427TIP3    H252773   0.356   5.465   4.761 -0.5201 -0.3487  0.3182
10428TIP3   OH252774   2.722   5.201   3.778  0.0473 -0.3647 -0.3935
10428TIP3    H152775   2.767   5.213   3.862  1.2742  0.3958 -1.1353
10428TIP3    H252776   2.719   5.289   3.739  1.2253 -0.9808 -1.9829
10429TIP3   OH252777   1.020   5.312  14.680 -0.0744 -0.2626  0.2761
10429TIP3    H152778   0.987   5.373  14.614  1.8114 -0.0425 -0.5287
10429TIP3    H252779   0.947   5.252  14.695 -0.9707  0.4247 -1.0804
10430TIP3   OH252780   1.783   0.092  14.685  0.3533 -0.1511 -0.1365
10430TIP3    H152781   1.746   0.061  14.602  1.2132  2.4521 -1.6412
10430TIP3    H252782   1.878   0.091  14.670  0.4906  0.9178  0.5387
10431TIP3   OH252783   1.861   1.113  11.537  0.9875  0.5488  0.2243
10431TIP3    H152784   1.928   1.147  11.596  0.4995  1.5256  0.2313
10431TIP3    H252785   1.903   1.113  11.450  0.6591  2.2922  0.0146
10432TIP3   OH252786   0.439   4.636   1.346 -0.4458 -0.3790  0.4062
10432TIP3    H152787   0.383   4.597   1.412 -1.2197 -2.1407 -1.2046
10432TIP3    H252788   0.527   4.603   1.366 -0.5743 -0.4423  0.8751
10433TIP3   OH252789   4.206   4.523  13.026 -0.2600  0.7204  0.0696
10433TIP3    H152790   4.288   4.498  12.985 -0.4461  0.3157 -0.0641
10433TIP3    H252791   4.139   4.505  12.960 -0.6072 -0.3794  0.7045
10434TIP3   OH252792   1.293   2.302   3.679 -0.4581 -0.3443 -0.0630
10434TIP3    H152793   1.375   2.305   3.729  1.0930 -0.4854 -2.4392
10434TIP3    H252794   1.275   2.208   3.669  0.2715 -0.3719 -1.2901
10435TIP3   OH252795   2.021   5.356   1.362 -0.2928  0.2371  0.6211
10435TIP3    H152796   1.929   5.381   1.372 -0.5241 -0.3310  0.0159
10435TIP3    H252797   2.052   5.407   1.288 -0.8991 -1.5285 -0.9222
10436TIP3   OH252798   3.923   2.297  11.724 -0.2229 -0.4824  0.2503
10436TIP3    H152799   4.004   2.247  11.740 -0.9268 -1.7840 -0.1206
10436TIP3    H252800   3.879   2.249  11.654 -1.2778  0.2707  0.3836
10437TIP3   OH252801   5.523   3.317  14.654 -0.6859 -0.3997 -0.2927
10437TIP3    H152802   5.616   3.337  14.661 -0.7450 -0.2685  0.1737
10437TIP3    H252803   5.499   3.342  14.565 -0.6313  1.0702  0.0822
10438TIP3   OH252804   3.283   3.563   2.042  0.0372 -0.1518 -0.2811
10438TIP3    H152805   3.207   3.507   2.031  0.4779 -0.6448 -0.8844
10438TIP3    H252806   3.278   3.626   1.970 -0.1906  0.2798  0.1068
10439TIP3   OH252807   0.624   6.058  15.630 -0.0762 -1.3470  1.0001
10439TIP3    H152808   0.627   6.034  15.538 -2.6512 -1.2028  0.8026
10439TIP3    H252809   0.684   6.132  15.637 -2.6482  1.2791 -1.5368
10440TIP3   OH252810   1.064   0.874   2.400 -0.9126  0.3216 -0.3549
10440TIP3    H152811   0.977   0.909   2.417 -1.1798 -0.7525  0.6113
10440TIP3    H252812   1.075   0.804   2.464  0.4898  0.1410 -0.7507
10441TIP3   OH252813   3.364   0.957  17.362 -0.0053 -0.1443 -0.4888
10441TIP3    H152814   3.378   1.033  17.305 -0.4423  0.4661  0.2005
10441TIP3    H252815   3.451   0.919  17.373  0.5819  1.4562  0.7894
10442TIP3   OH252816   2.881   0.971   0.954  0.7074  0.1272 -0.1334
10442TIP3    H152817   2.844   0.897   0.906 -0.3622  1.3783 -1.3443
10442TIP3    H252818   2.976   0.958   0.950  0.7097  0.4986 -3.2043
10443TIP3   OH252819   5.211   5.745   1.546  0.6414  0.0997  0.9436
10443TIP3    H152820   5.161   5.735   1.465  1.6891  0.6246  0.2093
10443TIP3    H252821   5.296   5.704   1.527  0.1424 -1.8495  2.5507
10444TIP3   OH252822   4.449   2.096  16.351 -0.2478  0.2906  0.5396
10444TIP3    H152823   4.414   2.016  16.391  0.5770 -0.3484  0.0252
10444TIP3    H252824   4.397   2.167  16.389 -1.5800 -0.5513  0.3486
10445TIP3   OH252825   0.783   1.553   1.144  0.5472 -0.2508  0.0094
10445TIP3    H152826   0.735   1.555   1.227  0.9640 -1.8530  0.3166
10445TIP3    H252827   0.797   1.645   1.123 -1.1610  0.2187  0.7742
10446TIP3   OH252828   6.292   5.914   5.880  0.0869  0.3538  0.3895
10446TIP3    H152829   6.363   5.936   5.941 -1.0784  1.9673  1.2102
10446TIP3    H252830   6.331   5.847   5.823  2.0757  0.7499  1.1823
10447TIP3   OH252831   2.642   2.396   4.617  0.2365  0.0214 -0.3687
10447TIP3    H152832   2.711   2.408   4.682 -0.1752  2.6471 -0.3040
10447TIP3    H252833   2.562   2.387   4.667  0.0539  1.0352 -0.4428
10448TIP3   OH252834   5.394   0.617  17.493 -0.1005  0.3151 -0.0456
10448TIP3    H152835   5.446   0.576  17.561  0.9335  0.7382 -0.5571
10448TIP3    H252836   5.308   0.575  17.499 -0.5630  1.4889  2.5653
10449TIP3   OH252837   1.523   4.408  14.108  0.4369 -0.3340 -0.2058
10449TIP3    H152838   1.551   4.318  14.124  0.0247 -0.2699  0.9784
10449TIP3    H252839   1.427   4.404  14.111  0.3609 -0.0700 -1.4790
10450TIP3   OH252840   4.670   3.290  13.577  0.4327 -0.3426 -0.0586
10450TIP3    H152841   4.732   3.287  13.651  2.7858  2.8094 -1.6491
10450TIP3    H252842   4.676   3.203  13.537  2.3503 -0.7604  1.0024
10451TIP3   OH252843   0.836   5.959  15.844  0.1142 -0.3407  0.3213
10451TIP3    H152844   0.800   5.921  15.764  1.3294  1.0932 -0.9613
10451TIP3    H252845   0.829   5.889  15.909 -3.1436 -0.7600 -0.3222
10452TIP3   OH252846   2.622   4.860  12.855  0.5212  0.1418  0.8342
10452TIP3    H152847   2.543   4.845  12.907 -0.9241 -0.4427 -1.3669
10452TIP3    H252848   2.650   4.948  12.878 -1.9011  1.1087  0.3570
10453TIP3   OH252849   5.826   1.805  13.679  0.2447  0.2078  0.3154
10453TIP3    H152850   5.804   1.728  13.626 -1.8900  1.0763 -0.1688
10453TIP3    H252851   5.803   1.879  13.624  0.9671  1.1770  1.2874
10454TIP3   OH252852   5.616   2.124   6.570 -0.1988 -0.3289  0.4034
10454TIP3    H152853   5.560   2.191   6.608 -0.3079  0.4010 -1.0206
10454TIP3    H252854   5.625   2.059   6.640 -0.1811  1.0882  1.7701
10455TIP3   OH252855   5.902   4.631  14.031 -0.4244 -0.0122 -0.5052
10455TIP3    H152856   5.918   4.539  14.013 -0.7632  0.1706 -1.7946
10455TIP3    H252857   5.827   4.654  13.977 -1.4688  0.5873  1.1357
10456TIP3   OH252858   2.590   0.024   6.043  0.1593  0.0233 -0.1433
10456TIP3    H152859   2.501   0.054   6.059 -0.2671 -0.5337 -1.3154
10456TIP3    H252860   2.640   0.104   6.031  0.1902  0.4093  2.1120
10457TIP3   OH252861   2.088   1.337   1.130  0.5718  0.0585  0.1554
10457TIP3    H152862   2.170   1.290   1.143 -0.2781 -0.9946  2.2179
10457TIP3    H252863   2.078   1.343   1.035  3.5375  1.2190 -0.1800
10458TIP3   OH252864   4.475   2.764  12.123 -0.6650  0.0635 -0.0221
10458TIP3    H152865   4.427   2.681  12.127 -0.3257 -0.1427 -0.1433
10458TIP3    H252866   4.428   2.817  12.059 -2.2257  0.8387  1.6814
10459TIP3   OH252867   6.602   3.557   0.337 -0.2471 -0.0138  0.3332
10459TIP3    H152868   6.523   3.605   0.359 -0.9225 -0.3233 -1.2610
10459TIP3    H252869   6.659   3.568   0.413 -1.4060  1.0739  1.0842
10460TIP3   OH252870   5.445   1.490  14.104  0.5695  0.1002  0.1582
10460TIP3    H152871   5.463   1.398  14.121  1.6301  0.1430 -0.6804
10460TIP3    H252872   5.470   1.535  14.185 -3.0404 -0.6247  1.8801
10461TIP3   OH252873   3.914   5.020   4.060 -0.3945  0.0896 -0.3575
10461TIP3    H152874   3.921   4.933   4.019 -0.3625 -0.3874  0.6196
10461TIP3    H252875   3.921   5.082   3.987 -0.2030 -0.7225 -1.0474
10462TIP3   OH252876   4.506   4.741  11.492 -0.3150  0.3033 -0.1540
10462TIP3    H152877   4.599   4.723  11.489 -0.3492  0.1001 -0.0187
10462TIP3    H252878   4.499   4.835  11.473  0.0604  0.6959  1.4229
10463TIP3   OH252879   5.674   0.650  14.897  0.0516  0.1301 -0.6476
10463TIP3    H152880   5.732   0.637  14.822  1.8011  1.3143  0.4317
10463TIP3    H252881   5.657   0.562  14.930  2.3440 -0.2178 -0.2215
10464TIP3   OH252882   2.317   1.870  16.970 -0.2535 -0.5395  0.4426
10464TIP3    H152883   2.285   1.925  17.041 -0.4947 -0.4494  0.2642
10464TIP3    H252884   2.411   1.862  16.986 -0.3049 -0.5120  0.7649
10465TIP3   OH252885   2.567   0.476   3.927 -0.1086  0.6976 -0.1589
10465TIP3    H152886   2.586   0.463   4.020 -0.6349 -1.0260 -0.2606
10465TIP3    H252887   2.597   0.396   3.885 -1.6070  0.6628 -1.2197
10466TIP3   OH252888   3.256   6.050   1.227  0.0308 -0.1439 -0.0715
10466TIP3    H152889   3.321   6.069   1.160 -0.6052  0.2718 -0.5867
10466TIP3    H252890   3.265   5.956   1.244  2.4468  0.2938  1.6670
10467TIP3   OH252891   1.298   5.678  17.472 -0.3122 -0.6675  0.5923
10467TIP3    H152892   1.216   5.664  17.519  0.1510 -0.7589  1.3902
10467TIP3    H252893   1.295   5.615  17.399 -0.5608 -1.2796  1.1226
10468TIP3   OH252894   3.845   1.521   4.234 -0.4178 -0.4459  0.5058
10468TIP3    H152895   3.872   1.444   4.184 -0.4441 -0.5445  0.6407
10468TIP3    H252896   3.753   1.505   4.256 -0.9840  0.4902 -1.0615
10469TIP3   OH252897   5.287   1.722  14.266  0.1571 -0.3608 -0.1624
10469TIP3    H152898   5.226   1.688  14.331  0.5447 -0.0398  0.3771
10469TIP3    H252899   5.373   1.693  14.296  0.2943 -0.6239 -0.7994
10470TIP3   OH252900   5.024   0.313  14.793 -0.4550  0.4188  0.4932
10470TIP3    H152901   5.049   0.291  14.703  0.3299 -0.6606  0.9514
10470TIP3    H252902   4.978   0.236  14.825  0.0482  0.4350  1.2986
10471TIP3   OH252903   0.019   6.663   1.497 -0.5987  0.8774  0.3750
10471TIP3    H152904   0.105   6.704   1.486 -1.1522  1.9917  0.0499
10471TIP3    H252905   0.030   6.574   1.463  0.1390  1.3671 -0.7480
10472TIP3   OH252906   3.535   1.161  15.448 -0.6715  0.0974 -0.1386
10472TIP3    H152907   3.584   1.116  15.517 -0.8245 -0.8949 -0.6493
10472TIP3    H252908   3.535   1.253  15.474  1.3306  0.1195 -0.0443
10473TIP3   OH252909   0.497   6.429   5.909  0.1193  0.0231 -0.4105
10473TIP3    H152910   0.441   6.451   5.983 -0.2177  3.1563 -1.4348
10473TIP3    H252911   0.584   6.415   5.946  0.3154  3.1011  0.5557
10474TIP3   OH252912   0.466   5.905  16.653  0.0922 -0.8073 -0.0724
10474TIP3    H152913   0.522   5.834  16.621 -1.0023 -1.1397 -1.3300
10474TIP3    H252914   0.377   5.880  16.628 -0.4766  0.3690  0.6543
10475TIP3   OH252915   0.952   1.667   2.750  0.3231 -0.1087 -0.4749
10475TIP3    H152916   0.924   1.662   2.659  1.4853  0.0109 -0.8584
10475TIP3    H252917   1.031   1.721   2.748 -0.4090  1.0851  0.7973
10476TIP3   OH252918   1.920   3.400  13.721 -0.0235  0.0100  0.4300
10476TIP3    H152919   1.977   3.461  13.673 -1.0225 -0.4521 -1.4164
10476TIP3    H252920   1.886   3.452  13.793 -1.5981  2.0321 -1.6122
10477TIP3   OH252921   4.439   3.497   5.432 -0.1893 -0.2688  0.2543
10477TIP3    H152922   4.496   3.454   5.496 -0.6023  1.0051  1.5152
10477TIP3    H252923   4.371   3.432   5.414  0.3905 -0.9477  0.4427
10478TIP3   OH252924   3.923   0.311  16.409 -0.4696 -0.4714  0.5554
10478TIP3    H152925   3.938   0.221  16.437  0.1613  0.3191  3.0017
10478TIP3    H252926   3.872   0.303  16.328 -0.4421 -2.9905  0.7155
10479TIP3   OH252927   0.281   0.060  11.931 -0.1310  0.4053 -0.0505
10479TIP3    H152928   0.221   0.061  12.006  0.7397 -1.6673  0.7474
10479TIP3    H252929   0.322   0.146  11.932  0.9389 -0.0303  2.8124
10480TIP3   OH252930   5.659   5.158   0.578  0.8390 -0.2864  0.4422
10480TIP3    H152931   5.668   5.120   0.665  0.4279 -0.6625  0.3248
10480TIP3    H252932   5.608   5.093   0.529 -0.3910  0.6811  0.4049
10481TIP3   OH252933   2.244   6.230  15.002  0.8590  0.2342  0.6098
10481TIP3    H152934   2.173   6.167  15.014 -1.0756  1.5839 -2.4851
10481TIP3    H252935   2.315   6.179  14.964 -0.0741 -0.3988 -0.3229
10482TIP3   OH252936   5.035   0.500  16.420 -0.6592 -0.1861  0.6448
10482TIP3    H152937   5.034   0.460  16.507 -1.5142 -0.7618  0.3897
10482TIP3    H252938   5.019   0.426  16.360  0.2722  0.1419 -0.0287
10483TIP3   OH252939   3.853   4.984   6.036  0.6870 -0.9443  0.3340
10483TIP3    H152940   3.863   4.952   6.125  2.5709 -0.0380  0.4881
10483TIP3    H252941   3.795   5.060   6.044 -0.2091 -1.6291  0.5669
10484TIP3   OH252942   5.390   1.134   2.710 -0.4165  0.9245 -0.2713
10484TIP3    H152943   5.463   1.174   2.663  1.5386 -1.5639  0.3834
10484TIP3    H252944   5.386   1.181   2.793  0.1172  1.4447 -0.5328
10485TIP3   OH252945   0.746   0.705  12.860 -0.2760  0.2423 -0.3573
10485TIP3    H152946   0.772   0.740  12.775  0.2929  0.0057 -0.2881
10485TIP3    H252947   0.822   0.653  12.888  0.2978  1.8078  1.1362
10486TIP3   OH252948   4.965   3.499  16.815  0.0002 -0.2155  0.3097
10486TIP3    H152949   5.005   3.432  16.871  0.7604  1.8945  2.4828
10486TIP3    H252950   4.872   3.477  16.813  0.1436 -1.0041  1.4771
10487TIP3   OH252951   4.524   1.696  17.462 -0.0137 -0.1182 -0.6653
10487TIP3    H152952   4.547   1.771  17.407 -1.8601 -0.3210 -1.8365
10487TIP3    H252953   4.602   1.679  17.514 -0.1245  3.8605  1.1484
10488TIP3   OH252954   4.189   1.717  14.180 -0.6554  0.4223  0.4550
10488TIP3    H152955   4.128   1.787  14.159 -1.2936  0.3494  1.9440
10488TIP3    H252956   4.273   1.762  14.193 -1.1288  0.9688  1.7193
10489TIP3   OH252957   0.335   5.554   1.009 -0.1106  0.4268 -0.2104
10489TIP3    H152958   0.249   5.542   0.969 -1.0193 -2.0387  2.1732
10489TIP3    H252959   0.322   5.623   1.075 -0.4810 -0.4100  0.6108
10490TIP3   OH252960   1.334   1.979   1.195  0.2156  0.4732  0.5702
10490TIP3    H152961   1.294   1.923   1.262 -0.4939 -2.8706 -2.3979
10490TIP3    H252962   1.423   1.945   1.185 -1.1771 -2.7073 -3.5213
10491TIP3   OH252963   0.447   5.108  17.018 -0.3031 -0.2045 -0.0251
10491TIP3    H152964   0.480   5.063  16.941  2.0646 -0.0523  0.7995
10491TIP3    H252965   0.380   5.050  17.053 -1.9728  0.0769 -2.5375
10492TIP3   OH252966   3.022   5.551   5.626  0.6683 -0.4170  0.2638
10492TIP3    H152967   3.017   5.596   5.710 -0.5335 -2.3365  1.2901
10492TIP3    H252968   2.972   5.607   5.566  1.0754  0.7016  0.9407
10493TIP3   OH252969   3.088   6.483  12.607  0.1374 -0.8942  0.1867
10493TIP3    H152970   3.101   6.576  12.625 -0.7527 -1.4039  4.3127
10493TIP3    H252971   3.122   6.471  12.518  1.0461  3.1589 -0.1885
10494TIP3   OH252972   2.996   0.903   0.357 -0.3439  0.0645  0.1684
10494TIP3    H152973   2.961   0.814   0.347 -0.2413  0.0943 -0.4768
10494TIP3    H252974   3.067   0.909   0.294  1.1074 -0.1127  1.7202
10495TIP3   OH252975   4.262   6.637   3.199  0.3690 -0.4244  0.1430
10495TIP3    H152976   4.328   6.660   3.265  0.2472  1.2225 -0.2649
10495TIP3    H252977   4.200   6.709   3.201 -0.2754 -0.9216 -0.9637
10496TIP3   OH252978   2.136   4.644   0.609 -0.1601  0.2798 -0.1823
10496TIP3    H152979   2.078   4.710   0.647  0.5742  1.2559 -0.6860
10496TIP3    H252980   2.115   4.645   0.515 -0.8206 -0.9203 -0.0597
10497TIP3   OH252981   5.465   4.839  16.361 -0.2045 -0.7441 -0.2342
10497TIP3    H152982   5.507   4.891  16.431 -0.5374 -0.2707 -0.3832
10497TIP3    H252983   5.382   4.811  16.399 -0.1086 -1.0145 -0.2215
10498TIP3   OH252984   5.895   6.606  17.660 -0.3482  0.1062  0.4349
10498TIP3    H152985   5.884   6.640  17.571  0.7828  1.5957  0.8335
10498TIP3    H252986   5.848   6.668  17.716 -0.4919 -0.4576  0.9503
10499TIP3   OH252987   5.510   0.268   5.014 -0.5269 -0.7088 -0.2157
10499TIP3    H152988   5.526   0.361   5.028 -3.7191 -0.2869  1.3258
10499TIP3    H252989   5.494   0.260   4.920 -1.2646  0.4751 -0.1974
10500TIP3   OH252990   6.661   0.593  16.161  0.1156  0.1250 -0.5297
10500TIP3    H152991   6.740   0.551  16.130  1.3746  1.2951  0.9551
10500TIP3    H252992   6.655   0.674  16.109  0.6867  0.7188  0.3109
10501TIP3   OH252993   6.670   4.615  13.138 -0.8032 -0.3567 -0.6200
10501TIP3    H152994   6.641   4.527  13.115 -0.2272 -0.6645 -0.2039
10501TIP3    H252995   6.762   4.617  13.110 -0.5588 -0.1945  0.1929
10502TIP3   OH252996   6.338   3.008   0.088  0.2779 -0.5287 -0.3808
10502TIP3    H152997   6.270   3.075   0.080  0.4754 -0.1300  1.1619
10502TIP3    H252998   6.292   2.926   0.070 -0.8347 -0.3569  1.5050
10503TIP3   OH252999   6.701   6.364   4.930  0.0916 -0.3717  0.3348
10503TIP3    H153000   6.743   6.417   4.998 -1.3601  1.1284  0.1235
10503TIP3    H253001   6.678   6.282   4.974  0.3906  0.0397  1.2802
10504TIP3   OH253002   0.073   2.928   0.619  0.0999  0.2924  0.2408
10504TIP3    H153003   0.158   2.954   0.653 -1.0634  1.7356  2.3014
10504TIP3    H253004   0.072   2.960   0.528  1.7558  0.1243  0.1350
10505TIP3   OH253005   5.660   6.036   4.219  0.1707  0.4274 -0.3438
10505TIP3    H153006   5.712   5.978   4.164 -2.1859 -4.1345  1.7103
10505TIP3    H253007   5.691   6.019   4.308 -1.1224  1.7990  0.4225
10506TIP3   OH253008   3.113   0.324   3.115 -0.8497  0.6099 -0.1801
10506TIP3    H153009   3.072   0.242   3.087 -0.7317  0.5337 -0.1309
10506TIP3    H253010   3.066   0.349   3.195 -1.6449  1.1855 -0.8141
10507TIP3   OH253011   2.106   3.398   5.042 -0.4505 -0.6188 -0.1045
10507TIP3    H153012   2.096   3.460   4.970  0.9705 -0.8688 -0.5480
10507TIP3    H253013   2.032   3.338   5.032 -0.5799 -0.3259 -1.0286
10508TIP3   OH253014   4.973   0.675  14.992  0.5635  0.1970 -0.3537
10508TIP3    H153015   4.903   0.714  14.940  0.6870 -1.4688 -1.8773
10508TIP3    H253016   4.934   0.596  15.030  1.5911 -0.7717 -1.2571
10509TIP3   OH253017   2.108   3.876  15.329 -0.1313  0.0094  0.1210
10509TIP3    H153018   2.069   3.946  15.382  1.6219  0.8854  0.3332
10509TIP3    H253019   2.074   3.889  15.241  1.2270  2.0313 -0.1521
10510TIP3   OH253020   2.597   6.072  14.007  0.3823 -0.0957 -0.0950
10510TIP3    H153021   2.564   6.035  14.088 -1.2054 -0.4166 -0.8506
10510TIP3    H253022   2.522   6.117  13.968  0.9858 -0.2887 -1.5797
10511TIP3   OH253023   5.851   0.930   2.334 -0.3109 -0.2528  0.3253
10511TIP3    H153024   5.856   0.834   2.332 -0.2012 -0.2518 -1.3696
10511TIP3    H253025   5.758   0.949   2.320 -0.2162 -0.1234 -0.1578
10512TIP3   OH253026   4.964   6.665   3.602 -0.3755  0.2024  0.2199
10512TIP3    H153027   5.030   6.734   3.601  1.9338 -1.8487  0.6349
10512TIP3    H253028   4.951   6.646   3.695 -1.1547  0.2133  0.1176
10513TIP3   OH253029   0.698   0.813   1.902  0.6970 -0.4882  0.8336
10513TIP3    H153030   0.633   0.844   1.966  1.4053  0.0128  1.3201
10513TIP3    H253031   0.662   0.840   1.817  1.1939  1.5629  1.2205
10514TIP3   OH253032   0.810   4.433  15.445  0.0551  0.5612  0.1597
10514TIP3    H153033   0.759   4.372  15.392 -0.6757  1.5040 -0.2485
10514TIP3    H253034   0.788   4.409  15.536 -1.5918  1.3165 -0.0106
10515TIP3   OH253035   6.703   5.493  11.329 -0.2029  0.3214 -0.2536
10515TIP3    H153036   6.645   5.430  11.287 -1.3677  0.7614  0.6301
10515TIP3    H253037   6.649   5.533  11.398  1.5853 -0.3615  1.6553
10516TIP3   OH253038   6.097   0.626  13.206  0.7045 -0.0026 -0.4227
10516TIP3    H153039   6.074   0.630  13.113  0.5920  0.6669 -0.3648
10516TIP3    H253040   6.037   0.560  13.242  0.3480  0.1636 -0.7041
10517TIP3   OH253041   0.218   4.212  11.664  0.1920  0.2862  0.0796
10517TIP3    H153042   0.260   4.287  11.706  1.9664 -1.1004  0.9619
10517TIP3    H253043   0.289   4.171  11.614 -0.8261 -0.6063 -0.6620
10518TIP3   OH253044   0.500   3.909   6.379 -0.0445 -0.0274 -0.2709
10518TIP3    H153045   0.563   3.904   6.451  0.3789  3.2978 -0.2210
10518TIP3    H253046   0.417   3.931   6.422 -0.3866 -0.6136 -0.6236
10519TIP3   OH253047   1.819   2.592   5.037 -0.1616 -0.0727  0.4485
10519TIP3    H153048   1.853   2.675   5.002  0.3075 -0.3754  0.1752
10519TIP3    H253049   1.840   2.595   5.130 -1.5344  0.7973  0.7450
10520TIP3   OH253050   4.304   6.690   1.002  0.2571 -0.0708  0.7953
10520TIP3    H153051   4.345   6.668   0.918 -0.5999  1.9417 -0.2241
10520TIP3    H253052   4.376   6.689   1.065  0.6996 -3.0381  0.4047
10521TIP3   OH253053   5.401   2.598  13.996 -0.4827  0.2421 -0.6440
10521TIP3    H153054   5.339   2.544  13.947  1.9776 -2.1122 -1.4583
10521TIP3    H253055   5.437   2.658  13.931  0.9000 -1.1411 -1.2495
10522TIP3   OH253056   4.635   5.775   4.330  0.5520  0.1435 -0.3228
10522TIP3    H153057   4.688   5.788   4.408  1.9427 -1.9712 -0.8282
10522TIP3    H253058   4.657   5.850   4.274  2.6607 -0.3832 -0.2949
10523TIP3   OH253059   3.813   4.215   2.306  0.0739  0.3886  0.8966
10523TIP3    H153060   3.743   4.256   2.356 -0.6271  1.0983 -0.6095
10523TIP3    H253061   3.769   4.167   2.236  1.0655  1.0249 -0.2131
10524TIP3   OH253062   5.398   0.234   4.762 -0.5294 -0.2085  0.0817
10524TIP3    H153063   5.356   0.156   4.799 -0.4302 -0.1133  0.4011
10524TIP3    H253064   5.446   0.202   4.686  0.6772 -0.7125  1.0303
10525TIP3   OH253065   4.366   2.028  11.321  1.1206  0.0845  0.2408
10525TIP3    H153066   4.349   1.971  11.396  0.0742  2.2507  1.7784
10525TIP3    H253067   4.282   2.030  11.274  1.3929 -0.2520 -0.2654
10526TIP3   OH253068   1.137   5.674  13.865 -0.3930  0.6635 -0.6634
10526TIP3    H153069   1.135   5.700  13.773 -0.1310 -0.6130 -1.0501
10526TIP3    H253070   1.046   5.654  13.886 -0.1729 -1.2190 -1.3274
10527TIP3   OH253071   0.433   6.457   0.764  0.1230 -0.3938  0.2787
10527TIP3    H153072   0.340   6.436   0.763 -0.3294  1.4403 -0.7843
10527TIP3    H253073   0.439   6.542   0.807  0.8969  0.9570 -2.3006
10528TIP3   OH253074   2.755   6.664  13.498  0.3485 -0.0258 -0.2556
10528TIP3    H153075   2.755   6.625  13.586 -0.2519 -2.4080 -1.2223
10528TIP3    H253076   2.822   6.732  13.503  0.8881 -0.6076  1.8319
10529TIP3   OH253077   3.308   1.562  10.977 -0.2502 -0.4727 -0.5303
10529TIP3    H153078   3.387   1.513  10.951 -0.2318  0.4264 -2.3526
10529TIP3    H253079   3.251   1.558  10.900 -1.5343 -0.1781  0.3744
10530TIP3   OH253080   1.362   5.937   1.794 -0.4629  0.0063  0.1213
10530TIP3    H153081   1.383   6.025   1.765  0.0154 -0.7198 -1.9513
10530TIP3    H253082   1.267   5.935   1.800 -0.5326  0.4053 -0.7615
10531TIP3   OH253083   5.683   0.108  17.148  0.4360 -0.5320  0.7158
10531TIP3    H153084   5.631   0.039  17.106 -1.8434  0.8181  1.1375
10531TIP3    H253085   5.769   0.101  17.107 -0.1571 -2.6075 -0.3493
10532TIP3   OH253086   5.052   3.631   2.769  0.0513  0.0374  0.6503
10532TIP3    H153087   5.065   3.651   2.677 -0.9631  0.4564  0.5960
10532TIP3    H253088   5.138   3.647   2.809  0.8351 -1.2984 -0.3934
10533TIP3   OH253089   6.432   2.908  11.716  0.0726  0.3835  0.3732
10533TIP3    H153090   6.363   2.902  11.650  0.0649  0.6548  0.3587
10533TIP3    H253091   6.415   2.834  11.775  0.7027 -0.5127 -0.5293
10534TIP3   OH253092   5.554   5.559   3.487  0.0863  0.5643  0.4328
10534TIP3    H153093   5.567   5.648   3.454  0.6608  0.1090 -0.6335
10534TIP3    H253094   5.471   5.531   3.449  0.0406  0.5445  0.5461
10535TIP3   OH253095   1.947   6.449  13.340 -0.0683 -0.0376 -0.0763
10535TIP3    H153096   2.001   6.527  13.330 -0.8459  0.5204 -0.0552
10535TIP3    H253097   1.950   6.429  13.433  1.6936 -1.2084 -0.3272
10536TIP3   OH253098   4.691   6.427   6.062 -0.1101  0.1333 -0.2149
10536TIP3    H153099   4.757   6.400   5.998  1.1544 -0.6812  1.3403
10536TIP3    H253100   4.624   6.358   6.058 -0.3452  0.4064 -1.0698
10537TIP3   OH253101   1.650   5.696  13.954 -0.4426  0.0642 -0.1905
10537TIP3    H153102   1.563   5.661  13.933 -0.5425 -1.0156  1.7956
10537TIP3    H253103   1.632   5.784  13.987 -0.9455 -0.5644  1.2910
10538TIP3   OH253104   1.521   5.537  10.884 -0.2569 -0.4594  1.3559
10538TIP3    H153105   1.571   5.456  10.879  0.4313 -0.0600  1.6078
10538TIP3    H253106   1.587   5.606  10.878 -1.0322  0.1829 -2.0113
10539TIP3   OH253107   5.639   6.477   4.329 -0.7769 -0.4279  0.2783
10539TIP3    H153108   5.719   6.425   4.337  0.7195  1.7847  0.6618
10539TIP3    H253109   5.652   6.529   4.250 -1.7042  0.1536  0.4966
10540TIP3   OH253110   6.664   2.618   4.125 -0.1607 -0.0056  0.6952
10540TIP3    H153111   6.575   2.640   4.098 -0.4790 -0.3841  1.4149
10540TIP3    H253112   6.719   2.681   4.078 -0.6228 -1.0526 -1.3423
10541TIP3   OH253113   5.474   0.626  12.278  0.3277  0.3741  0.0910
10541TIP3    H153114   5.491   0.587  12.192  0.3421  1.8861 -0.6145
10541TIP3    H253115   5.483   0.552  12.339  0.8488 -0.6241 -1.1339
10542TIP3   OH253116   3.248   2.075  15.190  0.0538  0.4360 -0.1732
10542TIP3    H153117   3.188   2.001  15.193  0.1660  0.3826  1.3868
10542TIP3    H253118   3.192   2.152  15.185 -0.1029  0.3337  0.0507
10543TIP3   OH253119   0.061   1.832  14.472 -0.0177 -0.0683 -0.4541
10543TIP3    H153120   0.134   1.887  14.502 -0.7576 -0.1360  1.6668
10543TIP3    H253121   0.002   1.893  14.427  0.6841  0.2347 -0.9902
10544TIP3   OH253122   2.640   4.127  17.036  0.1898  0.3066 -0.8439
10544TIP3    H153123   2.711   4.100  16.978  1.8790  1.3672  0.6346
10544TIP3    H253124   2.652   4.221  17.046 -0.5253  0.2758  0.5706
10545TIP3   OH253125   4.776   2.910   1.348  0.0559  0.6113 -0.1508
10545TIP3    H153126   4.837   2.884   1.279  0.5175  0.9446  0.1321
10545TIP3    H253127   4.771   3.006   1.342  0.2386  0.6594  0.3942
10546TIP3   OH253128   3.912   4.933  11.851 -0.6338 -0.1021 -0.2984
10546TIP3    H153129   3.987   4.877  11.867 -0.6827 -0.0398  0.1676
10546TIP3    H253130   3.883   4.911  11.763 -0.5566 -0.6915 -0.1768
10547TIP3   OH253131   6.274   3.507   3.571  0.7927  0.0179 -0.2322
10547TIP3    H153132   6.303   3.516   3.480  1.1901  0.1238 -0.0981
10547TIP3    H253133   6.270   3.413   3.585 -0.2327 -0.0205 -0.6545
10548TIP3   OH253134   3.659   6.613   4.444  0.2126 -0.3977  0.3342
10548TIP3    H153135   3.625   6.696   4.479  0.4415 -0.7373  1.3835
10548TIP3    H253136   3.741   6.636   4.402  0.4855 -0.1431  0.9898
10549TIP3   OH253137   1.921   0.626   2.211  0.3042  0.0291  0.7212
10549TIP3    H153138   1.956   0.538   2.199 -0.9130 -0.4435  0.4884
10549TIP3    H253139   1.991   0.675   2.253  0.7539 -1.2357  1.4781
10550TIP3   OH253140   6.111   6.166  14.501  0.0891  0.0735 -0.3949
10550TIP3    H153141   6.018   6.183  14.514 -0.0921 -0.9400 -0.3056
10550TIP3    H253142   6.115   6.079  14.463  1.0679 -0.5723  1.0919
10551TIP3   OH253143   2.320   2.716  15.967 -0.1220  0.5775 -0.0752
10551TIP3    H153144   2.292   2.804  15.944  1.7365  0.5847 -2.8225
10551TIP3    H253145   2.382   2.729  16.039 -1.8039  1.1933  1.3127
10552TIP3   OH253146   4.289   6.281  16.948 -0.2064 -0.2240 -0.2417
10552TIP3    H153147   4.242   6.355  16.909  1.0841 -0.0806 -1.5689
10552TIP3    H253148   4.349   6.251  16.880  0.1712 -1.7223  0.7043
10553TIP3   OH253149   0.648   4.335  16.766  0.5037  0.4410 -0.3159
10553TIP3    H153150   0.598   4.370  16.692 -1.2108 -0.1056  0.5291
10553TIP3    H253151   0.623   4.243  16.771 -2.1293  1.1339  2.9195
10554TIP3   OH253152   4.050   2.779   2.864 -0.4016 -0.3830 -0.5497
10554TIP3    H153153   4.042   2.872   2.839  0.9572 -0.3816 -1.0842
10554TIP3    H253154   4.025   2.777   2.956 -1.0711  0.4076 -0.7006
10555TIP3   OH253155   5.361   4.135   3.930  0.2172 -0.2737 -0.0559
10555TIP3    H153156   5.336   4.227   3.918 -0.8471 -0.2265  2.0946
10555TIP3    H253157   5.277   4.089   3.936  0.6694 -0.8912  2.0632
10556TIP3   OH253158   3.164   4.145   5.142  0.0216 -0.0805  0.6044
10556TIP3    H153159   3.077   4.136   5.102  0.3925 -0.8031 -0.0585
10556TIP3    H253160   3.145   4.155   5.236 -0.7796 -0.2723  0.4750
10557TIP3   OH253161   0.164   2.507   2.345 -0.2181  0.0600  0.0874
10557TIP3    H153162   0.136   2.598   2.336 -1.7030 -0.2827  1.0303
10557TIP3    H253163   0.252   2.505   2.306 -0.9688  1.4415 -1.8030
10558TIP3   OH253164   5.894   4.347   2.839 -0.5929 -0.4484  0.3187
10558TIP3    H153165   5.923   4.334   2.749  0.8497  2.5407  0.2144
10558TIP3    H253166   5.803   4.374   2.832 -0.7729 -1.1448 -0.1331
10559TIP3   OH253167   3.678   4.798  13.561 -0.1877  0.0329 -0.2614
10559TIP3    H153168   3.702   4.879  13.517 -1.7131  0.6549 -0.0072
10559TIP3    H253169   3.737   4.732  13.525  1.1089  1.2589 -0.4228
10560TIP3   OH253170   4.104   0.418  12.403 -0.0504 -0.2214  0.3877
10560TIP3    H153171   4.110   0.369  12.321  1.3742 -0.0650  0.3665
10560TIP3    H253172   4.021   0.464  12.398 -0.8157 -1.6123 -0.1742
10561TIP3   OH253173   6.062   4.302  15.254  0.0709 -0.1376 -0.1096
10561TIP3    H153174   5.968   4.298  15.272  0.5390 -1.4943  2.5624
10561TIP3    H253175   6.087   4.210  15.243  1.3556  0.0384  1.0953
10562TIP3   OH253176   3.877   3.669  15.271 -0.2888  0.3855  0.0543
10562TIP3    H153177   3.904   3.755  15.304 -0.6081  0.2445  0.6928
10562TIP3    H253178   3.796   3.650  15.319 -0.6650  0.0935 -0.6817
10563TIP3   OH253179   0.193   5.334   3.327  1.1759  0.0070 -0.4274
10563TIP3    H153180   0.181   5.242   3.305  3.0887 -0.7208  1.2969
10563TIP3    H253181   0.287   5.344   3.340  0.9631  2.1179 -0.1283
10564TIP3   OH253182   1.307   3.876  16.317 -0.2798  0.5471  0.0432
10564TIP3    H153183   1.274   3.814  16.252 -3.1630  2.9744 -1.0390
10564TIP3    H253184   1.395   3.899  16.286  0.3201 -1.8670 -0.2517
10565TIP3   OH253185   1.962   2.759  14.383  0.2968 -0.2687 -0.3895
10565TIP3    H153186   2.018   2.682  14.376  0.5116 -0.2168  0.6250
10565TIP3    H253187   1.952   2.773  14.477 -0.3908  0.4729 -0.5631
10566TIP3   OH253188   4.144   2.538  13.413  0.2849  0.5941  0.9556
10566TIP3    H153189   4.063   2.583  13.439 -0.2075  0.8067 -0.8647
10566TIP3    H253190   4.115   2.455  13.376  0.9395  0.4706  0.7047
10567TIP3   OH253191   5.088   4.406  16.615  0.4929 -0.1739  0.0211
10567TIP3    H153192   5.157   4.396  16.549 -1.4674 -0.6625 -2.0843
10567TIP3    H253193   5.012   4.363  16.576 -1.3097  1.2576  1.7898
10568TIP3   OH253194   2.784   5.132   0.784 -0.0203  0.1394  0.4524
10568TIP3    H153195   2.745   5.059   0.832  0.9511 -0.4664  0.3542
10568TIP3    H253196   2.779   5.206   0.844 -0.6418 -0.1059  0.7116
10569TIP3   OH253197   0.159   5.318  17.532  0.6178 -0.0181 -0.1211
10569TIP3    H153198   0.084   5.271  17.495  0.8012 -1.0163  0.7324
10569TIP3    H253199   0.225   5.250  17.546  1.5459  0.7857 -0.4912
10570TIP3   OH253200   6.185   5.408   1.783 -0.5325  0.0117 -0.3312
10570TIP3    H153201   6.268   5.445   1.814 -0.5093 -0.0326 -0.3410
10570TIP3    H253202   6.184   5.319   1.816 -0.6920  0.0929 -0.1209
10571TIP3   OH253203   6.519   0.025  14.158  0.0897 -0.1291  0.4924
10571TIP3    H153204   6.530  -0.064  14.125 -3.1944 -0.8371  0.9672
10571TIP3    H253205   6.508   0.015  14.252 -0.4577  0.7520  0.5365
10572TIP3   OH253206   0.815   2.897  13.814 -0.0790  0.1647  0.8641
10572TIP3    H153207   0.775   2.835  13.753  1.2279  0.4037 -0.3078
10572TIP3    H253208   0.763   2.890  13.893 -2.0203  0.0314 -0.3637
10573TIP3   OH253209   2.380   5.539   1.400  0.3139 -1.0095  0.2974
10573TIP3    H153210   2.301   5.516   1.449 -1.1823  0.0162 -1.5269
10573TIP3    H253211   2.390   5.469   1.335  0.9699 -1.1602  0.5459
10574TIP3   OH253212   1.403   4.487  12.892  0.0798 -0.0136  0.1522
10574TIP3    H153213   1.461   4.466  12.965 -1.8877 -1.2117  1.4953
10574TIP3    H253214   1.315   4.474  12.928 -0.9782 -0.7497 -2.4601
10575TIP3   OH253215   1.836   6.432  13.892  0.3077  0.0851  0.6579
10575TIP3    H153216   1.763   6.382  13.854 -0.2112  1.3652 -0.0740
10575TIP3    H253217   1.911   6.373  13.883 -0.3765 -0.7514  0.2256
10576TIP3   OH253218   2.170   3.504  16.208  0.1652  0.5863 -0.0384
10576TIP3    H153219   2.257   3.515  16.170  0.9872 -1.5599  1.0726
10576TIP3    H253220   2.116   3.570  16.164  1.8657  0.6035 -2.2461
10577TIP3   OH253221   4.109   6.216   2.781  0.1956 -0.2750  0.1409
10577TIP3    H153222   4.171   6.144   2.772  1.3006  0.7068 -0.2928
10577TIP3    H253223   4.067   6.200   2.865 -0.1513 -1.8443 -0.2955
10578TIP3   OH253224   4.612   0.811  17.008 -0.0487  0.1112 -0.0832
10578TIP3    H153225   4.622   0.717  17.018 -1.2826  0.1538  2.3849
10578TIP3    H253226   4.519   0.825  16.995 -0.5052  1.0915  3.2296
10579TIP3   OH253227   1.913   1.323  14.417 -0.5380 -0.4478 -0.1244
10579TIP3    H153228   2.007   1.311  14.426 -0.9247 -2.0497  2.7516
10579TIP3    H253229   1.896   1.410  14.453 -0.4658 -1.5143  2.7036
10580TIP3   OH253230   3.042   3.678   5.989  0.5563 -0.4461 -0.4553
10580TIP3    H153231   3.010   3.594   6.021 -0.4754  0.2255  0.3429
10580TIP3    H253232   3.132   3.660   5.960  1.8650 -1.0310  3.4083
10581TIP3   OH253233   6.218   3.195  15.342 -0.0741  0.1775  0.2040
10581TIP3    H153234   6.284   3.127  15.332 -1.0894 -0.7111 -0.7708
10581TIP3    H253235   6.266   3.277  15.334  1.2024 -0.3959  1.5834
10582TIP3   OH253236   2.223   0.662  13.766 -0.2216 -0.3117 -0.0278
10582TIP3    H153237   2.134   0.663  13.732 -0.3487 -0.0666  0.3150
10582TIP3    H253238   2.244   0.754  13.781 -0.6504 -0.4943  1.8410
10583TIP3   OH253239   3.674   6.193  14.005 -0.0925 -0.6643  0.4548
10583TIP3    H153240   3.716   6.206  13.921 -0.7489 -1.9559 -0.1088
10583TIP3    H253241   3.594   6.245  14.001 -0.8984 -1.9150 -0.3545
10584TIP3   OH253242   2.373   3.557  16.550 -0.6529 -0.2860 -0.0434
10584TIP3    H153243   2.317   3.633  16.537 -1.8162 -1.1621 -0.3583
10584TIP3    H253244   2.348   3.523  16.636 -1.1305 -1.0933 -0.4907
10585TIP3   OH253245   1.310   6.449   6.365 -0.3264 -0.4432  0.0246
10585TIP3    H153246   1.348   6.502   6.435  0.4318 -0.7984 -0.1142
10585TIP3    H253247   1.316   6.359   6.398  0.2461 -0.6320 -0.5982
10586TIP3   OH253248   2.636   3.534  11.919 -0.2059 -0.4512 -0.3280
10586TIP3    H153249   2.728   3.521  11.945 -0.3416 -1.2825 -0.2331
10586TIP3    H253250   2.639   3.600  11.849  0.3926  0.0488  0.1552
10587TIP3   OH253251   3.137   6.071   6.045 -0.0728 -0.3561 -0.4696
10587TIP3    H153252   3.114   5.989   6.089 -2.1044 -0.9875 -2.5334
10587TIP3    H253253   3.111   6.140   6.106  0.6069 -1.1966  0.8147
10588TIP3   OH253254   5.140   3.146  17.261 -0.5136  0.3696  0.1704
10588TIP3    H153255   5.136   3.096  17.179  0.9155 -0.8636  0.8106
10588TIP3    H253256   5.233   3.163  17.274 -0.3209 -2.1249  3.0580
10589TIP3   OH253257   6.311   1.681   4.206  0.1950 -0.0763  0.1390
10589TIP3    H153258   6.231   1.628   4.211 -0.0026  0.1447 -0.5353
10589TIP3    H253259   6.374   1.625   4.160  0.6079 -0.4465  1.1161
10590TIP3   OH253260   5.750   3.791   4.337 -0.2109 -0.5268  0.6077
10590TIP3    H153261   5.697   3.734   4.393 -0.7575 -0.9749 -0.3361
10590TIP3    H253262   5.718   3.879   4.355 -0.4680 -0.6805  0.9114
10591TIP3   OH253263   6.127   0.428  13.602  0.1151  0.0956  0.3661
10591TIP3    H153264   6.184   0.494  13.644 -0.9214 -0.0111  2.0206
10591TIP3    H253265   6.141   0.348  13.653  1.0379 -0.9100 -1.3611
10592TIP3   OH253266   2.321   5.225  14.631  0.1629 -0.4699  0.8549
10592TIP3    H153267   2.253   5.231  14.698  1.1659  0.5483  1.8197
10592TIP3    H253268   2.275   5.240  14.549 -0.6390  1.2739  1.5755
10593TIP3   OH253269   6.243   5.817  13.233 -0.1928  0.1542  0.3052
10593TIP3    H153270   6.221   5.886  13.171 -0.2237 -1.1453 -1.1813
10593TIP3    H253271   6.159   5.792  13.272 -0.6718 -1.1273 -1.4367
10594TIP3   OH253272   0.603   2.397   1.292 -0.4144 -0.0982 -0.1136
10594TIP3    H153273   0.530   2.335   1.281 -0.4778  0.3501 -3.1078
10594TIP3    H253274   0.647   2.396   1.207  0.7891  2.4923  0.4117
10595TIP3   OH253275   6.099   5.405  14.387  0.2227  0.1964  0.3690
10595TIP3    H153276   6.177   5.418  14.332 -0.0826 -1.5664 -0.5364
10595TIP3    H253277   6.134   5.402  14.476  1.7038 -3.4597 -0.1745
10596TIP3   OH253278   4.850   4.310   1.123 -0.3429  0.2822  0.4350
10596TIP3    H153279   4.764   4.292   1.086  0.4061  1.1468 -1.9784
10596TIP3    H253280   4.855   4.405   1.128  0.7510  0.2911 -0.3099
10597TIP3   OH253281   0.913   0.113  13.087 -0.0996 -0.0271 -0.1414
10597TIP3    H153282   1.009   0.114  13.085 -0.0747  1.0277  0.6997
10597TIP3    H253283   0.889   0.188  13.142 -1.4257  0.1959 -0.9586
10598TIP3   OH253284   3.271   0.351  16.544 -0.2294  0.3071 -0.3686
10598TIP3    H153285   3.269   0.329  16.451  1.2226 -0.2243 -0.3138
10598TIP3    H253286   3.356   0.393  16.557  0.1755 -0.8172  0.9420
10599TIP3   OH253287   1.262   5.416   0.502 -0.0368  0.1807 -0.3047
10599TIP3    H153288   1.229   5.353   0.438  0.3129 -1.0543  0.6711
10599TIP3    H253289   1.295   5.361   0.574  0.7944  1.4708  0.3407
10600TIP3   OH253290   1.238   3.412  16.015 -0.0734  0.0103 -0.2957
10600TIP3    H153291   1.297   3.347  15.976  0.5742 -0.1219  0.8492
10600TIP3    H253292   1.222   3.379  16.103 -1.1365  0.5317 -0.2750
10601TIP3   OH253293   4.833   2.410   3.942  0.5682 -0.2091  0.7159
10601TIP3    H153294   4.820   2.338   3.881  0.4943  0.3573  0.0549
10601TIP3    H253295   4.923   2.398   3.974  0.5402 -0.6184  0.6508
10602TIP3   OH253296   2.363   2.506  16.511 -0.6344 -0.2779  0.1497
10602TIP3    H153297   2.321   2.592  16.505 -0.4901 -0.0319  2.1403
10602TIP3    H253298   2.294   2.447  16.542 -0.4966 -0.7044 -0.3291
10603TIP3   OH253299   5.099   5.760   0.570  0.1923  0.0361  0.0164
10603TIP3    H153300   5.184   5.720   0.550 -0.2176 -0.8599  0.0121
10603TIP3    H253301   5.044   5.739   0.494 -0.0015  0.7033 -0.0289
10604TIP3   OH253302   3.228   5.082  12.504 -0.5954  0.5581  0.3941
10604TIP3    H153303   3.212   5.107  12.595 -1.1012  0.0505  0.4532
10604TIP3    H253304   3.240   5.164  12.458  0.4324  0.7990  1.0517
10605TIP3   OH253305   5.609   1.546   1.498  0.1697  0.5696  0.2754
10605TIP3    H153306   5.647   1.633   1.488  0.2738  0.5346  0.3619
10605TIP3    H253307   5.646   1.513   1.580  0.1740  0.4231  0.2158
10606TIP3   OH253308   4.155   3.698  14.017 -0.5647 -0.2442  0.0956
10606TIP3    H153309   4.246   3.701  14.045 -0.1353 -0.8201 -1.1889
10606TIP3    H253310   4.105   3.700  14.099  0.5783  0.2447  0.8096
10607TIP3   OH253311   4.076   3.037  12.880  0.3309 -0.1564  0.2575
10607TIP3    H153312   4.000   2.981  12.867 -0.8514  0.8396  2.3345
10607TIP3    H253313   4.129   2.990  12.945  0.2641  0.2826  0.6291
10608TIP3   OH253314   4.967   6.212   5.226 -0.1074 -0.3970 -0.1643
10608TIP3    H153315   5.028   6.142   5.203  0.4900  0.3638 -0.9242
10608TIP3    H253316   4.991   6.236   5.316  0.2789 -0.5431 -0.2272
10609TIP3   OH253317   1.404   3.683   3.869  0.2554 -0.5787  0.1670
10609TIP3    H153318   1.394   3.636   3.786  2.5210 -1.6331  0.4291
10609TIP3    H253319   1.320   3.669   3.913 -0.6615 -0.7860 -1.5184
10610TIP3   OH253320   2.732   1.218  17.343 -0.2992 -0.2035 -0.0334
10610TIP3    H153321   2.772   1.147  17.293 -0.5482 -1.0989  1.0065
10610TIP3    H253322   2.657   1.245  17.290 -0.3665 -0.9067 -0.3056
10611TIP3   OH253323   4.988   1.294  17.434  0.1887 -0.2321 -0.0467
10611TIP3    H153324   5.017   1.356  17.367  1.0000 -2.0587 -1.4802
10611TIP3    H253325   5.064   1.239  17.449  0.1485  0.3182  2.7150
10612TIP3   OH253326   0.642   2.519   2.368 -0.5818 -0.1572  0.1889
10612TIP3    H153327   0.707   2.491   2.432 -0.2856  0.4577  0.1662
10612TIP3    H253328   0.663   2.611   2.351 -2.1246  0.3813  0.9999
10613TIP3   OH253329   2.800   3.895  17.194 -0.0384 -0.1028  0.0434
10613TIP3    H153330   2.886   3.909  17.233  0.5595 -3.0783  0.0328
10613TIP3    H253331   2.811   3.818  17.138 -2.6069 -0.3376 -0.2745
10614TIP3   OH253332   6.708   1.982  15.480  0.1802 -0.3275  0.5486
10614TIP3    H153333   6.759   1.977  15.400 -0.6801 -1.0217  0.0241
10614TIP3    H253334   6.731   1.903  15.529  0.0015 -0.3833  0.5457
10615TIP3   OH253335   5.109   3.369  12.773  0.1584 -0.7011  0.3506
10615TIP3    H153336   5.147   3.395  12.858 -0.2833  1.5653 -0.0883
10615TIP3    H253337   5.125   3.443  12.716 -2.1015 -0.9782 -0.7587
10616TIP3   OH253338   2.655   0.565   3.205  0.5107 -0.4544  0.1376
10616TIP3    H153339   2.641   0.592   3.296  0.5973  4.9029 -1.0784
10616TIP3    H253340   2.585   0.610   3.157  3.9059  2.1004 -2.9200
10617TIP3   OH253341   0.871   2.239   0.759 -0.2895 -0.4156  0.5547
10617TIP3    H153342   0.961   2.270   0.749 -0.3950 -0.6351 -1.4079
10617TIP3    H253343   0.879   2.144   0.770 -0.3062 -0.5574 -0.5657
10618TIP3   OH253344   3.297   6.588  12.855  0.2002  0.0816  0.9609
10618TIP3    H153345   3.284   6.646  12.780  0.6652 -1.0640 -0.0482
10618TIP3    H253346   3.381   6.614  12.892  1.2865 -1.0715 -0.5841
10619TIP3   OH253347   6.536   1.535   1.367  0.7195  0.3291 -0.1261
10619TIP3    H153348   6.558   1.628   1.370  1.3450  0.2397 -1.2979
10619TIP3    H253349   6.561   1.502   1.453  1.7668  0.9853 -0.1646
10620TIP3   OH253350   3.222   1.725  12.484  0.4075  0.6054 -0.1894
10620TIP3    H153351   3.130   1.740  12.506  0.3529 -0.4599  0.3458
10620TIP3    H253352   3.267   1.803  12.517  0.1939 -0.4873  3.0211
10621TIP3   OH253353   3.209   2.995  13.500 -0.8534  0.3540 -0.0490
10621TIP3    H153354   3.299   3.017  13.475 -0.2508 -0.0323  1.6428
10621TIP3    H253355   3.174   2.948  13.424  0.5709  0.0030 -0.5315
10622TIP3   OH253356   6.501   4.189   5.182  0.7611 -0.6395  0.0935
10622TIP3    H153357   6.493   4.191   5.087  1.1036 -3.2907 -0.0548
10622TIP3    H253358   6.578   4.135   5.199  0.5410 -0.4530  1.8869
10623TIP3   OH253359   2.423   3.487   1.452  0.1187 -0.9129  0.0314
10623TIP3    H153360   2.517   3.486   1.469  0.8464  0.0472 -3.2508
10623TIP3    H253361   2.409   3.415   1.390 -0.6712  0.8365 -1.9540
10624TIP3   OH253362   2.887   6.191   2.119  0.0195  0.0363  0.5340
10624TIP3    H153363   2.945   6.127   2.079 -1.4055 -1.1476  0.2959
10624TIP3    H253364   2.911   6.191   2.212  1.1930  0.4743  0.2519
10625TIP3   OH253365   6.023   4.183   5.675  0.1046 -0.1622  0.3211
10625TIP3    H153366   6.001   4.168   5.767  0.9043 -2.8920  0.1638
10625TIP3    H253367   5.943   4.219   5.637 -1.7864 -3.0182  1.2445
10626TIP3   OH253368   0.639   4.759  11.472 -0.3007 -0.2758  0.2771
10626TIP3    H153369   0.562   4.729  11.425  0.3629  1.5220 -2.1608
10626TIP3    H253370   0.604   4.810  11.545 -1.4224 -0.0118 -0.4202
10627TIP3   OH253371   1.490   3.578   4.631  0.4693 -0.1048 -0.2408
10627TIP3    H153372   1.530   3.661   4.605 -0.0696  0.9841  2.0801
10627TIP3    H253373   1.396   3.596   4.631  0.3118 -0.9109 -0.2869
10628TIP3   OH253374   1.332   6.085   3.479 -0.4733 -0.4455  0.2207
10628TIP3    H153375   1.241   6.059   3.493 -0.0199 -1.7007  0.9701
10628TIP3    H253376   1.348   6.154   3.543 -1.3611  1.0092 -1.0408
10629TIP3   OH253377   6.115   3.706  13.716  0.2278 -0.0010  0.1419
10629TIP3    H153378   6.137   3.613  13.718  0.1743 -0.0127  0.2172
10629TIP3    H253379   6.021   3.707  13.700  0.6537  0.0961 -2.9443
10630TIP3   OH253380   1.749   0.387   1.574  0.4176 -0.0904  0.4699
10630TIP3    H153381   1.735   0.332   1.650 -0.1747 -1.6115 -0.6885
10630TIP3    H253382   1.694   0.349   1.506  2.9122 -0.4523 -1.5203
10631TIP3   OH253383   3.975   5.101   3.472 -0.3789 -0.4132  0.2010
10631TIP3    H153384   3.962   5.014   3.435 -0.4527 -0.3232  0.0107
10631TIP3    H253385   4.058   5.096   3.518  1.2468  0.2817 -2.4650
10632TIP3   OH253386   3.977   4.905  17.564 -0.0512 -0.5504 -0.3582
10632TIP3    H153387   4.021   4.980  17.524  1.4020  0.2047  2.3956
10632TIP3    H253388   3.901   4.889  17.508 -0.4068  2.9568 -1.1274
10633TIP3   OH253389   1.836   2.469  15.452  0.7459 -0.2164 -0.2572
10633TIP3    H153390   1.857   2.561  15.469 -0.7362 -0.2261  2.0288
10633TIP3    H253391   1.920   2.423  15.464  0.9745  0.5512  1.3759
10634TIP3   OH253392   6.588   6.195  13.883  0.0538  0.5165  0.3465
10634TIP3    H153393   6.619   6.149  13.961  1.0513  0.6916  0.0691
10634TIP3    H253394   6.515   6.141  13.851  0.5745 -0.3495  0.5735
10635TIP3   OH253395   2.058   2.434  14.047 -0.2807 -0.1010  0.0873
10635TIP3    H153396   1.970   2.405  14.068 -0.2003 -0.5789 -0.2238
10635TIP3    H253397   2.068   2.415  13.953  1.0567 -2.5302  0.6274
10636TIP3   OH253398   4.531   6.646  11.386  0.1813 -0.5521 -0.4050
10636TIP3    H153399   4.436   6.639  11.375 -0.0285  2.4410 -1.1892
10636TIP3    H253400   4.551   6.738  11.368  2.5659  0.3040  4.7562
10637TIP3   OH253401   4.912   1.798   1.197  0.1955 -0.1443 -0.5226
10637TIP3    H153402   4.947   1.721   1.243 -0.5832 -0.2489 -0.0759
10637TIP3    H253403   4.988   1.852   1.180  0.5736 -0.2987  0.5545
10638TIP3   OH253404   2.664   4.997   5.493 -0.1440  0.0928  0.6630
10638TIP3    H153405   2.589   4.947   5.527  0.4460  0.0592  1.9919
10638TIP3    H253406   2.734   4.981   5.557  1.1280 -0.1701 -0.7414
10639TIP3   OH253407   5.341   5.353  17.170  0.2707  0.0316 -0.8377
10639TIP3    H153408   5.373   5.413  17.237  2.0662 -0.4232 -1.2351
10639TIP3    H253409   5.297   5.409  17.106 -0.7430  0.5545  0.2919
10640TIP3   OH253410   6.362   3.628   1.268 -0.5921 -0.4273 -0.8310
10640TIP3    H153411   6.321   3.575   1.199  0.6498  0.3851 -2.2331
10640TIP3    H253412   6.336   3.718   1.249  0.7918 -0.0410 -1.0108
10641TIP3   OH253413   1.828   5.207  11.903  0.1115 -0.8196 -0.4265
10641TIP3    H153414   1.875   5.185  11.822  0.6616 -0.4693 -0.2127
10641TIP3    H253415   1.878   5.281  11.940 -1.3785  0.4643 -0.8716
10642TIP3   OH253416   6.095   3.950   2.684 -0.5351 -0.1645 -0.0091
10642TIP3    H153417   6.029   3.975   2.619  0.4720  1.8104 -0.3718
10642TIP3    H253418   6.131   3.867   2.651  0.3972  1.0833 -2.4299
10643TIP3   OH253419   5.900   0.803  16.152  0.5640 -0.8015  0.4041
10643TIP3    H153420   5.910   0.789  16.058 -1.5781 -1.9547  0.2717
10643TIP3    H253421   5.814   0.765  16.173  0.4378  0.5023  2.6186
10644TIP3   OH253422   6.523   5.983   4.296 -0.1800 -0.3135 -0.2365
10644TIP3    H153423   6.575   5.904   4.282  0.8157  0.3043 -0.1234
10644TIP3    H253424   6.496   6.010   4.209  1.6887  0.6605 -0.5649
10645TIP3   OH253425   2.502   2.138  16.060 -0.0357 -0.0408  0.7555
10645TIP3    H153426   2.430   2.089  16.021 -0.0557  1.8460 -1.8084
10645TIP3    H253427   2.570   2.072  16.073 -0.1213 -0.9454 -2.3941
10646TIP3   OH253428   2.593   4.147   5.709  0.2567  0.2705 -0.0297
10646TIP3    H153429   2.653   4.159   5.783  1.3172 -0.0172 -0.8132
10646TIP3    H253430   2.515   4.197   5.733  1.2641  1.6626  0.5111
10647TIP3   OH253431   0.110   2.169   5.389  0.0163 -0.5952  0.6760
10647TIP3    H153432   0.055   2.118   5.450 -1.3846  0.0095 -0.0498
10647TIP3    H253433   0.127   2.251   5.435 -2.1321  0.4076 -0.1799
10648TIP3   OH253434   2.654   1.912  14.633  0.2370 -0.5379  0.7056
10648TIP3    H153435   2.672   1.985  14.573 -0.8522 -0.0952  0.8739
10648TIP3    H253436   2.584   1.863  14.589  0.4848 -1.0883  0.9201
10649TIP3   OH253437   2.605   5.341  15.874 -0.0630 -0.1838 -0.4352
10649TIP3    H153438   2.582   5.366  15.785  0.2278  0.4140 -0.3432
10649TIP3    H253439   2.697   5.316  15.870  0.9009  2.8147  0.2558
10650TIP3   OH253440   0.559   3.336  11.310  0.5712  0.7346  1.2049
10650TIP3    H153441   0.517   3.376  11.233 -1.2044 -0.5747  1.4253
10650TIP3    H253442   0.535   3.394  11.383 -2.0565 -0.6309  1.5358
10651TIP3   OH253443   5.812   3.052   2.428 -0.3635  0.1062  0.5905
10651TIP3    H153444   5.895   3.006   2.414 -1.7092 -2.1024 -1.0188
10651TIP3    H253445   5.831   3.118   2.494  2.9109  0.4488 -0.5120
10652TIP3   OH253446   0.713   2.566   4.976 -0.1792 -0.0323  0.4424
10652TIP3    H153447   0.655   2.509   4.926  1.4827 -1.1655 -0.2947
10652TIP3    H253448   0.655   2.614   5.035 -1.8627 -0.9181 -0.4256
10653TIP3   OH253449   1.835   3.005   0.385  0.4584 -0.2039  0.2126
10653TIP3    H153450   1.781   3.001   0.306 -1.3051 -3.3808  1.4115
10653TIP3    H253451   1.795   3.074   0.438  0.0282  0.1388 -0.5479
10654TIP3   OH253452   6.470   5.268  11.590 -0.6554 -0.4141 -0.2552
10654TIP3    H153453   6.553   5.316  11.587 -0.4468  0.2350  5.2649
10654TIP3    H253454   6.492   5.181  11.557  0.8977  0.9781 -3.2945
10655TIP3   OH253455   1.938   5.854  12.067 -0.3180  0.2823  0.1303
10655TIP3    H153456   1.891   5.937  12.076 -1.0660 -0.3347  2.9308
10655TIP3    H253457   1.887   5.792  12.119  1.3389 -1.4504 -0.1982
10656TIP3   OH253458   4.634   6.395  11.802 -0.1288 -0.8289 -0.3567
10656TIP3    H153459   4.648   6.304  11.825  2.1962 -0.1120  1.4418
10656TIP3    H253460   4.680   6.408  11.719  0.5568 -1.0401 -0.0141
10657TIP3   OH253461   2.339   5.386  16.018 -0.1543 -0.2993 -0.0298
10657TIP3    H153462   2.308   5.456  15.961  0.8598  0.9998  0.9348
10657TIP3    H253463   2.432   5.376  15.995  0.2395  0.1671  1.2541
10658TIP3   OH253464   3.687   0.750   3.174 -0.2394  0.0366 -0.3829
10658TIP3    H153465   3.618   0.692   3.144 -0.5482  0.5043 -0.5909
10658TIP3    H253466   3.669   0.833   3.130 -0.1841  0.4755  0.4048
10659TIP3   OH253467   2.650   3.784   2.443 -0.3551 -0.6901  0.2847
10659TIP3    H153468   2.578   3.770   2.505 -0.3026  1.2751  0.8547
10659TIP3    H253469   2.668   3.697   2.408 -0.9734 -1.7333  2.3696
10660TIP3   OH253470   6.484   1.984   6.070  0.1859  0.0812  0.2295
10660TIP3    H153471   6.557   2.042   6.047 -0.7432  0.4956 -1.9624
10660TIP3    H253472   6.526   1.902   6.096  1.4547  0.4039 -0.7069
10661TIP3   OH253473   2.486   2.572   0.350  0.0400  0.0976 -0.0462
10661TIP3    H153474   2.513   2.625   0.425  1.2573 -0.6100  0.0472
10661TIP3    H253475   2.395   2.597   0.334 -0.0651  0.6691  1.3063
10662TIP3   OH253476   5.208   4.070  14.878  0.8092  0.1348 -0.3941
10662TIP3    H153477   5.205   3.977  14.897 -1.0148  0.7384  3.1999
10662TIP3    H253478   5.123   4.090  14.838  1.1187  0.2835 -0.9831
10663TIP3   OH253479   1.128   0.864   5.197 -0.2470  0.7294  0.4440
10663TIP3    H153480   1.173   0.859   5.282 -0.2512  0.5044  0.4350
10663TIP3    H253481   1.181   0.925   5.145  1.1870 -1.0067 -0.2307
10664TIP3   OH253482   4.886   1.770  12.721  0.5840  0.1845  0.2613
10664TIP3    H153483   4.791   1.780  12.725  0.3723 -0.0212 -2.1659
10664TIP3    H253484   4.921   1.844  12.771 -0.7912 -0.5751  2.4855
10665TIP3   OH253485   0.154   2.583  17.106 -0.0489 -0.1977  0.1241
10665TIP3    H153486   0.126   2.509  17.054 -1.3245 -0.0959  0.6193
10665TIP3    H253487   0.105   2.575  17.188  0.2540  0.8359  0.4317
10666TIP3   OH253488   5.155   1.869   5.963 -0.1207 -0.0102  0.1545
10666TIP3    H153489   5.205   1.803   6.010 -0.6483 -1.3108 -1.0298
10666TIP3    H253490   5.145   1.833   5.874 -0.7135  1.5098 -0.4370
10667TIP3   OH253491   6.552   0.756   3.463  0.3588  0.5899 -0.6744
10667TIP3    H153492   6.515   0.694   3.400 -0.6267  0.6521 -0.1744
10667TIP3    H253493   6.631   0.713   3.495 -1.7715 -1.8929  1.8966
10668TIP3   OH253494   0.753   4.464   4.553  0.4148 -0.2188  0.5216
10668TIP3    H153495   0.773   4.388   4.607  2.0071  0.0465  0.3586
10668TIP3    H253496   0.682   4.508   4.600  0.9154 -0.6628  1.7504
10669TIP3   OH253497   3.304   1.599  17.545  0.3295 -0.1716 -0.2260
10669TIP3    H153498   3.349   1.581  17.463 -1.5123  0.8315 -1.5461
10669TIP3    H253499   3.268   1.687  17.534 -0.2131 -0.1297  1.5477
10670TIP3   OH253500   5.313   3.060   1.187  0.0585 -0.0345 -1.1065
10670TIP3    H153501   5.365   3.019   1.257 -1.5709 -0.4738 -0.1027
10670TIP3    H253502   5.307   3.152   1.213 -0.8487 -0.2680 -0.4471
10671TIP3   OH253503   5.540   1.894  17.223 -0.2862 -0.1029 -0.3875
10671TIP3    H153504   5.633   1.904  17.245 -0.9634  2.2374  1.8648
10671TIP3    H253505   5.515   1.810  17.262  0.4155  0.2762  0.9333
10672TIP3   OH253506   5.571   3.544   2.076 -0.1153 -0.0982 -0.2951
10672TIP3    H153507   5.532   3.504   1.999 -0.3797  0.4490 -0.4454
10672TIP3    H253508   5.533   3.496   2.150  0.0686 -0.5603 -0.4953
10673TIP3   OH253509   3.580   3.408  12.140  0.7462 -0.3240 -0.4297
10673TIP3    H153510   3.588   3.438  12.230  1.0780 -1.5145 -0.0518
10673TIP3    H253511   3.486   3.393  12.128  0.8243 -1.3170  0.1130
10674TIP3   OH253512   4.311   0.355   5.594  0.3948 -0.1281  0.5009
10674TIP3    H153513   4.237   0.350   5.654 -0.4308 -1.2840 -0.5559
10674TIP3    H253514   4.379   0.302   5.635 -0.5187 -1.7745 -0.0146
10675TIP3   OH253515   3.791   0.194  13.905 -0.0117  0.5365 -0.0552
10675TIP3    H153516   3.805   0.105  13.936 -0.2564  0.7347  0.6386
10675TIP3    H253517   3.877   0.235  13.908  0.1741  0.2173 -0.7458
10676TIP3   OH253518   2.153   0.598  12.633  0.1520  0.5010 -0.1554
10676TIP3    H153519   2.060   0.578  12.647  0.4359  0.2090  1.5099
10676TIP3    H253520   2.166   0.683  12.675  0.5408  0.7941 -0.8475
10677TIP3   OH253521   4.978   2.438  13.150 -0.8884  0.1714 -0.5572
10677TIP3    H153522   4.920   2.450  13.225  0.0170 -1.8482  0.5340
10677TIP3    H253523   5.059   2.484  13.174 -1.3989  1.5876 -1.3854
10678TIP3   OH253524   0.734   1.493  15.096 -0.5268 -0.2688 -0.0460
10678TIP3    H153525   0.800   1.497  15.026 -0.6421 -2.7749 -0.3824
10678TIP3    H253526   0.685   1.575  15.087  1.4269  0.9006 -0.8619
10679TIP3   OH253527   4.337   6.712   1.766  0.2688 -0.4251  0.2473
10679TIP3    H153528   4.381   6.634   1.733  0.9833 -0.2405  0.7437
10679TIP3    H253529   4.401   6.782   1.755  0.3550 -0.2747  1.5826
10680TIP3   OH253530   3.436   0.087   2.779  1.0547 -0.3721 -0.4310
10680TIP3    H153531   3.406   0.142   2.707  0.1897  0.9433  0.8655
10680TIP3    H253532   3.506   0.137   2.820  2.1266 -1.4901 -0.8172
10681TIP3   OH253533   2.605   3.454   0.291 -0.8730  0.6265  0.0846
10681TIP3    H153534   2.636   3.363   0.287 -1.6628  0.3814 -2.3162
10681TIP3    H253535   2.659   3.495   0.358  0.8997 -1.1259 -0.1681
10682TIP3   OH253536   3.222   5.296   4.138  0.2678  0.4670  0.1636
10682TIP3    H153537   3.317   5.308   4.127  0.2081  1.6714  0.8526
10682TIP3    H253538   3.212   5.201   4.146  1.5837  0.3913  1.3915
10683TIP3   OH253539   3.609   2.735  15.723  0.0002 -0.5117 -0.5935
10683TIP3    H153540   3.586   2.723  15.816  0.6759 -0.7533 -0.4506
10683TIP3    H253541   3.567   2.661  15.679 -1.0989  0.1144 -0.6236
10684TIP3   OH253542   2.110   0.241  13.352 -0.2458 -0.2319 -0.0248
10684TIP3    H153543   2.075   0.283  13.273  4.0130 -0.1013 -2.1540
10684TIP3    H253544   2.135   0.314  13.408  1.0440 -0.0970 -0.7411
10685TIP3   OH253545   5.903   0.540  16.281 -0.6814 -0.6264  0.1880
10685TIP3    H153546   5.870   0.596  16.211 -0.1246  0.8707  1.0780
10685TIP3    H253547   5.853   0.567  16.359  1.6145  0.7821  1.2722
10686TIP3   OH253548   2.890   0.120   3.035 -0.1470 -0.0905  0.1244
10686TIP3    H153549   2.866   0.053   2.971 -0.9068  2.3532 -2.3574
10686TIP3    H253550   2.809   0.138   3.083  0.0079 -0.7597  0.6520
10687TIP3   OH253551   3.768   1.908   1.196 -0.0478  0.0365 -0.1743
10687TIP3    H153552   3.826   1.974   1.235  0.0005 -1.3322  2.2448
10687TIP3    H253553   3.680   1.935   1.222 -0.3085  0.6923 -1.6526
10688TIP3   OH253554   5.536   0.838  11.783 -0.0243  0.5118  0.4105
10688TIP3    H153555   5.621   0.873  11.810 -0.2773  0.4757  1.2927
10688TIP3    H253556   5.502   0.902  11.720  1.8775 -0.8486 -2.2053
10689TIP3   OH253557   4.719   5.898   1.767 -0.5500  0.0715  0.6575
10689TIP3    H153558   4.721   5.822   1.826 -1.7171 -1.4620 -1.1304
10689TIP3    H253559   4.678   5.864   1.687 -0.3570  2.4175 -0.5120
10690TIP3   OH253560   5.519   1.437  16.756 -0.1889  0.2113 -0.1729
10690TIP3    H153561   5.457   1.492  16.709 -0.4827  0.6695  0.7232
10690TIP3    H253562   5.472   1.355  16.770  0.7152 -0.8606 -2.7025
10691TIP3   OH253563   2.099   6.563   2.963 -0.6841 -0.3295 -0.3752
10691TIP3    H153564   2.158   6.531   3.031  0.2827 -0.4639 -1.2590
10691TIP3    H253565   2.015   6.520   2.982 -0.2394 -0.9249  0.2954
10692TIP3   OH253566   1.993   2.408  11.097  0.0681 -0.0959  0.0774
10692TIP3    H153567   1.942   2.336  11.062  1.2484 -0.7849 -0.2854
10692TIP3    H253568   2.050   2.368  11.163  0.6358  0.5120 -0.0261
10693TIP3   OH253569   2.840   3.023   5.409 -0.2948 -0.7632  0.2528
10693TIP3    H153570   2.815   3.035   5.318 -1.5707 -5.0711 -0.2043
10693TIP3    H253571   2.885   3.104   5.433  0.2712  0.5005 -4.2021
10694TIP3   OH253572   2.388   0.183  11.213  0.0898 -0.1772  0.2837
10694TIP3    H153573   2.361   0.156  11.301  0.6249 -1.8777 -0.0494
10694TIP3    H253574   2.476   0.147  11.202 -0.0858 -0.2410 -1.0711
10695TIP3   OH253575   1.268   5.002  10.815  0.6280 -0.4638 -0.2398
10695TIP3    H153576   1.182   4.981  10.851  1.1818 -0.6387  1.0150
10695TIP3    H253577   1.329   4.948  10.865  1.3954 -1.1223 -1.8116
10696TIP3   OH253578   4.364   2.112   6.476  0.3049  0.0040  0.1107
10696TIP3    H153579   4.325   2.083   6.394 -0.5069 -1.2646  0.9138
10696TIP3    H253580   4.390   2.032   6.521 -0.2711  0.5876  1.5770
10697TIP3   OH253581   3.914   5.032  13.802  0.5490 -0.0237 -0.6291
10697TIP3    H153582   3.975   5.028  13.728  2.1743  0.9191  0.5873
10697TIP3    H253583   3.904   5.125  13.820  0.7124 -0.2543  0.7390
10698TIP3   OH253584   6.497   6.582  14.967  0.2548 -0.3044 -0.0799
10698TIP3    H153585   6.417   6.589  15.018 -0.1055  1.2130 -0.7946
10698TIP3    H253586   6.560   6.638  15.013  0.5932 -0.6476 -0.1127
10699TIP3   OH253587   0.383   1.859  15.534  0.2200  0.0520  0.6935
10699TIP3    H153588   0.440   1.885  15.461  0.3969 -0.9836  0.4383
10699TIP3    H253589   0.314   1.925  15.535  0.4090  0.2799 -0.1926
10700TIP3   OH253590   5.455   5.097   0.295  0.3450 -0.1566  0.3940
10700TIP3    H153591   5.537   5.077   0.249  0.0902  0.3283 -0.2948
10700TIP3    H253592   5.390   5.041   0.252  0.4907 -1.4146  1.7067
10701TIP3   OH253593   1.484   1.389   5.390 -0.0845  0.7885 -0.0323
10701TIP3    H153594   1.481   1.294   5.389 -0.9445  0.8003  0.4175
10701TIP3    H253595   1.541   1.412   5.316 -0.3779 -0.0520 -0.5347
10702TIP3   OH253596   0.131   6.183  17.129  0.1116 -0.6156 -0.7893
10702TIP3    H153597   0.174   6.119  17.073  0.7895 -1.3661  0.5300
10702TIP3    H253598   0.043   6.149  17.142  0.0223 -0.5500 -1.2086
10703TIP3   OH253599   3.705   1.869  13.482  0.1611  0.0534 -0.0180
10703TIP3    H153600   3.761   1.930  13.434  1.3134 -0.3723  0.7429
10703TIP3    H253601   3.633   1.924  13.515 -0.9504  0.2761 -2.5666
10704TIP3   OH253602   1.454   6.312  11.464 -0.4256 -0.0019 -0.3930
10704TIP3    H153603   1.428   6.264  11.385 -1.5429  0.6276 -0.4193
10704TIP3    H253604   1.426   6.256  11.536 -0.2578 -0.1363 -0.4304
10705TIP3   OH253605   5.538   2.271  13.909 -0.6157  0.3919 -0.6331
10705TIP3    H153606   5.587   2.318  13.841  0.0721 -1.6331 -1.6277
10705TIP3    H253607   5.556   2.319  13.989  0.7911  1.2767 -1.4339
10706TIP3   OH253608   0.630   0.410   1.052  0.1792  0.0959  0.3842
10706TIP3    H153609   0.663   0.382   1.137  1.3775 -0.0014 -0.0989
10706TIP3    H253610   0.582   0.491   1.070  0.0665 -0.1464  1.2070
10707TIP3   OH253611   1.429   6.599   1.931  0.2672  0.1297 -0.3593
10707TIP3    H153612   1.467   6.585   2.018 -0.1926  2.1981  0.2250
10707TIP3    H253613   1.336   6.579   1.941  0.3434 -0.3212 -0.5563
10708TIP3   OH253614   3.989   1.560  11.899  0.1140  0.1236  0.7611
10708TIP3    H153615   4.050   1.513  11.955  1.4015  0.0243 -0.6710
10708TIP3    H253616   3.963   1.636  11.951 -0.5361 -1.1434  2.3660
10709TIP3   OH253617   2.250   6.542   4.466  0.0799 -0.1016 -0.5809
10709TIP3    H153618   2.184   6.539   4.535  0.6171  1.7301  0.0738
10709TIP3    H253619   2.316   6.604   4.499  3.2186 -3.2677 -0.2753
10710TIP3   OH253620   5.004   2.547   2.064  0.7946  0.1789 -0.1226
10710TIP3    H153621   4.957   2.522   1.985  0.5916  1.4984 -0.4463
10710TIP3    H253622   5.000   2.643   2.065  1.8727  0.2359  0.8307
10711TIP3   OH253623   3.179   6.344   1.452 -0.2062 -0.2297  0.2778
10711TIP3    H153624   3.223   6.340   1.537  2.6183 -2.0124 -1.1224
10711TIP3    H253625   3.141   6.257   1.440  0.2238 -0.3018 -0.6507
10712TIP3   OH253626   6.554   6.215  12.100  0.1255 -0.0958 -0.4067
10712TIP3    H153627   6.624   6.167  12.146 -1.2946 -0.6644  1.2931
10712TIP3    H253628   6.514   6.270  12.168 -1.6049 -0.4185 -1.1090
10713TIP3   OH253629   1.906   3.581  14.755  0.4331 -0.0743  0.5828
10713TIP3    H153630   1.951   3.653  14.711  0.9367 -0.6377  0.1514
10713TIP3    H253631   1.892   3.613  14.844  1.1841  0.3343  0.5667
10714TIP3   OH253632   1.760   4.747   4.364  0.0619  0.1740 -0.0029
10714TIP3    H153633   1.714   4.760   4.281 -2.0735  1.3491  1.2680
10714TIP3    H253634   1.768   4.652   4.371 -0.8788 -0.0100 -0.9833
10715TIP3   OH253635   1.396   0.835  11.240 -0.2024 -0.2574 -0.0675
10715TIP3    H153636   1.352   0.785  11.172 -1.6744  0.7247  0.1269
10715TIP3    H253637   1.485   0.847  11.207 -1.1331  1.0681 -2.3450
10716TIP3   OH253638   1.906   0.416   0.758  0.1529 -0.0604  0.0296
10716TIP3    H153639   1.933   0.331   0.793  1.6250  0.4086  0.0907
10716TIP3    H253640   1.830   0.440   0.811 -0.5497 -1.4998 -0.2591
10717TIP3   OH253641   1.776   0.858  13.800  0.0438 -0.2202 -0.4219
10717TIP3    H153642   1.728   0.869  13.883 -1.2915  0.6779 -1.2778
10717TIP3    H253643   1.856   0.909  13.811 -0.7589  1.0172 -0.1574
10718TIP3   OH253644   0.643   1.093   4.553  0.2549 -0.3467 -0.7346
10718TIP3    H153645   0.681   1.173   4.589 -0.7963 -0.0519 -0.2316
10718TIP3    H253646   0.594   1.055   4.626  0.8392 -1.5158 -0.9374
10719TIP3   OH253647   0.938   3.869   5.447  0.0562 -0.3503 -0.1968
10719TIP3    H153648   0.882   3.832   5.516 -0.9833  0.2369 -0.6933
10719TIP3    H253649   0.876   3.912   5.388  1.1402  1.1755 -0.2491
10720TIP3   OH253650   3.475   3.849   5.699  0.2074  0.0394 -0.3961
10720TIP3    H153651   3.513   3.844   5.611  1.0193 -1.8545  0.0113
10720TIP3    H253652   3.549   3.876   5.754  0.2551 -0.8653 -0.0056
10721TIP3   OH253653   2.819   3.322  14.227  0.1506  0.2086 -0.0767
10721TIP3    H153654   2.746   3.261  14.213  0.0483  0.4687 -0.6831
10721TIP3    H253655   2.819   3.337  14.322 -0.8456  0.5171 -0.1084
10722TIP3   OH253656   0.115   4.783  13.908  0.1033  0.0552  0.6865
10722TIP3    H153657   0.202   4.801  13.944  0.4927  1.1476 -0.6896
10722TIP3    H253658   0.056   4.839  13.958  0.4056  0.3741  0.6872
10723TIP3   OH253659   2.013   3.370   6.208  0.3782 -0.2138  0.2503
10723TIP3    H153660   2.057   3.287   6.226 -0.8414 -0.4645  2.3205
10723TIP3    H253661   2.082   3.436   6.216  0.5774 -0.6354  3.0941
10724TIP3   OH253662   2.023   3.848   0.047  0.2790 -0.0524  0.0237
10724TIP3    H153663   1.990   3.864  -0.041 -1.2194 -1.9781  0.1603
10724TIP3    H253664   2.035   3.753   0.051  2.6207  0.2068  1.1522
10725TIP3   OH253665   3.660   6.563   0.346 -0.1342 -0.1477 -0.2591
10725TIP3    H153666   3.637   6.483   0.393 -0.0818 -0.6052 -0.9886
10725TIP3    H253667   3.615   6.632   0.394 -0.2520 -0.6230  0.3334
10726TIP3   OH253668   0.544   4.275   2.705 -0.2882 -0.0143 -0.1103
10726TIP3    H153669   0.581   4.339   2.644  0.9041 -0.9278 -0.3990
10726TIP3    H253670   0.465   4.316   2.739 -0.0100  1.2468 -0.9294
10727TIP3   OH253671   5.071   6.426   2.897 -0.1279  0.2470  0.0066
10727TIP3    H153672   5.079   6.380   2.981 -3.1086  0.0974  0.3116
10727TIP3    H253673   5.072   6.519   2.920 -0.6957  0.2087  0.2180
10728TIP3   OH253674   4.047   1.402  13.830 -0.7072 -0.1594 -0.7627
10728TIP3    H153675   4.030   1.491  13.802 -0.0520 -0.0615 -0.8753
10728TIP3    H253676   4.091   1.411  13.915  0.1561 -0.3319 -1.1812
10729TIP3   OH253677   1.375   2.030  12.150 -0.2392 -0.3909  0.4203
10729TIP3    H153678   1.440   2.066  12.210 -0.9855 -0.9888  1.6447
10729TIP3    H253679   1.291   2.053  12.189 -0.7855  0.4441 -1.1778
10730TIP3   OH253680   4.998   2.820  16.521 -0.4352 -0.1581  0.1490
10730TIP3    H153681   5.013   2.728  16.502 -1.4819 -0.3474  0.1723
10730TIP3    H253682   5.055   2.867  16.461 -2.0387 -0.7833 -1.9802
10731TIP3   OH253683   6.581   0.335   2.104 -0.9614 -0.3702  0.6567
10731TIP3    H153684   6.649   0.350   2.169  0.7990 -2.7868 -0.4677
10731TIP3    H253685   6.584   0.240   2.088 -3.3789 -0.2922 -0.7698
10732TIP3   OH253686   5.630   4.307   0.409 -0.1211 -0.2163 -0.4330
10732TIP3    H153687   5.625   4.239   0.342 -2.3327  1.9322 -2.6989
10732TIP3    H253688   5.560   4.286   0.470 -2.5962  1.1870 -2.5534
10733TIP3   OH253689   5.821   4.258   1.792  0.0524  0.5547  0.2450
10733TIP3    H153690   5.861   4.344   1.785  2.4931 -0.5691 -0.9355
10733TIP3    H253691   5.764   4.251   1.715 -0.6196  1.2791  0.6569
10734TIP3   OH253692   3.121   6.463  11.601 -0.0210  0.3247  0.0279
10734TIP3    H153693   3.026   6.449  11.607  0.2231 -1.8475 -0.3421
10734TIP3    H253694   3.130   6.557  11.585 -2.0316  0.8501  1.4801
10735TIP3   OH253695   2.142   1.730   0.968  0.5690 -0.3190  0.0558
10735TIP3    H153696   2.067   1.671   0.960  0.1507 -0.0475  1.5783
10735TIP3    H253697   2.105   1.818   0.963  0.8592 -0.1841  0.2258
10736TIP3   OH253698   5.272   0.738  15.322 -0.1248  0.0127 -0.2372
10736TIP3    H153699   5.206   0.800  15.290 -2.0255 -0.9344  1.6101
10736TIP3    H253700   5.314   0.783  15.396  0.6423  0.2293 -0.7887
10737TIP3   OH253701   4.170   6.498  13.747  0.3293 -0.2074 -0.4375
10737TIP3    H153702   4.142   6.432  13.811 -0.0933  0.1535 -0.2425
10737TIP3    H253703   4.119   6.478  13.668  0.4780 -0.3455 -0.4974
10738TIP3   OH253704   6.690   4.185   6.738  0.0914  0.5745  0.3229
10738TIP3    H153705   6.757   4.220   6.796  0.0495 -0.4768  1.0368
10738TIP3    H253706   6.608   4.200   6.785 -0.0896  1.0207 -0.1283
10739TIP3   OH253707   1.638   6.068   0.899 -0.1799  0.0855  0.2297
10739TIP3    H153708   1.659   6.008   0.971 -3.2066 -1.0980  0.2650
10739TIP3    H253709   1.693   6.040   0.827  0.6166 -0.7703  1.1414
10740TIP3   OH253710   6.069   3.273  12.559 -0.6605 -0.1743  0.2256
10740TIP3    H153711   5.986   3.305  12.522 -1.4259 -1.7700  0.4880
10740TIP3    H253712   6.084   3.330  12.635 -0.3555  1.5232 -1.0382
10741TIP3   OH253713   4.511   0.063  14.299 -0.2901  0.0400 -0.5287
10741TIP3    H153714   4.512   0.158  14.293  0.8404  0.1016  0.3467
10741TIP3    H253715   4.495   0.033  14.209  1.1926  1.0307 -1.1506
10742TIP3   OH253716   0.588   0.474   3.898 -0.2670  0.2547  0.3119
10742TIP3    H153717   0.524   0.450   3.965 -0.0285  0.7988  0.7429
10742TIP3    H253718   0.544   0.539   3.844 -0.0522  0.7036  0.6690
10743TIP3   OH253719   4.578   5.991  15.543  0.2565  0.4149  0.4498
10743TIP3    H153720   4.492   5.956  15.568  0.9631 -0.9767  1.0087
10743TIP3    H253721   4.558   6.062  15.482 -1.2677 -0.3620  0.0052
10744TIP3   OH253722   2.876   0.815   6.586 -0.2100 -0.6885  0.1893
10744TIP3    H153723   2.791   0.858   6.588 -0.4531 -1.1739  1.6377
10744TIP3    H253724   2.930   0.865   6.648  0.7446 -0.0752 -1.0785
10745TIP3   OH253725   2.087   2.643   6.683  0.3557  0.9055  1.1749
10745TIP3    H153726   2.157   2.578   6.693  0.3829  1.0867  2.1771
10745TIP3    H253727   2.075   2.680   6.770 -1.4206  0.4415  1.1745
10746TIP3   OH253728   4.419   4.563  12.006 -0.1715  0.5270  0.0455
10746TIP3    H153729   4.458   4.631  11.951 -1.7406  0.2778 -1.4542
10746TIP3    H253730   4.348   4.607  12.052  0.5592  0.5169  1.2208
10747TIP3   OH253731   5.911   6.204   0.598  0.0802 -0.3558  0.4656
10747TIP3    H153732   5.884   6.131   0.655 -2.9650  0.4193  0.2035
10747TIP3    H253733   5.869   6.281   0.636 -1.8948  0.2515 -2.5889
10748TIP3   OH253734   2.502   5.354   2.557 -0.0987  0.3004  0.3221
10748TIP3    H153735   2.499   5.272   2.508  0.9776  0.1130  0.5324
10748TIP3    H253736   2.427   5.350   2.616 -1.2998  0.4417 -1.1460
10749TIP3   OH253737   4.886   5.617  16.336 -0.0475 -0.0878 -0.4240
10749TIP3    H153738   4.874   5.523  16.346 -1.3093  0.0548 -0.4471
10749TIP3    H253739   4.812   5.645  16.282  0.4387  0.8837 -0.6132
10750TIP3   OH253740   1.505   2.744   2.524  0.6442 -0.7218  0.3578
10750TIP3    H153741   1.599   2.730   2.511  0.3077 -1.4521 -1.8464
10750TIP3    H253742   1.499   2.815   2.588  2.7207  0.4037 -0.5949
10751TIP3   OH253743   0.968   0.284   2.104  0.3732  0.4229 -0.3601
10751TIP3    H153744   0.928   0.332   2.031  1.3412  0.8520 -0.6220
10751TIP3    H253745   0.950   0.192   2.084  1.1774  0.4938 -1.4873
10752TIP3   OH253746   6.082   6.250   3.319  0.2808 -0.1844  0.6823
10752TIP3    H153747   6.168   6.232   3.280  0.5961  2.0476  0.2258
10752TIP3    H253748   6.030   6.285   3.247 -0.4230  0.2274  1.3846
10753TIP3   OH253749   3.274   0.786   0.454  0.3093  0.0792  0.6471
10753TIP3    H153750   3.340   0.848   0.424 -0.2759  1.0053  1.2298
10753TIP3    H253751   3.194   0.812   0.409  0.3544 -1.1646 -0.2127
10754TIP3   OH253752   0.482   5.367   3.392  0.8395  0.5292  0.1706
10754TIP3    H153753   0.503   5.318   3.312  1.7727  0.6677  0.3195
10754TIP3    H253754   0.566   5.378   3.436  0.3917  0.8145  0.9736
10755TIP3   OH253755   6.343   5.659   6.075 -0.1775  0.4213  0.3085
10755TIP3    H153756   6.380   5.745   6.053 -1.8064  1.4088  1.2307
10755TIP3    H253757   6.392   5.597   6.020  0.1983  2.0532 -1.3007
10756TIP3   OH253758   5.956   6.490   4.004  0.1722 -0.3259 -0.1640
10756TIP3    H153759   5.982   6.468   3.915 -0.8085 -0.7581 -0.3607
10756TIP3    H253760   5.914   6.411   4.037  2.0748 -0.7729  1.3158
10757TIP3   OH253761   4.758   0.380  16.758 -0.0911 -0.0837 -0.3597
10757TIP3    H153762   4.695   0.345  16.695 -1.6001  2.4905 -0.4089
10757TIP3    H253763   4.840   0.336  16.737 -1.1072 -1.0636 -2.5393
10758TIP3   OH253764   2.042   4.598   0.364 -0.0756 -0.3108  1.4704
10758TIP3    H153765   1.961   4.577   0.410 -2.1995  1.7449 -1.0025
10758TIP3    H253766   2.072   4.515   0.329 -1.9548 -0.9457  1.2413
10759TIP3   OH253767   3.839   5.333  13.596  0.2203  0.1824 -1.3596
10759TIP3    H153768   3.814   5.242  13.582  0.0168 -0.4629  2.2567
10759TIP3    H253769   3.771   5.369  13.653  2.4728  1.2115  0.9079
10760TIP3   OH253770   2.726   5.013  16.472 -0.2533 -0.0022 -0.0823
10760TIP3    H153771   2.812   5.052  16.454 -0.1780 -0.5065 -0.8459
10760TIP3    H253772   2.736   4.974  16.559 -0.1581  1.1507  0.4531
10761TIP3   OH253773   5.430   6.560   4.117 -0.3794 -0.2428  0.4231
10761TIP3    H153774   5.393   6.551   4.029  2.2603 -3.6839 -0.5605
10761TIP3    H253775   5.468   6.648   4.118 -1.9314  0.5072 -1.2254
10762TIP3   OH253776   1.859   4.750  14.403  0.6866 -0.4244  0.4369
10762TIP3    H153777   1.880   4.843  14.405 -0.3895 -0.1638  0.1364
10762TIP3    H253778   1.929   4.711  14.351  0.0261  0.5305 -1.2291
10763TIP3   OH253779   0.134   5.840  15.270 -0.2095 -0.1184  0.4513
10763TIP3    H153780   0.064   5.792  15.225 -0.3237 -0.8795  1.4140
10763TIP3    H253781   0.093   5.875  15.348  0.1141  0.7645  0.2320
10764TIP3   OH253782   1.602   2.157  11.939 -0.5392  0.0301  0.2099
10764TIP3    H153783   1.511   2.184  11.948 -1.1065 -1.7614  0.3113
10764TIP3    H253784   1.601   2.062  11.956  1.2169 -0.1773 -0.5639
10765TIP3   OH253785   0.016   1.211  16.579  0.3123 -0.1495 -0.2862
10765TIP3    H153786   0.027   1.218  16.674  1.3146 -0.0266 -0.4018
10765TIP3    H253787   0.103   1.228  16.543 -0.2326  0.7153 -1.2782
10766TIP3   OH253788   4.836   4.440  14.736  0.9006  0.6083 -0.3588
10766TIP3    H153789   4.877   4.426  14.821 -0.3084 -3.3210 -0.2157
10766TIP3    H253790   4.908   4.432  14.673  1.4251  1.0479  0.1765
10767TIP3   OH253791   5.172   0.257   5.584  0.5382 -0.3720 -0.7199
10767TIP3    H153792   5.172   0.310   5.505 -0.2289  0.4461 -0.1835
10767TIP3    H253793   5.121   0.307   5.648  0.4756 -1.3755  0.0564
10768TIP3   OH253794   1.318   0.977   1.082  0.3703 -0.1286 -0.0581
10768TIP3    H153795   1.317   0.896   1.031 -2.6352  0.4419 -1.1505
10768TIP3    H253796   1.306   0.948   1.173 -2.0755 -0.9963 -0.5563
10769TIP3   OH253797   6.712   2.000  13.961 -0.2075  0.1459  0.2254
10769TIP3    H153798   6.789   1.993  14.017  1.7609  1.3397 -2.1289
10769TIP3    H253799   6.726   2.079  13.909 -3.4288  0.8534  0.1849
10770TIP3   OH253800   4.818   5.084   4.153  0.0486 -0.0516  0.3700
10770TIP3    H153801   4.851   5.168   4.186 -1.4666  0.0979  1.6517
10770TIP3    H253802   4.848   5.020   4.218 -0.1937 -0.2502  0.2840
10771TIP3   OH253803   0.432   4.594  16.723 -0.2222 -0.2220  0.0868
10771TIP3    H153804   0.343   4.624  16.742 -0.0752 -0.1695  0.7020
10771TIP3    H253805   0.434   4.586  16.628 -2.0401 -3.7629  0.1985
10772TIP3   OH253806   0.027   4.120   0.998  0.1798 -0.4339 -0.0901
10772TIP3    H153807   0.086   4.181   1.042  0.3104 -1.1480  0.7529
10772TIP3    H253808   0.083   4.067   0.942 -0.0156  0.6288 -1.3285
10773TIP3   OH253809   2.767   5.931   1.628  0.4595 -0.1274  0.4673
10773TIP3    H153810   2.758   5.852   1.683  0.5280 -0.6507 -0.2546
10773TIP3    H253811   2.805   5.996   1.686  0.2666 -0.5827  1.1229
10774TIP3   OH253812   2.736   5.600  13.890  0.3217 -0.2022 -0.6495
10774TIP3    H153813   2.710   5.688  13.865 -0.3122 -0.5390 -1.2288
10774TIP3    H253814   2.668   5.543  13.852  0.0231 -0.8462  0.7731
10775TIP3   OH253815   2.395   5.664  15.539 -0.1234 -0.2895  0.6474
10775TIP3    H153816   2.304   5.693  15.535 -0.3753 -0.9404  1.4790
10775TIP3    H253817   2.442   5.737  15.579 -0.2473  0.1181  0.0533
10776TIP3   OH253818   3.465   3.608   4.818 -0.3113  0.2769  0.0398
10776TIP3    H153819   3.441   3.693   4.783 -0.5137 -0.8543 -2.8360
10776TIP3    H253820   3.411   3.545   4.770  1.1910 -1.6002  0.6422
10777TIP3   OH253821   4.243   3.610   5.115  0.2689  0.1708  0.0402
10777TIP3    H153822   4.169   3.586   5.060 -1.1605  0.5383  1.7065
10777TIP3    H253823   4.205   3.662   5.186  2.0606 -0.0304  1.2238
10778TIP3   OH253824   4.184   6.727   5.064 -0.0065  0.0264 -0.4425
10778TIP3    H153825   4.237   6.666   5.115 -0.9855 -0.2684  0.2539
10778TIP3    H253826   4.135   6.777   5.129 -2.3523 -1.3181 -1.0248
10779TIP3   OH253827   1.914   5.634   0.920 -0.2949 -0.2004  0.5959
10779TIP3    H153828   1.888   5.596   1.004  0.8860  2.0456  2.1123
10779TIP3    H253829   1.996   5.589   0.897 -0.2883 -0.3937  0.9990
10780TIP3   OH253830   3.418   2.916   4.284  0.9678 -0.4562  1.0104
10780TIP3    H153831   3.359   2.870   4.225 -0.4849  0.1516  1.9357
10780TIP3    H253832   3.432   2.855   4.356  1.1871 -0.4529  0.9737
10781TIP3   OH253833   2.967   3.469   4.186 -0.0275  0.2806 -0.2636
10781TIP3    H153834   2.943   3.381   4.217  0.9480  0.2467  0.4801
10781TIP3    H253835   3.059   3.461   4.162 -0.4420  0.6364 -2.0581
10782TIP3   OH253836   0.425   1.399   3.617 -0.0338 -0.9775  0.2591
10782TIP3    H153837   0.420   1.477   3.562  1.6294  0.0620  1.4763
10782TIP3    H253838   0.369   1.335   3.572 -0.5921  0.5349 -1.3599
10783TIP3   OH253839   5.993   0.700   1.057 -0.3445  0.3127 -0.3344
10783TIP3    H153840   5.918   0.678   1.113  0.1063 -2.4273 -0.6785
10783TIP3    H253841   6.007   0.621   1.004  0.4838  2.0939 -2.9341
10784TIP3   OH253842   0.202   1.257   1.151  0.1965 -0.6200 -0.4133
10784TIP3    H153843   0.133   1.207   1.107 -2.4164  0.5099  2.0387
10784TIP3    H253844   0.181   1.348   1.134 -0.4134 -0.1695  2.2382
10785TIP3   OH253845   0.430   0.762   6.460  0.0613 -0.5517 -0.2086
10785TIP3    H153846   0.394   0.673   6.468  1.3780 -1.1377 -0.5794
10785TIP3    H253847   0.485   0.771   6.538 -0.7598  0.2950  0.2937
10786TIP3   OH253848   2.097   0.165   0.425 -0.4431  0.1701  0.1724
10786TIP3    H153849   2.084   0.148   0.519  1.5928  0.0304  0.4744
10786TIP3    H253850   2.022   0.219   0.400 -0.7271  0.7073  2.0236
10787TIP3   OH253851   2.226   1.449  11.704 -0.1617 -0.5786  0.1986
10787TIP3    H153852   2.277   1.370  11.724  0.0221 -0.0835  1.8133
10787TIP3    H253853   2.240   1.506  11.779 -1.5461  0.3667 -0.2279
10788TIP3   OH253854   0.905   3.019   0.903  0.2843 -0.1360 -0.3870
10788TIP3    H153855   0.832   3.059   0.855  1.7114  0.2241 -2.3802
10788TIP3    H253856   0.941   3.091   0.955  1.2009  0.5998 -1.9416
10789TIP3   OH253857   0.651   3.451  13.401 -0.0474  0.3784  1.1199
10789TIP3    H153858   0.720   3.441  13.466 -0.9537 -0.5198  1.9774
10789TIP3    H253859   0.575   3.408  13.440 -1.2216  1.7004  0.3867
10790TIP3   OH253860   0.595   4.442  12.142  0.1298  0.1616 -0.1356
10790TIP3    H153861   0.537   4.484  12.206 -0.9796  0.1768 -1.1112
10790TIP3    H253862   0.621   4.514  12.084 -0.1446 -0.1199 -0.6170
10791TIP3   OH253863   1.823   1.058   5.306  0.0006 -0.3927 -0.2824
10791TIP3    H153864   1.746   1.112   5.289 -0.6953 -0.9097  1.0556
10791TIP3    H253865   1.893   1.120   5.325 -0.8100  0.0962  1.3280
10792TIP3   OH253866   1.340   0.710  16.753 -0.1132 -0.5316 -0.2867
10792TIP3    H153867   1.252   0.744  16.769 -0.2851 -1.1134  0.0083
10792TIP3    H253868   1.327   0.619  16.727  0.3764 -0.5012 -0.6549
10793TIP3   OH253869   3.596   0.087  14.861  0.3973 -0.5021 -0.1192
10793TIP3    H153870   3.662   0.107  14.794  0.0202 -1.1558 -0.6969
10793TIP3    H253871   3.647   0.080  14.942  1.1908 -1.9253 -0.7084
10794TIP3   OH253872   1.819   0.025   4.990  1.0390  0.2432  0.3851
10794TIP3    H153873   1.729   0.045   4.966  0.6937 -0.7279  0.8525
10794TIP3    H253874   1.818   0.018   5.085  1.5128 -0.2622  0.3562
10795TIP3   OH253875   0.555   1.125   1.804  0.8349  0.2602 -0.0700
10795TIP3    H153876   0.589   1.049   1.758  0.0077 -0.3386  0.2857
10795TIP3    H253877   0.568   1.105   1.897 -0.5379 -0.0275  0.0780
10796TIP3   OH253878   3.477   1.246   3.679 -0.5052 -0.0269 -0.1202
10796TIP3    H153879   3.526   1.285   3.607 -1.8485  0.8793 -0.5777
10796TIP3    H253880   3.397   1.213   3.639 -1.1821  0.3062  0.9247
10797TIP3   OH253881   6.423   4.437  13.273  0.4258 -0.1086  0.4733
10797TIP3    H153882   6.389   4.402  13.190  2.0202  2.1462 -1.2706
10797TIP3    H253883   6.416   4.532  13.263  0.6220  0.2410  3.0050
10798TIP3   OH253884   2.582   3.124   4.551  0.0499  0.0068 -0.0240
10798TIP3    H153885   2.545   3.212   4.558 -0.9324 -0.3064 -1.0541
10798TIP3    H253886   2.636   3.115   4.630  2.0712  2.3799 -1.0114
10799TIP3   OH253887   0.415   0.988   2.994 -0.3788 -0.5902 -0.1681
10799TIP3    H153888   0.366   0.945   2.924 -1.2325 -0.5239  0.3792
10799TIP3    H253889   0.396   0.936   3.072 -0.3767  0.0173  0.2402
10800TIP3   OH253890   2.954   6.111  11.107 -0.3373  0.4778 -0.4146
10800TIP3    H153891   3.001   6.114  11.024  0.7834  0.8877  0.2084
10800TIP3    H253892   2.983   6.190  11.153  0.1792 -0.4542  0.9369
10801TIP3   OH253893   4.182   0.315  13.968  0.2867 -0.1678 -0.3236
10801TIP3    H153894   4.165   0.221  13.968 -2.6802  0.1957  2.1746
10801TIP3    H253895   4.110   0.352  13.916 -0.0764  0.8205  0.8401
10802TIP3   OH253896   1.460   1.843   0.128  0.1863  0.3186  0.1768
10802TIP3    H153897   1.503   1.874   0.208 -0.0566  1.4801 -0.1230
10802TIP3    H253898   1.398   1.913   0.106 -0.9712 -0.7675 -0.0791
10803TIP3   OH253899   3.462   5.185   5.011 -0.4320 -0.4415 -0.5097
10803TIP3    H153900   3.478   5.187   5.106 -1.5794 -0.9291 -0.2933
10803TIP3    H253901   3.436   5.274   4.989  1.2331  0.0412 -0.6393
10804TIP3   OH253902   6.647   3.797   4.104 -0.2978 -0.2158  0.4156
10804TIP3    H153903   6.676   3.775   4.015  0.7219 -0.2342  0.7369
10804TIP3    H253904   6.728   3.798   4.155 -0.6385  1.6637  0.9725
10805TIP3   OH253905   5.730   2.855   0.372 -0.4749  0.1874  0.2480
10805TIP3    H153906   5.758   2.774   0.330  1.9858  1.3446 -0.5010
10805TIP3    H253907   5.649   2.879   0.327 -0.0639 -0.7170 -1.0154
10806TIP3   OH253908   1.474   0.070   0.671  0.4061 -0.0531  0.2367
10806TIP3    H153909   1.488   0.157   0.707  1.9893 -0.7670  1.4987
10806TIP3    H253910   1.530   0.067   0.593  0.4514  0.0156  0.2661
10807TIP3   OH253911   0.830   1.365  11.055  0.4250 -0.0168 -0.0017
10807TIP3    H153912   0.806   1.416  11.132 -0.2747 -2.6259  1.6397
10807TIP3    H253913   0.750   1.361  11.003  0.1421 -0.3982  0.4562
10808TIP3   OH253914   5.042   3.284  12.112 -0.4369 -0.0437 -0.1736
10808TIP3    H153915   5.080   3.371  12.096 -0.0582 -0.1450  0.1514
10808TIP3    H253916   5.060   3.267  12.204 -0.2737 -0.5848 -0.3032
10809TIP3   OH253917   3.183   0.155  13.086  0.2992  0.1198 -0.2168
10809TIP3    H153918   3.125   0.181  13.015  1.7135  0.8833 -1.1441
10809TIP3    H253919   3.175   0.060  13.091  1.4986 -0.1710 -2.6343
10810TIP3   OH253920   2.685   0.090   5.531 -0.1868  0.2790  0.4127
10810TIP3    H153921   2.665   0.003   5.566  1.7937 -1.4763 -2.3840
10810TIP3    H253922   2.780   0.090   5.520 -0.3407  1.9719 -1.5636
10811TIP3   OH253923   3.012   1.312   3.044 -0.3019 -0.3996 -0.1116
10811TIP3    H153924   3.047   1.295   3.132 -0.8863 -0.3124  0.1468
10811TIP3    H253925   3.021   1.229   2.998  2.1930  0.1423 -0.7727
10812TIP3   OH253926   6.668   1.320   4.191 -0.2500 -0.5385  0.1787
10812TIP3    H153927   6.631   1.235   4.167  0.1771 -0.7235  0.1564
10812TIP3    H253928   6.710   1.304   4.275  0.9524 -0.6905 -0.4215
10813TIP3   OH253929   5.679   4.697   3.051  0.6319  0.3263  0.4414
10813TIP3    H153930   5.654   4.606   3.068 -2.5182  0.9563 -0.2165
10813TIP3    H253931   5.755   4.691   2.994  0.0137 -1.9330 -0.2462
10814TIP3   OH253932   6.231   1.470   4.773 -0.0487  0.3597  0.3338
10814TIP3    H153933   6.289   1.540   4.745  0.2179 -0.5104 -1.3852
10814TIP3    H253934   6.275   1.389   4.747 -1.2366 -0.3940  0.5437
10815TIP3   OH253935   3.020   2.648  17.657  0.2033 -0.7303  0.1358
10815TIP3    H153936   2.961   2.722  17.675  0.1352  0.0095 -2.6473
10815TIP3    H253937   2.966   2.571  17.670 -0.5458 -0.1819  0.3690
10816TIP3   OH253938   4.420   2.282   0.279  0.3871 -0.2382 -0.1166
10816TIP3    H153939   4.421   2.323   0.365  2.0146 -0.9074  0.2186
10816TIP3    H253940   4.455   2.194   0.294 -2.0847 -1.4703 -0.9698
10817TIP3   OH253941   3.682   0.127  14.465  0.5610  0.9448  0.2370
10817TIP3    H153942   3.697   0.047  14.414  1.1758  0.7531  0.7093
10817TIP3    H253943   3.739   0.192  14.425  0.1314  1.1272 -0.0875
10818TIP3   OH253944   1.821   0.888  16.038 -0.5876 -0.2413  0.6820
10818TIP3    H153945   1.893   0.862  15.981 -1.6054  1.2853 -1.4565
10818TIP3    H253946   1.859   0.956  16.093 -0.6279  1.6364 -1.4445
10819TIP3   OH253947   3.476   4.846   4.626  0.5917  0.3636 -0.3517
10819TIP3    H153948   3.519   4.884   4.702  0.9743  0.8403 -0.7953
10819TIP3    H253949   3.419   4.777   4.661 -0.2260  1.4429  0.4807
10820TIP3   OH253950   2.493   0.790  14.019  0.2667 -0.0740 -0.3964
10820TIP3    H153951   2.398   0.797  14.031  0.1839 -3.5115  3.8445
10820TIP3    H253952   2.506   0.701  13.985  1.9839  0.4428 -1.1959
10821TIP3   OH253953   0.634   1.295  16.846  0.7274 -0.2784 -0.0329
10821TIP3    H153954   0.684   1.316  16.768  1.2407 -0.4154  0.2522
10821TIP3    H253955   0.693   1.316  16.919 -0.6879  2.4205  0.4449
10822TIP3   OH253956   5.208   1.689   2.059  0.7650  0.0453  0.0419
10822TIP3    H153957   5.186   1.756   1.994  1.7312  0.0213 -0.3177
10822TIP3    H253958   5.162   1.717   2.138 -0.7635 -0.1465 -0.7439
10823TIP3   OH253959   5.173   1.017   2.593 -0.0146  0.3196 -0.0603
10823TIP3    H153960   5.254   1.017   2.644 -0.9485  0.5927  1.4697
10823TIP3    H253961   5.177   0.937   2.541 -0.5592 -1.8552  3.0234
10824TIP3   OH253962   3.856   1.867  12.537 -0.6915 -0.3003 -0.2563
10824TIP3    H153963   3.930   1.856  12.478  0.7049 -2.3507  1.7062
10824TIP3    H253964   3.875   1.948  12.585 -0.6108  0.0850 -0.9366
10825TIP3   OH253965   6.093   4.983  14.354  0.0935 -0.1756 -0.4811
10825TIP3    H153966   6.030   5.055  14.351 -0.0751 -0.3389 -0.7743
10825TIP3    H253967   6.048   4.909  14.315  0.1923 -0.5032  0.0187
10826TIP3   OH253968   0.743   4.989  12.504  0.0320  0.4436  0.0686
10826TIP3    H153969   0.721   4.951  12.418 -1.1072 -0.4981  0.7506
10826TIP3    H253970   0.758   4.914  12.560 -0.4417  1.0376  1.0093
10827TIP3   OH253971   2.976   5.799   6.064  0.3272  0.0809  0.1949
10827TIP3    H153972   2.892   5.844   6.078  0.2738 -0.5002  1.9466
10827TIP3    H253973   3.029   5.825   6.139  0.5241 -2.2129  0.9285
10828TIP3   OH253974   4.178   0.897  14.680  0.3478 -0.1889 -0.1745
10828TIP3    H153975   4.258   0.845  14.694 -0.6937 -1.9022 -0.3131
10828TIP3    H253976   4.209   0.974  14.632  2.0553 -0.3104  0.6257
10829TIP3   OH253977   2.444   6.495  14.466  0.1472 -0.7706  0.2731
10829TIP3    H153978   2.482   6.443  14.538  0.9741  1.3242  1.4465
10829TIP3    H253979   2.492   6.578  14.470 -1.6921  0.4028 -0.9727
10830TIP3   OH253980   5.751   1.750   1.405  0.2856  0.4453 -0.9126
10830TIP3    H153981   5.774   1.744   1.312 -0.2526  0.9528 -1.0861
10830TIP3    H253982   5.834   1.740   1.451  0.5648  0.2488 -1.4535
10831TIP3   OH253983   1.597   0.893  12.179 -0.0503  0.4621 -0.1058
10831TIP3    H153984   1.683   0.857  12.158 -0.2057  0.8338 -1.4575
10831TIP3    H253985   1.544   0.876  12.102 -1.7841 -1.4738  1.4128
10832TIP3   OH253986   1.563   5.275   2.806 -0.0163 -0.4842 -0.5566
10832TIP3    H153987   1.593   5.195   2.762 -2.0115 -2.5251  1.5135
10832TIP3    H253988   1.487   5.303   2.756  0.5836  0.0829 -1.1817
10833TIP3   OH253989   4.689   5.327  17.424 -0.0561  0.5469  0.1320
10833TIP3    H153990   4.629   5.255  17.404  0.1150  0.3109  0.4654
10833TIP3    H253991   4.755   5.322  17.354 -1.0168  1.4939 -0.8876
10834TIP3   OH253992   0.674   3.883   1.907 -0.5849 -0.0226  0.1476
10834TIP3    H153993   0.737   3.824   1.949  0.0905  0.1543 -0.5998
10834TIP3    H253994   0.726   3.959   1.881 -0.7373 -0.6116 -2.0380
10835TIP3   OH253995   0.125   2.084  15.754  0.1196  1.0545 -0.0101
10835TIP3    H153996   0.084   1.998  15.745 -0.7416  1.4726 -0.1693
10835TIP3    H253997   0.158   2.104  15.667  0.1042  0.9971 -0.0288
10836TIP3   OH253998   2.324   3.351  15.932 -0.5736 -0.4966  0.0216
10836TIP3    H153999   2.392   3.325  15.870  0.2673  0.0705  0.6747
10836TIP3    H254000   2.366   3.419  15.986 -2.2398  1.2315 -0.7441
10837TIP3   OH254001   4.699   6.701  15.793 -0.1641  0.0066 -0.2783
10837TIP3    H154002   4.786   6.727  15.761  0.0161  0.1842  0.3534
10837TIP3    H254003   4.692   6.740  15.880 -0.0514 -1.7219  0.5314
10838TIP3   OH254004   1.153   5.037  12.359 -0.2195 -0.3557 -0.2987
10838TIP3    H154005   1.192   5.079  12.437  1.4576  0.6675 -1.6105
10838TIP3    H254006   1.228   5.003  12.311 -0.8251  1.9593 -3.1177
10839TIP3   OH254007   4.231   5.864  11.769  0.0191 -0.1392 -0.2070
10839TIP3    H154008   4.139   5.889  11.767  0.2786  1.1364  1.5825
10839TIP3    H254009   4.243   5.809  11.692 -1.8200  1.1091 -1.4560
10840TIP3   OH254010   0.520   0.932   2.633 -0.0377 -0.2772  0.2459
10840TIP3    H154011   0.449   0.969   2.685  0.3241 -0.3651  0.8141
10840TIP3    H254012   0.565   1.007   2.596 -1.0239 -0.2412 -0.9533
10841TIP3   OH254013   6.050   0.541  14.224  0.4175  0.1392  0.0318
10841TIP3    H154014   6.083   0.606  14.163  1.7726 -0.6941 -0.1758
10841TIP3    H254015   6.019   0.591  14.299  1.1441  1.0290 -0.2480
10842TIP3   OH254016   2.898   1.572   3.843  0.1162  0.5944 -0.3604
10842TIP3    H154017   2.900   1.492   3.791 -1.7764  1.6418 -2.1572
10842TIP3    H254018   2.817   1.567   3.893  0.5097  0.9368  0.3374
10843TIP3   OH254019   5.466   3.213  15.677 -0.0422 -0.4171  0.7935
10843TIP3    H154020   5.532   3.151  15.645  0.2968 -0.5071  1.6177
10843TIP3    H254021   5.450   3.271  15.603  0.3151 -0.9318  0.2966
10844TIP3   OH254022   4.334   2.083  11.946 -0.5985  0.0467 -0.4063
10844TIP3    H154023   4.277   2.006  11.954  0.1637 -0.5801 -0.8764
10844TIP3    H254024   4.276   2.157  11.962 -1.6252 -0.5555 -1.2183
10845TIP3   OH254025   1.374   3.756  14.580 -0.0712 -0.7347  0.0073
10845TIP3    H154026   1.428   3.761  14.659  2.1051  0.2794 -1.4494
10845TIP3    H254027   1.423   3.697  14.522 -0.7832 -0.1719 -1.1782
10846TIP3   OH254028   2.013   5.006   4.719  0.3996  0.7685  0.3272
10846TIP3    H154029   2.079   5.028   4.654 -0.4103 -1.4227 -1.3521
10846TIP3    H254030   1.938   4.974   4.668 -0.1707 -1.3398  2.2996
10847TIP3   OH254031   1.069   2.137   5.839 -0.2843  0.3674 -0.0605
10847TIP3    H154032   0.996   2.076   5.829  1.1196 -1.3709 -0.4144
10847TIP3    H254033   1.038   2.203   5.901 -2.2355 -0.1254 -0.4497
10848TIP3   OH254034   2.268   4.410  15.757 -0.1110 -0.4969  0.1669
10848TIP3    H154035   2.189   4.383  15.805 -0.6101  1.7550  0.7244
10848TIP3    H254036   2.321   4.456  15.822  0.7302 -0.2314 -0.6876
10849TIP3   OH254037   4.822   4.187   2.104 -0.4378 -0.2375  0.0365
10849TIP3    H154038   4.879   4.241   2.049  1.5209 -2.4153 -0.2680
10849TIP3    H254039   4.743   4.239   2.116  1.5566  3.0017  0.4272
10850TIP3   OH254040   1.281   0.249  13.428 -0.4441  0.1100 -0.1988
10850TIP3    H154041   1.212   0.302  13.468  1.0136  1.2923  0.8527
10850TIP3    H254042   1.343   0.232  13.499  1.0938  0.3574 -1.4254
10851TIP3   OH254043   3.015   0.499  17.295 -0.3255  0.6610 -0.2291
10851TIP3    H154044   2.940   0.440  17.307 -1.5603  2.0018 -0.9562
10851TIP3    H254045   3.034   0.533  17.382  1.5497 -2.0331  0.5386
10852TIP3   OH254046   3.170   2.638   1.124 -0.5281 -0.2226  0.1278
10852TIP3    H154047   3.194   2.592   1.205 -2.1132 -0.5901  0.4243
10852TIP3    H254048   3.075   2.633   1.121 -0.5488  0.4809 -1.3736
10853TIP3   OH254049   4.394   1.356   1.783 -0.1843  0.4013 -0.1543
10853TIP3    H154050   4.326   1.418   1.757 -2.0362 -1.5799 -0.2463
10853TIP3    H254051   4.423   1.388   1.869 -2.6279  0.2671  0.8021
10854TIP3   OH254052   2.385   4.378  11.292 -0.1572  0.1264  0.8202
10854TIP3    H154053   2.475   4.393  11.319  0.3481  0.3079 -0.8505
10854TIP3    H254054   2.366   4.451  11.233 -0.3006 -1.5761 -1.3345
10855TIP3   OH254055   2.744   2.895  15.531 -0.2010 -0.3069  0.3601
10855TIP3    H154056   2.683   2.855  15.470 -0.3185  0.0100  0.2697
10855TIP3    H254057   2.706   2.879  15.618 -0.8992  0.7012  0.2566
10856TIP3   OH254058   4.321   0.538   3.604 -0.1501  0.0369 -0.2024
10856TIP3    H154059   4.269   0.613   3.578 -1.3204 -0.6257  0.1844
10856TIP3    H254060   4.312   0.534   3.699  0.4936 -0.1719 -0.1440
10857TIP3   OH254061   1.980   4.633  11.788  0.3108  0.5649 -0.0864
10857TIP3    H154062   1.956   4.725  11.784 -1.9701  0.0459  0.0502
10857TIP3    H254063   2.009   4.620  11.878 -1.8981  0.6421  0.6864
10858TIP3   OH254064   3.079   1.780  15.710  0.7343  0.2388  0.0732
10858TIP3    H154065   3.132   1.813  15.783  0.3356 -0.0657  0.5087
10858TIP3    H254066   2.989   1.804  15.732  0.3630 -1.4926  0.6451
10859TIP3   OH254067   2.937   2.129  13.198 -0.0334  0.3461 -0.1660
10859TIP3    H154068   2.853   2.083  13.196  0.3543 -0.3449 -1.1155
10859TIP3    H254069   2.983   2.093  13.273  0.2264 -0.7580 -0.8412
10860TIP3   OH254070   2.638   5.143   0.298  0.4831  0.2841 -0.1471
10860TIP3    H154071   2.654   5.159   0.391 -0.3442 -1.3672  0.3252
10860TIP3    H254072   2.711   5.087   0.270  0.4565  0.3520 -0.3514
10861TIP3   OH254073   4.262   0.782  14.373 -0.3252 -0.6826 -0.3914
10861TIP3    H154074   4.238   0.866  14.413  0.6993  1.1866 -3.3088
10861TIP3    H254075   4.358   0.778  14.382  0.4253  1.2262 -4.5521
10862TIP3   OH254076   2.539   3.077   3.638  0.1689  0.0200  0.3024
10862TIP3    H154077   2.454   3.069   3.595  0.2225 -0.0392  0.2076
10862TIP3    H254078   2.535   3.014   3.710  0.7359 -1.1707 -0.6774
10863TIP3   OH254079   5.999   6.526   4.876 -0.0685 -0.3549  0.8775
10863TIP3    H154080   6.080   6.568   4.902 -0.0720 -0.6456  1.3685
10863TIP3    H254081   5.930   6.575   4.921 -0.1658 -0.1527  0.5175
10864TIP3   OH254082   6.512   5.670   2.569  0.2164  0.0263  0.0236
10864TIP3    H154083   6.443   5.623   2.522  0.6201 -1.2098  0.6324
10864TIP3    H254084   6.573   5.698   2.500 -0.5629  0.5871 -0.4496
10865TIP3   OH254085   2.268   2.579  13.387 -0.0881 -0.1977 -0.1102
10865TIP3    H154086   2.184   2.601  13.428  0.1745  1.1902 -0.2714
10865TIP3    H254087   2.330   2.573  13.460 -0.1791 -0.5106 -0.0569
10866TIP3   OH254088   5.678   2.382  16.711 -0.2011  0.1183 -0.2943
10866TIP3    H154089   5.693   2.468  16.751  1.4944 -0.1128 -0.3530
10866TIP3    H254090   5.584   2.380  16.693 -0.6159  1.2024  1.4400
10867TIP3   OH254091   1.193   0.099  17.567  0.3835  0.9126 -0.0605
10867TIP3    H154092   1.151   0.133  17.488  1.8434  0.1127 -1.2343
10867TIP3    H254093   1.150   0.015  17.583 -0.3320  1.3536  0.3705
10868TIP3   OH254094   0.322   3.650   2.334 -0.2333 -0.0500 -0.4199
10868TIP3    H154095   0.293   3.564   2.306 -1.5031  0.1880  0.1163
10868TIP3    H254096   0.334   3.699   2.252  0.4577 -0.6952 -0.7254
10869TIP3   OH254097   4.344   0.402   2.304  0.0456  0.0280  0.0971
10869TIP3    H154098   4.282   0.427   2.373 -0.0539  2.1392 -0.6946
10869TIP3    H254099   4.429   0.400   2.348 -0.1958 -0.0451  0.5739
10870TIP3   OH254100   3.194   2.639   4.298 -0.0416  0.5728 -0.0261
10870TIP3    H154101   3.260   2.663   4.363  0.5861 -0.6174 -0.2041
10870TIP3    H254102   3.120   2.609   4.351  0.4817 -0.4301  0.1605
10871TIP3   OH254103   4.333   1.264   3.566 -0.3203 -0.7128 -0.0113
10871TIP3    H154104   4.294   1.343   3.529  1.8322 -0.4576 -1.9625
10871TIP3    H254105   4.354   1.287   3.656  0.9260  1.2424 -0.7486
10872TIP3   OH254106   4.008   5.330   5.735  0.2780  0.0127 -0.1093
10872TIP3    H154107   3.921   5.348   5.771  0.9634  0.6923  1.3008
10872TIP3    H254108   4.053   5.284   5.805  1.6821  1.4124 -0.0353
10873TIP3   OH254109   5.265   3.224  15.874 -0.4823  0.4158  0.5618
10873TIP3    H154110   5.316   3.240  15.795 -2.0878  2.8393 -0.0701
10873TIP3    H254111   5.205   3.154  15.849  0.4121 -0.3119  0.3590
10874TIP3   OH254112   1.646   3.797   1.376  0.2011  0.1484  0.3963
10874TIP3    H154113   1.561   3.791   1.332  0.7002 -0.5141 -0.5313
10874TIP3    H254114   1.691   3.869   1.332 -0.1171  0.9542  1.3498
10875TIP3   OH254115   1.681   1.869  14.662  0.0700 -0.1550  0.3857
10875TIP3    H154116   1.632   1.823  14.594  0.4594  0.9952 -0.7132
10875TIP3    H254117   1.629   1.858  14.741 -0.6786 -1.0548 -0.2139
10876TIP3   OH254118   3.675   0.215  13.410  0.1747 -0.0143 -0.1856
10876TIP3    H154119   3.598   0.253  13.369  0.5451  0.7806 -0.1564
10876TIP3    H254120   3.744   0.224  13.344  0.6519  0.8234  0.4185
10877TIP3   OH254121   0.170   3.979   2.438 -0.1412  0.5775  0.2060
10877TIP3    H154122   0.138   3.944   2.354 -0.4589 -0.1005  0.5945
10877TIP3    H254123   0.228   4.050   2.414  1.8478 -1.2350 -0.7283
10878TIP3   OH254124   5.668   1.400   2.022 -0.4008 -0.0759 -0.1090
10878TIP3    H154125   5.650   1.493   2.006  2.0552  1.3901  4.2097
10878TIP3    H254126   5.584   1.364   2.049 -1.4742  0.6944 -2.1800
10879TIP3   OH254127   5.758   3.288   4.752  0.0553 -0.0493  0.2842
10879TIP3    H154128   5.720   3.218   4.698 -0.9494  0.9090 -0.3102
10879TIP3    H254129   5.684   3.348   4.769  1.2265  1.7700 -0.6984
10880TIP3   OH254130   5.744   3.498  15.991  0.0077  0.1955  0.2815
10880TIP3    H154131   5.790   3.442  16.053 -1.4738 -0.4902  0.8096
10880TIP3    H254132   5.706   3.438  15.927  1.1906  0.8681 -1.1091
10881TIP3   OH254133   1.836   0.215   2.005  0.6360  0.0258 -0.0950
10881TIP3    H154134   1.915   0.171   2.035 -0.1297 -1.6430 -0.4226
10881TIP3    H254135   1.819   0.179   1.918 -2.3600 -2.3972  1.2703
10882TIP3   OH254136   2.056   4.057  12.938  0.2966 -0.0254  0.0703
10882TIP3    H154137   2.072   3.970  12.976  1.2489 -0.2954 -0.9017
10882TIP3    H254138   2.122   4.113  12.979  0.9741 -0.2021 -0.7469
10883TIP3   OH254139   0.296   0.732   3.872 -0.0329 -0.0412  0.9894
10883TIP3    H154140   0.210   0.758   3.906 -0.8410 -1.4628  0.1170
10883TIP3    H254141   0.343   0.701   3.949 -0.1170  1.1658  1.5523
10884TIP3   OH254142   3.567   6.439   5.679 -0.3381  0.1915  0.3974
10884TIP3    H154143   3.631   6.441   5.751  0.0966  0.8232  0.0027
10884TIP3    H254144   3.484   6.422   5.722  0.0522 -0.3422  0.9579
10885TIP3   OH254145   2.234   1.326  15.798  0.0289 -0.9283  0.5374
10885TIP3    H154146   2.220   1.379  15.876  0.6235 -1.0268  0.7116
10885TIP3    H254147   2.315   1.278  15.814 -0.0925 -1.3135  0.0614
10886TIP3   OH254148   3.440   2.032  14.049 -0.1999  0.0993  0.0603
10886TIP3    H154149   3.422   1.940  14.027  1.3598 -0.0895 -0.5815
10886TIP3    H254150   3.360   2.078  14.027  0.3720 -0.4289 -4.0486
10887TIP3   OH254151   3.451   1.707  14.035  0.0457  0.3551 -0.0309
10887TIP3    H154152   3.364   1.747  14.043 -1.1763 -1.8363 -1.5119
10887TIP3    H254153   3.479   1.728  13.946  1.1220  1.0972  0.4539
10888TIP3   OH254154   3.531   0.640  12.160  0.0780  0.1454 -0.2316
10888TIP3    H154155   3.593   0.569  12.174  0.4795  0.0844 -1.9919
10888TIP3    H254156   3.511   0.673  12.247  2.1334 -0.2262  0.4418
10889TIP3   OH254157   3.990   3.531  16.777 -0.1947 -0.2760 -0.2599
10889TIP3    H154158   3.973   3.555  16.686  1.4602  0.4555 -0.4092
10889TIP3    H254159   4.042   3.451  16.771 -1.0497 -0.8788  0.1036
10890TIP3   OH254160   2.843   0.967   0.593 -0.1182  0.4370  0.2295
10890TIP3    H154161   2.901   0.901   0.629  0.4850  1.1475  0.5911
10890TIP3    H254162   2.881   0.987   0.507 -0.9405 -0.4796 -0.3672
10891TIP3   OH254163   3.612   4.024   5.115  0.2930  0.1232  0.2432
10891TIP3    H154164   3.644   3.959   5.053 -0.3525 -1.2926  1.3529
10891TIP3    H254165   3.670   4.015   5.191 -1.1375 -0.7311  1.2809
10892TIP3   OH254166   4.064   1.306   5.290 -0.3532  0.4452  0.2129
10892TIP3    H154167   4.034   1.363   5.220  1.2439  1.4975  0.3228
10892TIP3    H254168   4.089   1.365   5.361  0.5867 -0.4160  0.6425
10893TIP3   OH254169   1.290   0.210   4.898 -0.3116  0.0403 -0.2729
10893TIP3    H154170   1.367   0.260   4.872  0.6037 -0.6091  1.0796
10893TIP3    H254171   1.304   0.123   4.861 -0.2777 -0.1463  0.1743
10894TIP3   OH254172   6.229   0.185   4.833  0.1128  0.6595  0.1570
10894TIP3    H154173   6.239   0.106   4.780  0.6093  0.9273 -0.1604
10894TIP3    H254174   6.314   0.229   4.826 -0.1090  1.1401  0.4539
10895TIP3   OH254175   0.742   6.436   0.446  0.1718 -0.5171  0.7242
10895TIP3    H154176   0.767   6.356   0.493  0.8422 -0.2562  0.8313
10895TIP3    H254177   0.801   6.438   0.371 -1.7806 -1.6297 -0.9277
10896TIP3   OH254178   1.166   3.252   0.204 -0.0026  0.3474  0.0295
10896TIP3    H154179   1.110   3.330   0.213 -0.7193  0.1909 -2.3371
10896TIP3    H254180   1.106   3.182   0.177  1.0092 -0.3520 -0.4844
10897TIP3   OH254181   5.339   2.749   4.547  0.0623 -0.0803 -0.7591
10897TIP3    H154182   5.356   2.792   4.631 -1.8734 -1.0360  0.1607
10897TIP3    H254183   5.375   2.810   4.482  0.1572  1.4484  0.6578
10898TIP3   OH254184   5.867   5.470  17.516 -0.2836  0.1794  0.1838
10898TIP3    H154185   5.834   5.517  17.439 -1.8826  0.1962  0.8315
10898TIP3    H254186   5.894   5.538  17.577 -0.0263  0.1922  0.0560
10899TIP3   OH254187   2.852   1.793   2.114 -0.1455 -0.4777  0.3292
10899TIP3    H154188   2.820   1.720   2.060  0.5558  0.5001 -1.5016
10899TIP3    H254189   2.889   1.855   2.051  1.7576  0.2347  2.0303
10900TIP3   OH254190   6.295   3.248   2.949  0.2040 -0.4941 -0.2992
10900TIP3    H154191   6.357   3.192   2.902 -1.4082 -2.3066 -0.4223
10900TIP3    H254192   6.244   3.290   2.880  0.0994 -0.4349 -0.1854
10901TIP3   OH254193   2.608   2.890   1.072 -0.1690 -0.0255 -0.2373
10901TIP3    H154194   2.536   2.889   1.135  1.2644  1.2978  1.5395
10901TIP3    H254195   2.626   2.797   1.054 -2.0868 -0.3781 -0.5239
10902TIP3   OH254196   0.017   5.139   0.737 -0.6829 -0.4028 -0.1403
10902TIP3    H154197  -0.046   5.210   0.726 -0.9200 -0.7239 -0.8957
10902TIP3    H254198   0.101   5.176   0.712 -0.8296 -0.4264 -0.6721
10903TIP3   OH254199   3.638   5.485  13.726  0.2138 -0.0915 -0.0504
10903TIP3    H154200   3.611   5.484  13.818  4.5228  0.3801  1.4822
10903TIP3    H254201   3.648   5.578  13.706  0.6699 -0.2289 -0.4785
10904TIP3   OH254202   3.589   5.092   3.442 -0.2174 -0.2827  0.5930
10904TIP3    H154203   3.508   5.134   3.414  0.8126  0.8539 -0.8564
10904TIP3    H254204   3.627   5.056   3.361  0.3109 -1.5569  1.3753
10905TIP3   OH254205   1.157   4.914   3.395  0.1258 -0.1164 -0.8175
10905TIP3    H154206   1.230   4.853   3.404  0.6329  0.4241 -1.1505
10905TIP3    H254207   1.079   4.860   3.404  0.5502 -0.5243  0.8105
10906TIP3   OH254208   5.102   2.482  17.099 -0.1278  0.4714  0.0757
10906TIP3    H154209   5.054   2.519  17.025  1.8919 -0.4053 -1.7851
10906TIP3    H254210   5.120   2.557  17.156  1.4165  1.9130 -2.1721
10907TIP3   OH254211   2.904   1.369   4.455  0.0654  0.1916 -0.0652
10907TIP3    H154212   2.875   1.311   4.525 -0.4863 -0.2262 -0.6301
10907TIP3    H254213   2.918   1.312   4.380  0.7878  0.6144 -0.2665
10908TIP3   OH254214   1.664   4.380   2.932 -0.2163 -0.3847 -0.3314
10908TIP3    H154215   1.712   4.386   3.014  0.3195  0.2589 -0.6823
10908TIP3    H254216   1.572   4.380   2.958 -0.0937  1.3338  0.1939
10909TIP3   OH254217   0.288   5.204   4.099  0.2489  0.2156 -0.5791
10909TIP3    H154218   0.365   5.195   4.043 -1.1883 -0.6837 -2.5053
10909TIP3    H254219   0.250   5.288   4.074  0.6820  0.7606  0.5217
10910TIP3   OH254220   0.699   3.558  16.119 -0.3309 -0.2380 -0.0959
10910TIP3    H154221   0.627   3.622  16.117  1.6631  2.2040  0.5384
10910TIP3    H254222   0.696   3.522  16.207 -2.1001 -1.9207 -0.7672
10911TIP3   OH254223   3.517   3.675  17.348 -0.0318  0.3842 -0.6407
10911TIP3    H154224   3.607   3.659  17.377 -0.4623  0.9482  1.1698
10911TIP3    H254225   3.467   3.603  17.386 -0.4415  0.4545 -1.0550
10912TIP3   OH254226   2.024   4.433   3.445  0.2262 -0.0323  0.0797
10912TIP3    H154227   1.945   4.390   3.478  1.2815 -1.3366  1.0094
10912TIP3    H254228   2.066   4.470   3.523  1.1562 -0.4183 -0.2305
10913TIP3   OH254229   6.022   0.989   4.588 -0.1204  0.7067 -0.0792
10913TIP3    H154230   6.035   0.915   4.648  2.0645 -0.6128 -2.0013
10913TIP3    H254231   6.020   1.066   4.645  2.7463 -0.3740  1.7080
10914TIP3   OH254232   5.451   4.054   7.142  0.1160  0.6760 -0.6598
10914TIP3    H154233   5.518   4.101   7.191  0.3244  0.2494 -0.5265
10914TIP3    H254234   5.418   4.117   7.078  0.9944  0.7427 -1.0567
10915TIP3   OH254235   0.981   2.292   5.147 -0.6862 -0.1246  0.0112
10915TIP3    H154236   0.965   2.369   5.201 -0.5010  0.8892 -1.3131
10915TIP3    H254237   1.065   2.258   5.178 -0.6832  0.3043  0.4880
10916TIP3   OH254238   6.448   3.210   4.813 -0.4687 -0.0587  0.2700
10916TIP3    H154239   6.379   3.259   4.769  0.4000  1.2657  0.3309
10916TIP3    H254240   6.427   3.215   4.906  0.5967  1.8602  0.4568
10917TIP3   OH254241   6.487   1.587  12.192  0.0345 -0.3453 -0.1899
10917TIP3    H154242   6.418   1.607  12.254  1.2465  1.1691  0.7375
10917TIP3    H254243   6.481   1.492  12.179 -2.0354 -0.2804  0.0270
10918TIP3   OH254244   5.599   3.170  14.893 -0.0856  0.1910  0.1584
10918TIP3    H154245   5.559   3.198  14.810  0.7155  0.3170 -0.1951
10918TIP3    H254246   5.535   3.110  14.931  0.2818 -1.2802 -1.4096
10919TIP3   OH254247   1.272   5.196  13.442  0.2578 -0.1424  0.3074
10919TIP3    H154248   1.223   5.173  13.521 -1.9086 -1.0538 -1.2141
10919TIP3    H254249   1.231   5.144  13.372 -0.2372  3.1277 -2.0741
10920TIP3   OH254250   1.262   5.455   3.247 -0.0502  0.0712  0.3027
10920TIP3    H154251   1.314   5.519   3.199 -1.0832  0.8877  0.2417
10920TIP3    H254252   1.193   5.429   3.186  0.6633 -1.5558  0.1142
10921TIP3   OH254253   1.614   4.169  16.454 -0.1732  0.8657 -0.1014
10921TIP3    H154254   1.624   4.076  16.475  0.0363  0.8113 -0.4452
10921TIP3    H254255   1.550   4.201  16.517 -1.0184  0.2549 -0.6398
10922TIP3   OH254256   2.658   0.140  12.167  0.4790  0.1532 -0.3754
10922TIP3    H154257   2.675   0.058  12.121  2.4987 -0.2718  0.9904
10922TIP3    H254258   2.701   0.207  12.114  2.7634 -0.3293  0.7136
10923TIP3   OH254259   4.729   2.432  15.094 -0.3640  0.0608 -0.0610
10923TIP3    H154260   4.793   2.472  15.153 -0.7848  0.8061 -0.0890
10923TIP3    H254261   4.726   2.490  15.019 -2.2849  1.0012  0.6709
10924TIP3   OH254262   3.343   5.500   2.973  0.1058  0.0255 -0.1938
10924TIP3    H154263   3.435   5.526   2.975 -0.1307  0.8843  0.6116
10924TIP3    H254264   3.308   5.529   3.058 -0.6197 -1.3880  0.0188
10925TIP3   OH254265   4.648   5.572   6.154  0.6341  0.4548 -0.0235
10925TIP3    H154266   4.707   5.643   6.178  0.8633  1.2387 -2.6803
10925TIP3    H254267   4.566   5.593   6.199  1.0283  1.7983  0.1140
10926TIP3   OH254268   3.639   0.759   5.418  0.1003 -0.3790 -0.2948
10926TIP3    H154269   3.582   0.811   5.475  1.6266 -0.7103  1.6476
10926TIP3    H254270   3.692   0.824   5.372  0.9240 -0.1549  0.9434
10927TIP3   OH254271   6.192   5.887   1.236  0.6521 -0.5794 -0.1301
10927TIP3    H154272   6.114   5.831   1.242 -0.3364  0.5123 -1.8175
10927TIP3    H254273   6.202   5.924   1.323  1.0855 -2.9918  0.9305
10928TIP3   OH254274   4.379   1.489  10.887 -0.2862  0.0791  0.4290
10928TIP3    H154275   4.303   1.541  10.860  1.2426  1.2511 -1.9851
10928TIP3    H254276   4.344   1.403  10.907 -2.3812  0.8859  0.4338
10929TIP3   OH254277   0.465   3.468   5.325  0.5159 -0.5833  0.0188
10929TIP3    H154278   0.384   3.469   5.375  0.4812  1.2041 -0.0219
10929TIP3    H254279   0.450   3.405   5.254 -0.0413 -1.8564  1.2254
10930TIP3   OH254280   2.475   6.572   5.470 -0.1509  0.6004 -0.6212
10930TIP3    H154281   2.512   6.600   5.386  0.7879  1.1721 -0.0450
10930TIP3    H254282   2.403   6.514   5.447  2.5910 -2.6519 -1.8643
10931TIP3   OH254283   2.693   4.131  12.289 -0.5988 -0.0526 -0.1383
10931TIP3    H154284   2.678   4.050  12.338 -0.1181  0.1948  0.4291
10931TIP3    H254285   2.613   4.144  12.239 -0.6846 -0.8758 -0.2264
10932TIP3   OH254286   4.967   3.271   3.903 -0.0811  0.2478  0.6036
10932TIP3    H154287   5.060   3.290   3.897 -0.5459  2.3083 -2.5922
10932TIP3    H254288   4.962   3.182   3.937  2.9776  0.2403  1.2977
10933TIP3   OH254289   3.925   0.094  11.711  0.4415  0.1603  1.2088
10933TIP3    H154290   3.909   0.123  11.622 -0.0285 -0.5482  1.0511
10933TIP3    H254291   3.994   0.028  11.703  0.3447  0.0393  1.3567
10934TIP3   OH254292   3.122   2.345   1.125 -0.3234  0.4065  0.0083
10934TIP3    H154293   3.129   2.263   1.076  0.5733 -0.4123  1.4218
10934TIP3    H254294   3.029   2.351   1.148 -0.3921 -0.2314 -0.0686
10935TIP3   OH254295   0.075   4.757   6.268  0.0499 -0.1536  0.4763
10935TIP3    H154296   0.152   4.787   6.316  0.0721  2.0671 -0.8341
10935TIP3    H254297   0.002   4.804   6.307  0.1797  2.5086 -2.1039
10936TIP3   OH254298   4.732   1.650   4.120  0.3479 -0.5391 -1.0571
10936TIP3    H154299   4.768   1.585   4.181  0.0000 -1.6958 -2.0367
10936TIP3    H254300   4.654   1.608   4.085  0.4179  0.1930 -2.1295
10937TIP3   OH254301   5.453   6.384   5.037 -0.0405 -0.5131  0.5362
10937TIP3    H154302   5.465   6.347   4.949 -0.3723 -1.1944  0.7696
10937TIP3    H254303   5.489   6.472   5.031  0.3450 -0.7100 -0.1652
10938TIP3   OH254304   0.960   2.130   3.659 -0.5241  0.0570 -0.2850
10938TIP3    H154305   0.984   2.068   3.590 -0.2408 -0.5219  0.3265
10938TIP3    H254306   0.968   2.080   3.740  2.8692  1.7443  0.5808
10939TIP3   OH254307   6.361   0.897  15.383  0.9351  0.6757  0.0741
10939TIP3    H154308   6.426   0.960  15.416  1.0562  0.2035  0.7693
10939TIP3    H254309   6.325   0.857  15.462  1.0405 -0.3063 -0.3633
10940TIP3   OH254310   1.778   1.496  14.625  0.3854  1.1115  0.0510
10940TIP3    H154311   1.817   1.413  14.655 -2.7196 -0.7932 -0.6758
10940TIP3    H254312   1.775   1.550  14.703 -0.1944 -0.6618  1.3345
10941TIP3   OH254313   2.151   3.229   0.249 -0.3142  0.0222 -0.1171
10941TIP3    H154314   2.174   3.312   0.207 -1.0799  0.4044  0.2058
10941TIP3    H254315   2.079   3.251   0.308 -1.4543 -1.1315 -1.0341
10942TIP3   OH254316   3.921   3.911   0.135  0.2016  0.0011 -0.9139
10942TIP3    H154317   3.981   3.967   0.086  2.2377 -0.5172  0.8272
10942TIP3    H254318   3.842   3.963   0.144  1.5637  2.1444 -0.4754
10943TIP3   OH254319   5.814   1.912   4.037 -0.0121  0.0868 -0.2609
10943TIP3    H154320   5.853   1.860   4.108 -0.7613  0.2332  0.2677
10943TIP3    H254321   5.889   1.943   3.986  0.4064 -2.9596 -1.6690
10944TIP3   OH254322   0.753   6.185   1.447 -0.1469  0.5245  0.8765
10944TIP3    H154323   0.827   6.136   1.412  1.1528  2.1242  1.2651
10944TIP3    H254324   0.732   6.250   1.379 -2.4657 -1.0651 -0.0560
10945TIP3   OH254325   6.242   0.963   4.894 -0.3219  0.0597 -0.4580
10945TIP3    H154326   6.258   0.997   4.806 -1.0651 -1.0662 -1.0551
10945TIP3    H254327   6.196   0.880   4.879 -3.2637  1.2659  1.0391
10946TIP3   OH254328   6.312   3.883  13.652  0.4001  0.5311 -0.2454
10946TIP3    H154329   6.307   3.909  13.559 -0.2546  1.0869 -0.0656
10946TIP3    H254330   6.224   3.853  13.673  0.7039 -0.1884  0.0388
10947TIP3   OH254331   0.965   2.705   1.493 -0.5311 -0.5165  0.1178
10947TIP3    H154332   0.880   2.668   1.470 -0.5345  1.0199 -2.7262
10947TIP3    H254333   0.946   2.766   1.564 -1.6501 -0.7799  0.0699
10948TIP3   OH254334   2.957   1.234   1.177  0.0859 -0.2653 -0.1567
10948TIP3    H154335   2.935   1.150   1.217 -0.1180  0.5901  1.6382
10948TIP3    H254336   2.876   1.285   1.180  0.8341  0.9380  1.3597
10949TIP3   OH254337   6.072   6.689  15.896  0.3410  0.3342  0.7043
10949TIP3    H154338   6.147   6.749  15.901  0.4158  0.2482  0.6176
10949TIP3    H254339   5.996   6.743  15.918  0.1859  0.8553 -1.0069
10950TIP3   OH254340   5.216   0.637  12.712 -0.2607  0.5929  0.0291
10950TIP3    H154341   5.121   0.644  12.703 -0.6759 -1.1005  2.0854
10950TIP3    H254342   5.240   0.564  12.655 -0.5680 -0.3218  1.0205
10951TIP3   OH254343   6.033   3.216  15.824 -0.0876  0.4169  0.3013
10951TIP3    H154344   6.029   3.168  15.742 -0.5537  1.2807 -0.1968
10951TIP3    H254345   5.983   3.163  15.886  0.3504 -0.2862  0.0538
10952TIP3   OH254346   3.897   5.236  16.252 -0.3214  0.2402  0.4679
10952TIP3    H154347   3.842   5.158  16.255 -0.1959  0.1264 -0.1335
10952TIP3    H254348   3.903   5.265  16.343  1.3640 -1.6696  1.0337
10953TIP3   OH254349   1.258   3.928   3.734  0.4431 -0.2196 -0.0036
10953TIP3    H154350   1.235   3.860   3.798  2.0475 -0.5208  0.2784
10953TIP3    H254351   1.193   3.917   3.664  0.4080 -1.7660  0.2344
10954TIP3   OH254352   3.985   3.657  12.621  0.0790  0.2403 -0.1599
10954TIP3    H154353   3.954   3.708  12.546  1.2042 -0.8457 -1.4125
10954TIP3    H254354   3.924   3.583  12.626 -0.7371  0.9513  0.8066
10955TIP3   OH254355   6.143   3.361  16.044 -0.2598  0.5073  0.5192
10955TIP3    H154356   6.229   3.347  16.084  0.6906  1.9853 -0.8787
10955TIP3    H254357   6.140   3.301  15.970 -1.7676 -1.7719  2.2631
10956TIP3   OH254358   3.057   1.882  13.707  0.1995  0.0414  0.2127
10956TIP3    H154359   3.097   1.936  13.638  0.7426 -1.0570 -0.3558
10956TIP3    H254360   3.058   1.938  13.784 -0.7795  1.4524 -0.7442
10957TIP3   OH254361   6.618   1.975  14.304 -0.1310 -0.0615 -0.2254
10957TIP3    H154362   6.558   1.979  14.230  2.1064  0.5062 -2.1088
10957TIP3    H254363   6.621   2.064  14.337 -1.9777 -0.5141  1.3802
10958TIP3   OH254364   3.329   4.323   0.839  0.2265 -0.1261 -0.4098
10958TIP3    H154365   3.261   4.328   0.906 -0.0466  3.2531 -0.7679
10958TIP3    H254366   3.323   4.407   0.793  3.8023 -0.2272 -1.2975
10959TIP3   OH254367   4.618   0.740  16.291  0.5222  0.1352 -0.0810
10959TIP3    H154368   4.671   0.795  16.234  0.1858 -1.7356 -2.3250
10959TIP3    H254369   4.643   0.650  16.269 -1.3633 -0.7314  0.9948
10960TIP3   OH254370   5.477   3.726  12.131  0.0141  0.2018  0.2204
10960TIP3    H154371   5.558   3.684  12.159 -0.1219  0.7549  1.5150
10960TIP3    H254372   5.461   3.690  12.044  1.2241 -0.5123  0.2594
10961TIP3   OH254373   1.559   1.276   4.946 -0.2618 -0.4108  0.0901
10961TIP3    H154374   1.508   1.221   4.886 -0.4842 -2.0145  1.6704
10961TIP3    H254375   1.495   1.333   4.988 -0.5315 -1.2020  0.7811
10962TIP3   OH254376   0.064   6.570  14.687 -0.5824  0.1417 -0.4450
10962TIP3    H154377   0.086   6.604  14.601 -0.5612 -2.0862 -1.3974
10962TIP3    H254378   0.142   6.586  14.740 -0.5760  1.4874 -0.8226
10963TIP3   OH254379   6.082   1.281   4.107 -0.0496 -0.3270  0.2966
10963TIP3    H154380   6.079   1.194   4.146 -0.3451 -0.0111  0.9940
10963TIP3    H254381   6.056   1.340   4.178 -2.2596  0.1268 -0.7886
10964TIP3   OH254382   3.137   6.104  16.730  0.2002 -0.4987  1.2648
10964TIP3    H154383   3.083   6.034  16.693 -0.7612  0.2812  1.1274
10964TIP3    H254384   3.078   6.149  16.790 -0.1545  1.9356 -0.7309
10965TIP3   OH254385   3.638   5.240  15.545 -0.3799  0.1195 -0.4542
10965TIP3    H154386   3.701   5.286  15.601  2.1769 -1.1969 -2.0455
10965TIP3    H254387   3.583   5.192  15.606  1.2482  0.0228  1.0271
10966TIP3   OH254388   4.895   5.629  14.280  0.2204 -0.4239 -0.0137
10966TIP3    H154389   4.835   5.704  14.282 -0.2999 -0.8390  0.1274
10966TIP3    H254390   4.931   5.625  14.369  1.3048  0.4913 -0.3892
10967TIP3   OH254391   3.654   3.563  15.468 -0.4144 -0.3971 -0.0163
10967TIP3    H154392   3.613   3.629  15.523 -1.0369 -1.1716  0.4648
10967TIP3    H254393   3.602   3.484  15.483  1.3013 -1.4398  0.6997
10968TIP3   OH254394   6.611   0.750  13.500  0.0808  0.0395  0.6302
10968TIP3    H154395   6.662   0.683  13.454  1.0523  0.9582  0.3435
10968TIP3    H254396   6.548   0.781  13.434 -0.0481 -0.2378  0.6193
10969TIP3   OH254397   2.053   6.042  11.414  0.0073  0.2260 -0.8291
10969TIP3    H154398   1.985   6.084  11.363  0.3090 -0.0062 -1.4271
10969TIP3    H254399   2.132   6.092  11.395 -0.1859  1.1983  0.7215
10970TIP3   OH254400   3.927   2.206   1.440  0.2451 -0.3096  1.0603
10970TIP3    H154401   3.911   2.294   1.474  1.2146 -0.3009  1.5433
10970TIP3    H254402   3.984   2.165   1.506  0.1781 -1.1357  0.6179
10971TIP3   OH254403   6.556   5.243   0.948  0.3069 -0.6625 -0.3249
10971TIP3    H154404   6.523   5.332   0.960 -0.1712 -0.5810 -2.0426
10971TIP3    H254405   6.651   5.251   0.960  0.1908 -0.0599  0.2421
10972TIP3   OH254406   2.069   2.994   2.163  0.4140 -0.0899 -0.2325
10972TIP3    H154407   2.096   2.906   2.190  0.6031 -0.4756 -1.6067
10972TIP3    H254408   2.054   2.986   2.068 -1.5211  0.8525 -0.0541
10973TIP3   OH254409   2.925   0.669  15.929 -0.1903 -0.6916  0.3528
10973TIP3    H154410   2.859   0.605  15.955 -0.6953 -0.4019 -0.1963
10973TIP3    H254411   2.903   0.691  15.839  0.3212 -0.1702  0.3475
10974TIP3   OH254412   3.351   4.698  15.890 -0.0678 -0.1720  0.4948
10974TIP3    H154413   3.309   4.767  15.942  2.8759  0.9185  1.6333
10974TIP3    H254414   3.309   4.617  15.919 -1.2457  0.8145  1.6665
10975TIP3   OH254415   0.421   6.688  13.284  0.2731 -0.5215  0.1863
10975TIP3    H154416   0.484   6.657  13.219  1.2650 -0.6544  1.1805
10975TIP3    H254417   0.412   6.616  13.345  1.1690  0.4097  1.4793
10976TIP3   OH254418   4.963   2.884  13.533 -0.3209 -0.2804  0.6522
10976TIP3    H154419   5.035   2.833  13.497 -0.4687 -0.0695  0.0372
10976TIP3    H254420   4.942   2.947  13.465  1.1052  1.9095  2.1110
10977TIP3   OH254421   1.092   1.187   4.182 -0.2514  0.4857  0.3624
10977TIP3    H154422   1.007   1.150   4.205 -0.7099  0.8659 -0.6441
10977TIP3    H254423   1.113   1.246   4.254 -0.5498 -0.0741  0.9123
10978TIP3   OH254424   0.644   2.573   0.437 -0.2925 -0.1734 -0.8349
10978TIP3    H154425   0.691   2.638   0.490 -2.1834  0.1167  0.5896
10978TIP3    H254426   0.552   2.599   0.443 -0.8145 -1.4399 -2.4875
10979TIP3   OH254427   2.910   4.931  15.006 -0.8695  0.2896  0.4822
10979TIP3    H154428   2.830   4.939  14.954 -0.5079  0.6763 -0.0273
10979TIP3    H254429   2.970   4.996  14.969 -1.0614  1.5637  2.2614
10980TIP3   OH254430   1.304   3.618  11.980 -0.2479  0.1298 -0.2542
10980TIP3    H154431   1.230   3.652  11.928 -0.8849 -0.9326 -0.0771
10980TIP3    H254432   1.295   3.660  12.065 -0.1168  0.6939 -0.5170
10981TIP3   OH254433   4.727   2.784  16.511  0.1153  0.0902  0.2516
10981TIP3    H154434   4.820   2.786  16.534 -0.0081  1.7224  0.7175
10981TIP3    H254435   4.726   2.752  16.420  1.0635 -0.5238  0.4344
10982TIP3   OH254436   2.008   0.346   1.464 -0.3145  0.0102 -0.6930
10982TIP3    H154437   2.049   0.431   1.452 -0.0535 -0.2562 -1.7875
10982TIP3    H254438   1.924   0.365   1.506  0.8923  0.5624  1.6327
10983TIP3   OH254439   3.019   4.013  16.186 -0.3530  0.2167 -0.2906
10983TIP3    H154440   2.971   4.096  16.188 -0.7566 -0.0269  0.9115
10983TIP3    H254441   2.953   3.948  16.161 -0.1670  0.1643 -0.6611
10984TIP3   OH254442   4.876   4.676   1.994 -0.4769  0.2160  0.5572
10984TIP3    H154443   4.857   4.607   2.057 -1.5099 -0.5659 -0.5530
10984TIP3    H254444   4.967   4.662   1.970 -0.5058 -0.4117  0.7878
10985TIP3   OH254445   2.075   2.279  15.415 -0.0303 -0.0182 -0.5459
10985TIP3    H154446   2.131   2.218  15.463  2.0377  2.2050  0.0415
10985TIP3    H254447   2.088   2.256  15.323  1.4663  0.0885 -0.3878
10986TIP3   OH254448   4.396   3.755  11.469 -0.1733  0.4695  0.4545
10986TIP3    H154449   4.484   3.776  11.438  0.6185  0.0736  2.3261
10986TIP3    H254450   4.372   3.676  11.419  1.1304 -0.2605  0.9188
10987TIP3   OH254451   1.852   5.759  17.607  0.6412  0.1495  0.0526
10987TIP3    H154452   1.944   5.746  17.584  0.3247 -0.7914 -0.7942
10987TIP3    H254453   1.804   5.721  17.533 -0.4264  1.5001  0.0149
10988TIP3   OH254454   4.464   2.571   5.682 -0.2219  0.0165 -0.5707
10988TIP3    H154455   4.473   2.545   5.774 -0.1708 -0.1154 -0.6123
10988TIP3    H254456   4.546   2.543   5.642  0.9527  2.5551 -0.0791
10989TIP3   OH254457   1.715   3.459  16.622  0.3253 -0.5479 -0.2345
10989TIP3    H154458   1.755   3.486  16.540  2.0223 -2.7540 -0.2185
10989TIP3    H254459   1.671   3.376  16.601 -1.1719 -0.0197  0.6180
10990TIP3   OH254460   0.179   2.891  10.977  0.9311  0.1235 -0.0515
10990TIP3    H154461   0.217   2.817  10.930 -1.7601 -0.5789 -1.3594
10990TIP3    H254462   0.104   2.853  11.024 -0.7288  2.0020 -1.0374
10991TIP3   OH254463   2.768   2.662   4.626 -0.2170  0.0323  0.4969
10991TIP3    H154464   2.748   2.714   4.704 -0.3998 -0.4634  0.7897
10991TIP3    H254465   2.715   2.583   4.636  1.7806 -1.2908  1.2479
10992TIP3   OH254466   0.228   6.129   1.668 -0.3069  0.2384 -0.1839
10992TIP3    H154467   0.306   6.076   1.651 -0.2831  0.8608 -2.2857
10992TIP3    H254468   0.197   6.099   1.754  0.6870 -1.9247 -0.5067
10993TIP3   OH254469   4.044   1.270   5.753  0.5490  0.3632  0.0472
10993TIP3    H154470   3.972   1.221   5.712 -0.3358  1.1385  0.6495
10993TIP3    H254471   4.065   1.220   5.832  0.3231  0.4209  0.1429
10994TIP3   OH254472   4.861   4.500  13.706 -0.1161  0.0487  0.3053
10994TIP3    H154473   4.920   4.575  13.703 -1.5444  1.2030 -1.6270
10994TIP3    H254474   4.820   4.499  13.619 -0.8952 -2.3679  0.6336
10995TIP3   OH254475   4.882   1.682  15.349  0.8644  0.3161  0.1296
10995TIP3    H154476   4.950   1.616  15.334  0.0758 -1.0033  2.0498
10995TIP3    H254477   4.931   1.762  15.370  1.8322  0.4299 -2.2119
10996TIP3   OH254478   6.342   4.336  17.017  0.5594 -1.1863  0.1374
10996TIP3    H154479   6.350   4.387  16.937  0.9700  0.1849  1.0089
10996TIP3    H254480   6.424   4.288  17.023  0.7632 -0.8566  0.0175
10997TIP3   OH254481   3.602   3.502  14.118  1.1382  0.4596 -0.2771
10997TIP3    H154482   3.538   3.441  14.081 -1.3756  2.9325 -0.3718
10997TIP3    H254483   3.681   3.491  14.065 -0.6946  0.3646 -3.1960
10998TIP3   OH254484   0.177   3.974   1.909 -0.3524  0.0029  0.2313
10998TIP3    H154485   0.130   4.020   1.978 -1.4286  0.7985 -0.9881
10998TIP3    H254486   0.165   4.029   1.831  0.4189 -1.1084 -0.7030
10999TIP3   OH254487   6.430   3.015   0.754 -0.0916  0.6437  0.2814
10999TIP3    H154488   6.469   3.077   0.692  0.2061 -0.3027 -0.5020
10999TIP3    H254489   6.340   3.005   0.723  0.5348 -1.1824 -1.1321
11000TIP3   OH254490   3.865   6.216  14.989  0.3119  0.1853 -0.1423
11000TIP3    H154491   3.794   6.271  15.021  0.8117  1.0479 -0.4751
11000TIP3    H254492   3.926   6.210  15.062  0.1485 -0.1183 -0.0309
11001TIP3   OH254493   1.815   1.530   4.422  0.4311 -0.1350  0.5695
11001TIP3    H154494   1.861   1.446   4.430 -0.0144 -0.3852  0.4903
11001TIP3    H254495   1.726   1.507   4.397  0.6110  0.4226 -0.6304
11002TIP3   OH254496   3.784   6.559  11.675  0.9451 -0.6027  0.4562
11002TIP3    H154497   3.784   6.624  11.746 -1.2733 -0.8649  0.7818
11002TIP3    H254498   3.696   6.521  11.679  1.7464 -2.6614 -0.6159
11003TIP3   OH254499   5.555   4.422  13.542  0.1045 -0.0168 -0.6978
11003TIP3    H154500   5.598   4.337  13.534 -1.3465 -0.7291 -1.3020
11003TIP3    H254501   5.618   4.476  13.589  1.6935 -0.9627 -1.6268
11004TIP3   OH254502   4.259   6.258  16.014  0.1500 -0.2731  0.0072
11004TIP3    H154503   4.251   6.262  16.109  1.2086 -1.0261  0.1453
11004TIP3    H254504   4.326   6.323  15.993 -2.6420  2.6108 -0.6512
11005TIP3   OH254505   3.627   1.195   4.108 -0.1526  0.5176  0.1286
11005TIP3    H154506   3.702   1.237   4.068 -1.1478  1.2579 -1.0350
11005TIP3    H254507   3.661   1.154   4.188  1.4044  1.0498 -0.2414
11006TIP3   OH254508   0.967   5.278   3.603  0.0524  0.4550 -0.6224
11006TIP3    H154509   0.955   5.184   3.591  0.2196  0.5042 -1.2090
11006TIP3    H254510   1.026   5.304   3.532 -0.0117  1.0054 -0.4788
11007TIP3   OH254511   3.914   6.618   5.044 -0.5142 -0.4500  0.1905
11007TIP3    H154512   3.982   6.683   5.030 -1.4330  0.5221  0.1686
11007TIP3    H254513   3.879   6.600   4.956 -0.7069 -0.4934  0.2762
11008TIP3   OH254514   1.011   4.117   0.043 -0.0641 -0.0632  0.1661
11008TIP3    H154515   1.080   4.110  -0.022 -0.2210 -0.7269  0.0667
11008TIP3    H254516   0.961   4.195   0.017 -1.6405 -1.6885 -2.0027
11009TIP3   OH254517   2.646   0.774  17.083  0.2666  0.0854  0.2862
11009TIP3    H154518   2.658   0.731  16.998 -0.1736  0.0131  0.2583
11009TIP3    H254519   2.559   0.745  17.113  0.0837  0.7224  0.3965
11010TIP3   OH254520   3.406   6.235   1.065 -0.4687  0.3031  0.0043
11010TIP3    H154521   3.407   6.328   1.085  1.1924 -0.0821  1.9753
11010TIP3    H254522   3.440   6.229   0.976  0.0437  1.5142  0.1030
11011TIP3   OH254523   3.549   5.771   1.236 -0.4617 -0.5172 -0.7638
11011TIP3    H154524   3.582   5.861   1.234  0.0536 -0.5939  1.2785
11011TIP3    H254525   3.605   5.722   1.177  0.6902  0.1039 -0.2165
11012TIP3   OH254526   3.456   1.463   1.958 -0.1708 -0.1962  0.1431
11012TIP3    H154527   3.376   1.504   1.925 -0.1338 -2.7204 -3.7840
11012TIP3    H254528   3.429   1.375   1.983  0.8904 -0.0510  1.9842
11013TIP3   OH254529   1.692   4.973   0.597  0.1741  0.3449 -0.1767
11013TIP3    H154530   1.687   4.887   0.554  1.7321  0.1337  0.0034
11013TIP3    H254531   1.603   5.008   0.589 -0.4822 -1.2311 -0.3368
11014TIP3   OH254532   3.515   3.758  14.104  0.1681  0.5716  0.2764
11014TIP3    H154533   3.421   3.748  14.115  0.3806  0.2685  2.0340
11014TIP3    H254534   3.550   3.669  14.109  0.5923  0.7097 -0.0973
11015TIP3   OH254535   6.676   3.659   2.335 -0.1844 -0.8353 -0.1978
11015TIP3    H154536   6.703   3.631   2.423  1.1562  0.9570  0.0042
11015TIP3    H254537   6.740   3.725   2.310  0.4739 -2.4486 -3.2636
11016TIP3   OH254538   2.858   0.107   2.083 -0.1600 -0.1316  0.6634
11016TIP3    H154539   2.899   0.123   2.168 -0.2747  1.0596  0.5193
11016TIP3    H254540   2.865   0.191   2.037  0.4818 -0.9323 -0.7608
11017TIP3   OH254541   4.944   6.278  16.925  0.0546 -0.3921 -0.3717
11017TIP3    H154542   4.928   6.184  16.934 -0.3741 -0.1937  1.2300
11017TIP3    H254543   4.880   6.319  16.983  1.7547  0.7741  0.7565
11018TIP3   OH254544   2.218   1.920   1.877  0.4288  0.0443 -0.1498
11018TIP3    H154545   2.161   1.857   1.921  2.3497 -1.5586  0.1871
11018TIP3    H254546   2.228   1.992   1.939  0.5649 -0.7087  0.7138
11019TIP3   OH254547   0.445   0.506  13.778 -0.6619  0.1171 -0.0459
11019TIP3    H154548   0.511   0.570  13.753 -1.1274 -0.0311 -1.8064
11019TIP3    H254549   0.372   0.558  13.812 -0.1081  0.3541  0.7838
11020TIP3   OH254550   1.088   6.592   6.603  0.2447 -0.1505  0.9688
11020TIP3    H154551   1.038   6.512   6.620 -0.5920  0.5930  2.1244
11020TIP3    H254552   1.021   6.657   6.581  0.9102  0.2775  0.1516
11021TIP3   OH254553   3.848   1.980   4.990 -1.1860 -0.2195  0.0442
11021TIP3    H154554   3.913   1.927   4.945 -0.6318  1.4646 -1.2281
11021TIP3    H254555   3.859   1.958   5.082 -1.8342 -3.2006 -0.4860
11022TIP3   OH254556   5.929   6.391  14.232  0.2129 -0.1951  0.5745
11022TIP3    H154557   5.841   6.391  14.194  0.1029 -0.9444  0.8057
11022TIP3    H254558   5.922   6.449  14.308  0.4584  1.3822 -0.5496
11023TIP3   OH254559   5.832   0.023  12.524  0.1986 -0.6246 -0.1380
11023TIP3    H154560   5.835   0.029  12.428  0.5709  0.8319 -0.0548
11023TIP3    H254561   5.919   0.049  12.552  0.5151 -2.2993  0.5848
11024TIP3   OH254562   3.922   3.142   5.896  0.3084 -0.0572 -0.1963
11024TIP3    H154563   3.993   3.204   5.879  1.0114 -1.0482 -1.0070
11024TIP3    H254564   3.903   3.152   5.989  1.3138  0.4268 -0.0272
11025TIP3   OH254565   4.717   4.133  11.831 -0.1958  0.8554 -0.4591
11025TIP3    H154566   4.741   4.041  11.825 -0.3259  0.7488  0.5054
11025TIP3    H254567   4.789   4.173  11.880 -0.3745  1.1671 -0.4477
11026TIP3   OH254568   4.499   2.182  15.712  0.2111  0.3278 -0.1098
11026TIP3    H154569   4.407   2.163  15.728  0.8556 -0.4146  3.3932
11026TIP3    H254570   4.507   2.277  15.723  0.0854  0.2121  1.0571
11027TIP3   OH254571   0.695   4.648   6.376 -0.2604 -0.2764 -0.3555
11027TIP3    H154572   0.620   4.688   6.421  0.0643 -1.7925  1.7093
11027TIP3    H254573   0.771   4.675   6.428  0.3017 -0.9873 -0.7874
11028TIP3   OH254574   4.703   4.654   6.954 -0.5095  0.3292  0.6175
11028TIP3    H154575   4.707   4.731   7.011 -0.2725  0.8079 -0.0256
11028TIP3    H254576   4.733   4.582   7.008 -1.9650  0.4507  1.6228
11029TIP3   OH254577   2.569   6.320  13.491 -0.2661  0.0350 -0.1085
11029TIP3    H154578   2.657   6.328  13.455 -0.0141 -2.9637 -0.4092
11029TIP3    H254579   2.582   6.278  13.577 -1.3063  1.2218  0.6686
11030TIP3   OH254580   4.155   2.103   5.616 -0.1884  0.8827 -0.3679
11030TIP3    H154581   4.160   2.009   5.633 -2.2261  0.5966 -1.0748
11030TIP3    H254582   4.145   2.142   5.703  2.6564  0.7239  0.1535
11031TIP3   OH254583   0.844   4.084   2.524 -0.0608  0.1857  0.6125
11031TIP3    H154584   0.818   3.996   2.497  0.1932  0.2663  0.1045
11031TIP3    H254585   0.842   4.080   2.620 -0.4521 -0.2511  0.5942
11032TIP3   OH254586   4.801   0.067   2.798 -0.3465  0.2582 -0.1123
11032TIP3    H154587   4.732   0.029   2.743 -1.1068  0.5055  0.6314
11032TIP3    H254588   4.765   0.151   2.826  0.5145  0.6575 -0.1778
11033TIP3   OH254589   2.385   2.788   2.508 -0.5673  0.2274 -0.0565
11033TIP3    H154590   2.471   2.823   2.530 -0.4498 -0.2425  0.2380
11033TIP3    H254591   2.402   2.702   2.470 -0.7777  0.8867 -1.7778
11034TIP3   OH254592   5.428   3.453  15.481 -0.6927 -0.1146 -0.7030
11034TIP3    H154593   5.347   3.453  15.430 -0.7300  0.1139 -0.6459
11034TIP3    H254594   5.443   3.545  15.503  0.2777  0.0207 -1.8192
11035TIP3   OH254595   4.417   3.008  13.226  0.3612 -0.2291  0.2768
11035TIP3    H154596   4.442   2.927  13.182 -0.7271 -0.8858  0.8291
11035TIP3    H254597   4.487   3.070  13.204  1.4897 -1.4613  0.2917
11036TIP3   OH254598   5.506   1.099   5.662 -0.0168  0.0104  0.4330
11036TIP3    H154599   5.424   1.111   5.615 -0.3060  0.6872  1.0960
11036TIP3    H254600   5.565   1.164   5.623 -0.3406  0.7683  1.1754
11037TIP3   OH254601   4.514   6.453  12.735  0.5828  0.2800 -0.0557
11037TIP3    H154602   4.593   6.453  12.681  0.2004  1.2720 -0.6292
11037TIP3    H254603   4.527   6.524  12.797 -0.6188  1.6796 -1.3303
11038TIP3   OH254604   1.320   6.682   5.166 -0.3216 -0.2165  0.1186
11038TIP3    H154605   1.257   6.618   5.132 -1.1354  0.6190  0.0315
11038TIP3    H254606   1.267   6.757   5.192  0.5159  0.0513  1.1386
11039TIP3   OH254607   0.606   1.589   1.932  0.1319  0.3310  0.6726
11039TIP3    H154608   0.679   1.631   1.977  0.3329 -0.4444  1.0834
11039TIP3    H254609   0.531   1.645   1.951  0.6302  1.2149  0.1294
11040TIP3   OH254610   1.717   4.050   6.719 -0.1201  0.5093  0.4324
11040TIP3    H154611   1.762   3.992   6.658 -0.8219  0.0832  0.3079
11040TIP3    H254612   1.647   4.089   6.667 -0.6076  0.2911  0.9166
11041TIP3   OH254613   4.262   5.337  11.677  0.4670  0.3869  0.4514
11041TIP3    H154614   4.256   5.340  11.582  3.1660 -0.8650  0.1637
11041TIP3    H254615   4.285   5.426  11.702 -1.0297  0.9135  0.0499
11042TIP3   OH254616   6.029   3.686  14.317  0.0908 -0.1463 -0.3867
11042TIP3    H154617   6.016   3.624  14.245  1.8064 -1.7245  0.5522
11042TIP3    H254618   6.070   3.762  14.276 -1.3479  0.0907 -1.4520
11043TIP3   OH254619   3.490   0.195  16.857  0.3390  0.1452 -0.1586
11043TIP3    H154620   3.511   0.218  16.948 -0.9442 -0.0207  0.1949
11043TIP3    H254621   3.466   0.102  16.861  1.9283 -0.3341 -0.9647
11044TIP3   OH254622   4.728   2.417  13.615 -0.7382 -0.3117  0.2569
11044TIP3    H154623   4.752   2.509  13.626  0.1380 -0.0544 -2.9328
11044TIP3    H254624   4.640   2.412  13.653 -0.5483  1.6437  1.1352
11045TIP3   OH254625   2.785   2.039  12.811  0.2711  0.4206  0.4820
11045TIP3    H154626   2.754   2.055  12.722 -1.1122 -1.8948  0.4523
11045TIP3    H254627   2.868   2.085  12.816  0.8752 -0.1374 -2.3579
11046TIP3   OH254628   2.740   3.601  14.425 -0.8343 -0.0252  0.2560
11046TIP3    H154629   2.763   3.508  14.433 -4.0682 -0.8632  1.5726
11046TIP3    H254630   2.686   3.606  14.347  3.1858  1.8671 -2.7715
11047TIP3   OH254631   5.241   5.795  13.826  0.3631 -0.4472  0.1478
11047TIP3    H154632   5.269   5.764  13.740 -0.9866  0.8257 -0.7988
11047TIP3    H254633   5.174   5.732  13.854  1.3401 -1.2943  0.6511
11048TIP3   OH254634   2.115   2.242  15.114  0.4496 -0.4832  0.6594
11048TIP3    H154635   2.095   2.270  15.024  0.2129  2.3584  1.5117
11048TIP3    H254636   2.044   2.182  15.137  1.7702 -3.2501 -1.7794
11049TIP3   OH254637   5.554   1.312  13.630 -0.2270  0.2804 -0.6095
11049TIP3    H154638   5.462   1.313  13.656 -0.0361  1.4190  0.0927
11049TIP3    H254639   5.586   1.226  13.657 -1.3735 -0.6327 -1.9992
11050TIP3   OH254640   2.308   5.153  11.160 -0.1015 -0.5742  0.2647
11050TIP3    H154641   2.247   5.139  11.232 -0.1885  2.1033  0.8137
11050TIP3    H254642   2.393   5.125  11.194 -0.3404 -0.4518  0.9779
11051TIP3   OH254643   0.398   2.686   6.710 -0.5102 -0.5901  0.1053
11051TIP3    H154644   0.426   2.771   6.746  0.4024 -0.7691 -0.1598
11051TIP3    H254645   0.478   2.633   6.710 -0.5457 -0.6963 -1.8875
11052TIP3   OH254646   6.062   6.495   1.855  0.4890  0.1230  0.2689
11052TIP3    H154647   6.043   6.457   1.770  1.8208 -0.6666  0.2967
11052TIP3    H254648   6.051   6.589   1.842 -1.4615 -0.1222 -0.1714
11053TIP3   OH254649   5.325   0.114   1.862  0.6635  0.0818 -0.1551
11053TIP3    H154650   5.278   0.059   1.800  0.7732 -2.6329  1.9902
11053TIP3    H254651   5.278   0.101   1.945  2.6047  0.7305  1.0938
11054TIP3   OH254652   5.068   6.249  16.365 -0.0037 -0.0576 -0.5583
11054TIP3    H154653   5.153   6.292  16.356  0.0211 -0.0461 -0.2966
11054TIP3    H254654   5.037   6.275  16.452 -0.5799  0.4761 -0.9153
11055TIP3   OH254655   5.694   3.473  16.286 -0.1460  0.3741  0.2185
11055TIP3    H154656   5.713   3.473  16.380  2.3472  1.7140 -0.1791
11055TIP3    H254657   5.764   3.420  16.248  1.2415  2.9929 -1.1579
11056TIP3   OH254658   1.530   3.508  15.771 -0.2190  0.0119 -0.1382
11056TIP3    H154659   1.590   3.467  15.709 -1.9627 -2.4586 -0.3147
11056TIP3    H254660   1.483   3.574  15.719 -0.4205 -0.8064 -1.0128
11057TIP3   OH254661   1.083   1.870  16.578 -0.4802 -0.1623  0.0114
11057TIP3    H154662   0.998   1.864  16.534 -0.3799 -1.4038 -0.0484
11057TIP3    H254663   1.097   1.964  16.591 -2.7360  0.0210  1.7226
11058TIP3   OH254664   1.175   3.252  16.657  0.2285 -0.5944 -0.4273
11058TIP3    H154665   1.235   3.313  16.616 -1.2950  1.8253  0.7230
11058TIP3    H254666   1.231   3.185  16.696  2.3551  2.0480  1.4329
11059TIP3   OH254667   0.430   3.713  11.776 -0.0875 -0.6127  0.1819
11059TIP3    H154668   0.386   3.732  11.693 -1.8968 -2.0082  0.7400
11059TIP3    H254669   0.430   3.617  11.781  3.6804 -0.7660 -0.0314
11060TIP3   OH254670   4.849   1.815   1.521  0.1729 -0.0646  0.2749
11060TIP3    H154671   4.772   1.762   1.540  0.0961  0.1098  0.4600
11060TIP3    H254672   4.881   1.783   1.437 -0.5145  0.3412 -0.1463
11061TIP3   OH254673   6.611   6.518  14.033 -0.1954  0.2416  0.2377
11061TIP3    H154674   6.675   6.455  14.066 -1.9241 -1.7804 -0.0073
11061TIP3    H254675   6.584   6.482  13.948 -3.3131 -0.3735  1.3383
11062TIP3   OH254676   3.158   3.649  11.980  0.6319  0.7326 -0.0724
11062TIP3    H154677   3.198   3.592  11.914  2.6229  1.5021  0.3918
11062TIP3    H254678   3.065   3.648  11.959  1.0438 -0.0161 -2.1356
11063TIP3   OH254679   0.292   5.398   1.711 -0.3615 -0.6162  0.0542
11063TIP3    H154680   0.345   5.465   1.755 -1.3281  1.1959 -1.3800
11063TIP3    H254681   0.354   5.354   1.652 -0.1364  0.6345 -0.6918
11064TIP3   OH254682   3.376   0.010  16.053 -0.0571  0.2231  0.1780
11064TIP3    H154683   3.365  -0.039  15.971  0.9732 -1.1074  0.7853
11064TIP3    H254684   3.292   0.001  16.098  0.4163 -1.9827  0.7438
11065TIP3   OH254685   5.545   3.925  13.578 -0.2535 -0.4341  0.6963
11065TIP3    H154686   5.469   3.962  13.535  0.6485  1.3445  0.5551
11065TIP3    H254687   5.509   3.868  13.647 -1.7167  1.1747  1.3169
11066TIP3   OH254688   0.155   4.811   1.418  0.6483 -0.5282 -0.0166
11066TIP3    H154689   0.243   4.847   1.428  0.6473 -0.7657  0.9096
11066TIP3    H254690   0.140   4.812   1.324  2.2747 -1.9843 -0.3581
11067TIP3   OH254691   3.414   4.268  15.419  0.3830 -0.8366  0.4618
11067TIP3    H154692   3.460   4.344  15.454  0.1113 -0.7859  0.7154
11067TIP3    H254693   3.360   4.302  15.348 -0.0684 -0.7153  0.8568
11068TIP3   OH254694   2.603   1.888   2.298  0.3724  0.3246 -0.3143
11068TIP3    H154695   2.655   1.847   2.367  0.2586 -2.2899 -1.6556
11068TIP3    H254696   2.651   1.868   2.217 -1.1099  0.5398 -1.2767
11069TIP3   OH254697   2.114   2.357   5.901  0.1971  0.0952 -0.5991
11069TIP3    H154698   2.059   2.435   5.891  1.9941  1.6843  1.0906
11069TIP3    H254699   2.134   2.353   5.994  1.4932 -1.4497 -0.8867
11070TIP3   OH254700   1.589   1.855  13.052 -0.3027 -0.7233  0.2342
11070TIP3    H154701   1.516   1.839  12.992  0.2433 -0.9843 -0.3729
11070TIP3    H254702   1.574   1.943  13.085 -0.6671 -0.6094 -0.2174
11071TIP3   OH254703   2.731   1.378   1.094  0.6442  0.3970  0.1136
11071TIP3    H154704   2.742   1.327   1.014  0.8931 -0.9154  0.9487
11071TIP3    H254705   2.636   1.389   1.102  0.5993  0.2250 -0.1757
11072TIP3   OH254706   0.565   3.457  11.013 -0.3428  0.1428 -0.1655
11072TIP3    H154707   0.547   3.502  10.931 -0.3516 -1.4186 -1.0573
11072TIP3    H254708   0.479   3.432  11.046 -0.2581 -0.6437 -0.5226
11073TIP3   OH254709   3.674   2.943   2.179  0.6947 -0.2703  0.1234
11073TIP3    H154710   3.658   2.865   2.232  0.5009  0.0073  0.4861
11073TIP3    H254711   3.604   3.003   2.205  0.4855 -0.1932 -0.5862
11074TIP3   OH254712   2.672   6.318   1.701  0.2765  0.1276 -0.2672
11074TIP3    H154713   2.725   6.238   1.708 -0.9021 -0.7521 -1.0495
11074TIP3    H254714   2.723   6.384   1.747  0.1132 -1.6362  2.6791
11075TIP3   OH254715   5.846   5.326  16.388 -0.0216  0.0016 -0.1668
11075TIP3    H154716   5.870   5.418  16.398  0.0314 -0.0107 -0.1787
11075TIP3    H254717   5.900   5.280  16.452  0.3676 -0.0839 -0.5468
11076TIP3   OH254718   5.763   4.498  13.728 -0.7740  0.0083  0.4900
11076TIP3    H154719   5.848   4.524  13.693 -0.4326 -1.4638  0.1575
11076TIP3    H254720   5.783   4.456  13.811 -1.2952  0.6943  0.9715
11077TIP3   OH254721   1.972   5.804  11.762  0.0966 -0.4618  0.2290
11077TIP3    H154722   2.010   5.818  11.849 -0.1967  1.1120  0.1169
11077TIP3    H254723   2.009   5.720  11.734  2.1896  0.1853  0.8199
11078TIP3   OH254724   1.701   3.334   3.623  0.0329  0.1443 -0.8828
11078TIP3    H154725   1.661   3.420   3.613 -0.5662 -0.2098 -1.6381
11078TIP3    H254726   1.695   3.315   3.717 -0.5460  0.5908 -0.8247
11079TIP3   OH254727   5.479   5.740  11.168  0.3103 -0.2804 -0.6637
11079TIP3    H154728   5.457   5.667  11.110 -0.5556 -1.2441  0.7973
11079TIP3    H254729   5.395   5.765  11.208  0.7024  1.0889 -0.6399
11080TIP3   OH254730   3.950   4.528   0.714 -0.1757  0.3337 -0.0993
11080TIP3    H154731   3.953   4.623   0.721 -1.4685  0.3232  1.4183
11080TIP3    H254732   3.991   4.507   0.630  0.2591  2.2067 -0.3796
11081TIP3   OH254733   4.111   1.890   0.920 -0.0621 -0.7163 -0.3758
11081TIP3    H154734   4.034   1.835   0.927  0.0484 -0.8355 -0.0585
11081TIP3    H254735   4.182   1.837   0.957 -0.1727  0.0618  1.0394
11082TIP3   OH254736   0.850   4.875  15.507 -0.0912  0.1251 -0.1966
11082TIP3    H154737   0.847   4.969  15.521 -0.6199 -0.2080  2.5454
11082TIP3    H254738   0.932   4.847  15.549 -0.2278 -0.7015 -0.4567
11083TIP3   OH254739   0.109   3.484  16.723 -0.1414 -0.2109 -0.0529
11083TIP3    H154740   0.018   3.511  16.708 -0.5450 -1.8199 -0.6367
11083TIP3    H254741   0.102   3.409  16.782  0.8078 -0.3498 -0.1108
11084TIP3   OH254742   3.926   4.851   3.344  0.4349  0.0646 -0.4567
11084TIP3    H154743   3.978   4.830   3.266 -1.0606 -0.8966 -1.2404
11084TIP3    H254744   3.857   4.910   3.312 -0.2161 -0.3690  0.1244
11085TIP3   OH254745   4.950   5.957   1.356 -0.3725 -0.0689 -0.1692
11085TIP3    H154746   4.895   5.973   1.433  2.1717 -1.6800  2.1856
11085TIP3    H254747   4.913   5.877   1.317 -0.4451 -0.4371  0.6353
11086TIP3   OH254748   0.513   2.887  16.777  0.4712 -0.1270  0.2099
11086TIP3    H154749   0.520   2.982  16.770 -1.0868 -0.0575 -0.8813
11086TIP3    H254750   0.438   2.873  16.835 -0.5282 -0.6413 -1.1443
11087TIP3   OH254751   5.742   4.886  15.384 -0.2383 -0.1969  0.1107
11087TIP3    H154752   5.737   4.790  15.394  1.7800 -0.4338 -0.7058
11087TIP3    H254753   5.682   4.906  15.312  0.3706 -1.0493 -0.6559
11088TIP3   OH254754   1.494   1.885   0.646 -0.0704  0.6291  0.7867
11088TIP3    H154755   1.411   1.902   0.690 -0.7564 -0.9481  0.1795
11088TIP3    H254756   1.532   1.810   0.693  1.1328  1.4562  1.1904
11089TIP3   OH254757   0.519   3.521   0.381  0.3559 -0.4752  0.2252
11089TIP3    H154758   0.593   3.545   0.437 -0.3615 -0.7985  1.3311
11089TIP3    H254759   0.457   3.477   0.440 -0.1637 -1.3505 -0.9346
11090TIP3   OH254760   3.891   0.400   1.608  0.3824  0.1493 -0.9308
11090TIP3    H154761   3.806   0.365   1.637  0.9296  0.5807  1.3677
11090TIP3    H254762   3.917   0.342   1.537  0.3279 -3.0139  1.3818
11091TIP3   OH254763   2.645   6.079  15.659 -0.1762 -0.0639  0.0711
11091TIP3    H154764   2.736   6.081  15.687 -0.2785  0.5675  0.3737
11091TIP3    H254765   2.648   6.105  15.567 -0.0704  0.1396  0.1319
11092TIP3   OH254766   5.996   4.595   4.075 -0.2602  0.9437  0.5497
11092TIP3    H154767   6.018   4.510   4.037  0.8839  1.2201  0.5485
11092TIP3    H254768   6.021   4.587   4.167  1.7325  1.8823  0.1456
11093TIP3   OH254769   5.578   2.693  17.683  0.3762 -0.1243 -0.2290
11093TIP3    H154770   5.567   2.620  17.744  2.5725 -2.1797 -2.0786
11093TIP3    H254771   5.659   2.736  17.712  0.1108  0.4251 -0.2849
11094TIP3   OH254772   4.828   5.953   3.611  0.3249 -0.3657  0.5633
11094TIP3    H154773   4.889   5.972   3.540  0.3470 -3.1497 -0.3175
11094TIP3    H254774   4.782   5.874   3.581 -1.4752 -0.1651  2.5804
11095TIP3   OH254775   4.960   2.220   4.224 -0.1841  0.1505  0.5331
11095TIP3    H154776   4.883   2.277   4.225  0.5773  1.3406 -1.9556
11095TIP3    H254777   5.012   2.249   4.299 -2.0663 -0.6832  2.2719
11096TIP3   OH254778   0.390   5.604  12.106 -0.4128 -0.3639 -0.8566
11096TIP3    H154779   0.444   5.611  12.185 -1.3634  1.6239 -0.3349
11096TIP3    H254780   0.344   5.520  12.116  1.1303 -1.1824 -0.4067
11097TIP3   OH254781   1.562   6.036  14.278  0.6988  0.8272  0.9362
11097TIP3    H154782   1.520   5.961  14.321 -1.0239  2.4430  2.2479
11097TIP3    H254783   1.536   6.029  14.186  1.5307 -0.7795  0.7901
11098TIP3   OH254784   3.741   2.225  17.660 -0.1208  0.0071 -0.7749
11098TIP3    H154785   3.658   2.194  17.625 -0.6608 -1.2832  1.4300
11098TIP3    H254786   3.804   2.158  17.635 -0.2042 -0.1545 -0.5538
11099TIP3   OH254787   3.540   6.391  16.153  0.2546 -0.2094 -0.3827
11099TIP3    H154788   3.577   6.371  16.239 -1.6154 -1.5808  0.1614
11099TIP3    H254789   3.453   6.426  16.172 -1.2372 -2.9001 -1.7082
11100TIP3   OH254790   0.024   5.547   1.195 -0.3667  0.3825 -0.0590
11100TIP3    H154791   0.012   5.552   1.100  1.1459  0.5344 -0.2703
11100TIP3    H254792   0.041   5.637   1.222 -3.0453  0.7272  0.7430
11101TIP3   OH254793   0.511   3.370   2.955 -0.6159  0.1321 -0.2449
11101TIP3    H154794   0.438   3.431   2.948  0.5030  1.5506 -0.0168
11101TIP3    H254795   0.486   3.296   2.898 -2.3803  0.3752  0.1515
11102TIP3   OH254796   3.470   1.421  15.551 -0.3916  0.7394 -0.7073
11102TIP3    H154797   3.431   1.492  15.499  0.6069  0.9692 -1.1517
11102TIP3    H254798   3.538   1.463  15.602 -1.8013  0.6469  1.3665
11103TIP3   OH254799   5.364   1.134  13.988  0.6954 -0.1993 -0.1003
11103TIP3    H154800   5.412   1.158  14.068  1.4528 -2.0432  0.0710
11103TIP3    H254801   5.376   1.039  13.982  1.5037  0.0192 -2.9678
11104TIP3   OH254802   3.349   6.096  11.674  0.4065 -0.7462 -0.1792
11104TIP3    H154803   3.262   6.124  11.703  1.1612  0.3700  1.1497
11104TIP3    H254804   3.406   6.114  11.749  1.7401 -1.7216 -0.9184
11105TIP3   OH254805   1.509   3.144  11.556 -0.1652 -0.5298  0.3591
11105TIP3    H154806   1.569   3.181  11.491  2.0641 -2.4277  1.2035
11105TIP3    H254807   1.560   3.140  11.637 -1.9583 -0.8382  1.5298
11106TIP3   OH254808   5.050   6.375  13.222  0.3567  0.4081  0.0826
11106TIP3    H154809   5.025   6.370  13.314  0.4153  1.0496  0.1390
11106TIP3    H254810   5.080   6.287  13.200 -0.5671  0.0032  0.4122
11107TIP3   OH254811   1.293   0.274  16.422 -0.3719 -0.3728  0.4451
11107TIP3    H154812   1.332   0.344  16.370 -1.5173  0.1546  0.2773
11107TIP3    H254813   1.368   0.228  16.460  0.4338  0.0381 -0.6155
11108TIP3   OH254814   2.768   0.359  13.574  0.3541  0.5192  0.4076
11108TIP3    H154815   2.712   0.436  13.566  1.9688  1.8473  1.1238
11108TIP3    H254816   2.853   0.387  13.539  0.4224 -1.6802 -1.4163
11109TIP3   OH254817   4.577   3.599  13.422 -0.0042 -0.1632 -0.0492
11109TIP3    H154818   4.604   3.638  13.339  0.7924  0.3825  0.4420
11109TIP3    H254819   4.530   3.519  13.398  1.0606 -0.5314 -0.9953
11110TIP3   OH254820   4.794   0.371  12.596  0.1752  0.2676  0.0994
11110TIP3    H154821   4.837   0.442  12.546 -0.2155  0.1569 -0.4010
11110TIP3    H254822   4.857   0.350  12.665  0.5976  0.6329 -0.1631
11111TIP3   OH254823   4.807   3.477   5.442 -0.3540 -0.1330  0.0466
11111TIP3    H154824   4.714   3.456   5.443 -0.6624  0.9763 -1.9284
11111TIP3    H254825   4.840   3.439   5.361  1.2196 -1.5840  1.3045
11112TIP3   OH254826   3.924   5.528   6.630  0.2499 -0.3081  0.7247
11112TIP3    H154827   3.966   5.522   6.716 -1.8846 -0.3740  1.8127
11112TIP3    H254828   3.852   5.589   6.643  0.6620  0.7272 -1.3936
11113TIP3   OH254829   2.613   0.913   2.206 -0.0782  0.5927 -0.0206
11113TIP3    H154830   2.556   0.946   2.136  0.9268  0.5104 -0.9031
11113TIP3    H254831   2.601   0.819   2.205  0.9941  0.4463 -1.0650
11114TIP3   OH254832   5.957   5.273  11.077  0.3128 -0.6594 -0.0279
11114TIP3    H154833   5.916   5.192  11.047 -1.9346  0.0672  0.8760
11114TIP3    H254834   5.969   5.259  11.171  1.0335 -0.3830 -0.0735
11115TIP3   OH254835   2.068   0.550  13.420 -0.2000  0.3247  0.3470
11115TIP3    H154836   2.025   0.498  13.488  1.3467 -0.0547  1.0716
11115TIP3    H254837   2.026   0.636  13.426 -0.3042  0.2054  1.5889
11116TIP3   OH254838   3.523   4.768  12.231  0.4020  0.7533 -0.1433
11116TIP3    H154839   3.480   4.815  12.160  0.8052  0.3387 -0.6671
11116TIP3    H254840   3.454   4.754  12.296  0.2376  1.9463 -0.0299
11117TIP3   OH254841   3.444   1.931  17.313 -0.2470  0.7413  0.0296
11117TIP3    H154842   3.406   1.976  17.237 -1.3150  0.0077  0.1059
11117TIP3    H254843   3.505   1.868  17.275  0.2465  1.3096 -0.1406
11118TIP3   OH254844   3.041   2.477  16.924 -0.1546 -0.1744 -0.2840
11118TIP3    H154845   3.106   2.505  16.859 -1.1704  1.5972 -0.5830
11118TIP3    H254846   3.072   2.513  17.007  0.1105 -0.7718 -0.1158
11119TIP3   OH254847   6.635   3.802   0.161 -0.5534 -0.4335  0.1699
11119TIP3    H154848   6.631   3.756   0.245 -0.7123 -2.8659 -1.0729
11119TIP3    H254849   6.550   3.784   0.121 -0.3794  0.4738 -0.6384
11120TIP3   OH254850   1.938   2.677   3.017  0.5492  0.3267  0.1585
11120TIP3    H154851   1.877   2.745   2.991 -0.4333 -0.5699  0.0781
11120TIP3    H254852   1.885   2.614   3.066  1.7393  0.4063  1.6364
11121TIP3   OH254853   4.941   6.705  13.360 -0.3584 -0.1448  0.1171
11121TIP3    H154854   4.992   6.763  13.416 -2.6293  0.2030  1.9449
11121TIP3    H254855   4.915   6.633  13.418 -2.2041 -0.1237 -0.6410
11122TIP3   OH254856   5.873   4.647  17.013 -0.1654 -0.8370 -0.0661
11122TIP3    H154857   5.875   4.657  17.108 -0.7121  3.0243 -0.2828
11122TIP3    H254858   5.957   4.683  16.983 -0.2205 -1.5076 -1.0926
11123TIP3   OH254859   1.987   6.619  14.974  0.5198 -0.1353  0.3784
11123TIP3    H154860   2.028   6.670  14.904  2.9312  1.2609  2.6366
11123TIP3    H254861   1.895   6.647  14.972  0.6097  0.2241 -1.8519
11124TIP3   OH254862   4.215   0.717  12.893  0.4856 -0.3081 -0.1608
11124TIP3    H154863   4.248   0.805  12.905  2.4655 -1.2310  1.7535
11124TIP3    H254864   4.193   0.712  12.800  1.8735  1.6757 -0.6515
11125TIP3   OH254865   6.195   4.103  12.557 -0.3189  0.0983 -0.1219
11125TIP3    H154866   6.269   4.093  12.498 -0.5788  1.1759 -0.6564
11125TIP3    H254867   6.118   4.082  12.503 -0.4098 -1.1362  0.4600
11126TIP3   OH254868   5.872   4.975   3.782 -0.2089  0.0918  0.1278
11126TIP3    H154869   5.930   4.932   3.719  1.4848  1.2393  0.8058
11126TIP3    H254870   5.887   4.928   3.864 -3.8479 -2.6726 -0.5531
11127TIP3   OH254871   0.678   1.915   6.860  0.3172 -0.1582  0.2859
11127TIP3    H154872   0.770   1.939   6.846  0.1614 -0.4112 -1.4547
11127TIP3    H254873   0.681   1.820   6.874  0.3330 -0.1418  0.3957
11128TIP3   OH254874   4.277   1.492   4.053 -0.5691  0.1562 -0.0970
11128TIP3    H154875   4.274   1.544   4.134 -1.2074 -1.8128  1.2158
11128TIP3    H254876   4.259   1.402   4.081  2.7018 -1.2356 -1.9553
11129TIP3   OH254877   0.021   1.259   3.085  0.0917 -0.4426 -0.4192
11129TIP3    H154878  -0.074   1.266   3.082  0.0419  0.7473  1.9561
11129TIP3    H254879   0.044   1.270   3.177  2.6589  1.4219 -1.1398
11130TIP3   OH254880   5.551   3.318   1.614  0.1296  0.2876 -0.3099
11130TIP3    H154881   5.493   3.243   1.598  0.0807  0.1852  0.3076
11130TIP3    H254882   5.587   3.339   1.528 -1.4815  0.9186 -0.8761
11131TIP3   OH254883   1.018   5.095  12.744 -0.0021  0.3048 -0.4309
11131TIP3    H154884   0.995   5.027  12.680 -0.5746  0.7999 -0.7679
11131TIP3    H254885   1.005   5.177  12.696 -2.5324  0.7867  0.9372
11132TIP3   OH254886   5.726   3.073  13.433 -0.3292  0.2974  0.5522
11132TIP3    H154887   5.639   3.040  13.453 -0.6962  0.3860 -0.7953
11132TIP3    H254888   5.766   3.004  13.380  0.6109  0.0514  1.5508
11133TIP3   OH254889   2.825   3.600   2.605  0.0449  0.0846 -0.3743
11133TIP3    H154890   2.912   3.637   2.618  0.1027 -0.0669 -0.3301
11133TIP3    H254891   2.769   3.650   2.664  0.6702 -2.0707  2.2687
11134TIP3   OH254892   6.285   4.385   0.750 -0.4242 -0.0904 -0.1369
11134TIP3    H154893   6.335   4.327   0.693 -0.7429 -0.1319 -0.3816
11134TIP3    H254894   6.346   4.410   0.819 -0.7099 -1.9479  0.8619
11135TIP3   OH254895   0.653   5.878   6.332 -0.5465 -0.4789 -0.0364
11135TIP3    H154896   0.739   5.836   6.334 -0.1065  0.3710 -0.5278
11135TIP3    H254897   0.599   5.826   6.392  0.2047 -1.2336  0.0011
11136TIP3   OH254898   4.157   1.034  15.084  0.0467  0.3284 -0.3884
11136TIP3    H154899   4.243   1.046  15.044  0.7315  1.1526  1.2269
11136TIP3    H254900   4.143   1.113  15.137 -1.7504  0.2441 -0.6612
11137TIP3   OH254901   1.139   1.079  13.290 -0.0791 -0.1293  0.0844
11137TIP3    H154902   1.058   1.062  13.337  0.3451  0.5294  1.0999
11137TIP3    H254903   1.164   0.995  13.253  0.2574 -1.0060  2.1619
11138TIP3   OH254904   3.176   2.943  11.087 -0.6026 -0.6003 -0.2284
11138TIP3    H154905   3.250   3.004  11.089 -0.8924 -0.1418 -2.0375
11138TIP3    H254906   3.169   2.915  10.996 -1.1652 -2.5284  0.3652
11139TIP3   OH254907   2.831   2.600  14.971 -0.0316  0.0679  0.0905
11139TIP3    H154908   2.899   2.602  15.037 -1.0490 -0.0824  1.1816
11139TIP3    H254909   2.789   2.686  14.978 -1.1483 -0.5032  0.7609
11140TIP3   OH254910   1.265   2.696   0.188 -0.5315  0.2922  0.0500
11140TIP3    H154911   1.341   2.745   0.219  0.7950 -2.5540  1.6776
11140TIP3    H254912   1.302   2.629   0.130 -1.9216 -0.4178 -0.0599
11141TIP3   OH254913   2.566   1.430  13.557 -0.0116 -0.6569  0.0146
11141TIP3    H154914   2.622   1.488  13.504  0.1134 -1.8214 -1.1895
11141TIP3    H254915   2.626   1.393  13.622 -0.3020  1.2952  1.4780
11142TIP3   OH254916   3.531   3.529   3.748  0.4848  0.4079  0.0114
11142TIP3    H154917   3.489   3.478   3.816  2.9693 -1.6233  0.1765
11142TIP3    H254918   3.561   3.609   3.792  3.8380 -1.7279  2.0044
11143TIP3   OH254919   3.933   4.505   4.483  0.0794  0.4867 -0.4399
11143TIP3    H154920   3.895   4.496   4.396  0.3314  0.7067 -0.5728
11143TIP3    H254921   3.902   4.590   4.514 -0.5322  0.1357 -0.0538
11144TIP3   OH254922   0.634   2.010  11.342 -0.2137  0.6680 -0.0869
11144TIP3    H154923   0.667   1.935  11.392  1.2233  0.5716 -1.1466
11144TIP3    H254924   0.541   2.016  11.367 -0.3170 -1.3487  0.1389
11145TIP3   OH254925   6.370   3.259  13.769  0.6865  0.6103 -0.2209
11145TIP3    H154926   6.394   3.301  13.852  1.7450  1.0345 -0.7180
11145TIP3    H254927   6.285   3.296  13.747  1.4709  2.3520 -0.5083
11146TIP3   OH254928   6.359   2.518  12.190  0.7377 -0.5010 -0.1191
11146TIP3    H154929   6.425   2.547  12.127 -0.0122 -2.0475 -1.6776
11146TIP3    H254930   6.404   2.521  12.275  2.5829 -0.8133 -1.0409
11147TIP3   OH254931   5.730   2.743   3.684  0.3128  0.7881  0.5563
11147TIP3    H154932   5.701   2.829   3.653  0.3675 -0.0333 -2.0367
11147TIP3    H254933   5.748   2.694   3.604 -1.0615 -2.1174  1.9048
11148TIP3   OH254934   5.201   1.705  17.011 -0.1433 -0.0444  0.0581
11148TIP3    H154935   5.284   1.659  17.023  0.6736  1.3448  0.0433
11148TIP3    H254936   5.201   1.772  17.080 -1.2916 -0.0774  0.1075
11149TIP3   OH254937   0.515   6.152  15.879  0.2388 -0.6624 -0.4058
11149TIP3    H154938   0.547   6.144  15.788  0.1445 -1.2971 -0.3928
11149TIP3    H254939   0.570   6.091  15.928  0.2745 -0.3331 -0.0351
11150TIP3   OH254940   5.665   4.749  13.857 -0.5366 -0.9122 -0.1879
11150TIP3    H154941   5.686   4.717  13.770  0.0080 -1.0881  0.0068
11150TIP3    H254942   5.588   4.698  13.883 -0.0663 -1.6159 -0.1408
11151TIP3   OH254943   2.485   5.611  14.061 -0.1771  0.2322 -0.5388
11151TIP3    H154944   2.539   5.673  14.012 -0.6063 -0.3350 -1.7815
11151TIP3    H254945   2.426   5.574  13.996 -1.0747 -0.2450  0.5094
11152TIP3   OH254946   2.803   1.736  13.877 -0.1651 -0.4899  0.1647
11152TIP3    H154947   2.842   1.711  13.794 -0.8427  0.4293 -0.4527
11152TIP3    H254948   2.860   1.804  13.911 -0.8438  0.4138 -0.4399
11153TIP3   OH254949   4.862   0.053  13.854  0.0425 -0.2638 -0.6235
11153TIP3    H154950   4.908   0.116  13.909 -0.9026 -0.4539  0.4314
11153TIP3    H254951   4.845   0.100  13.772  1.1750  0.1356 -0.6545
11154TIP3   OH254952   0.328   3.027   0.627 -0.0133  0.1312 -0.4371
11154TIP3    H154953   0.375   3.024   0.711 -2.0287 -1.6760  0.7461
11154TIP3    H254954   0.372   3.096   0.578  2.7133 -0.2446  1.2037
11155TIP3   OH254955   5.713   6.695  11.816  0.1874 -0.0118  0.1576
11155TIP3    H154956   5.638   6.648  11.853  0.6615 -2.5511 -1.8300
11155TIP3    H254957   5.688   6.714  11.726  1.1162  1.0632  0.1036
11156TIP3   OH254958   6.438   3.446   5.458  0.2121  0.4524 -0.0881
11156TIP3    H154959   6.477   3.462   5.544  0.6346 -2.1486  0.2939
11156TIP3    H254960   6.512   3.426   5.401 -0.2588 -0.7756 -0.2997
11157TIP3   OH254961   4.792   6.571   2.435  0.4348 -0.2182  0.0274
11157TIP3    H154962   4.720   6.632   2.449  1.2452  0.6396  0.5416
11157TIP3    H254963   4.751   6.495   2.394 -0.5027  0.8854 -1.1678
11158TIP3   OH254964   2.678   6.674  13.233 -0.7354 -0.1923 -0.1079
11158TIP3    H154965   2.757   6.691  13.284 -1.6589  1.6264  0.7979
11158TIP3    H254966   2.614   6.646  13.298 -1.6467  1.2090 -0.3627
11159TIP3   OH254967   1.070   1.371  15.689  0.0863  0.7432  0.6729
11159TIP3    H154968   0.976   1.369  15.672  0.6174 -0.7522 -3.0352
11159TIP3    H254969   1.099   1.455  15.653  0.3164  0.7206  0.8029
11160TIP3   OH254970   0.185   0.314   3.293 -0.2177  0.0939 -0.5778
11160TIP3    H154971   0.227   0.373   3.229  0.8656 -0.4335 -0.3761
11160TIP3    H254972   0.143   0.247   3.239 -1.5250  1.0659 -0.8126
11161TIP3   OH254973   5.337   3.057   2.877  0.3302  0.5166  0.1101
11161TIP3    H154974   5.314   2.988   2.939 -1.1633  1.5694  0.7677
11161TIP3    H254975   5.287   3.133   2.905  1.0691  1.5670 -1.2758
11162TIP3   OH254976   6.154   4.047  15.872 -0.0840  0.3654 -0.0047
11162TIP3    H154977   6.061   4.036  15.892 -0.0544  2.0264  1.2429
11162TIP3    H254978   6.187   3.957  15.864 -1.6999 -0.2633 -0.1112
11163TIP3   OH254979   6.168   6.734  11.824 -0.3074 -0.1219 -0.0267
11163TIP3    H154980   6.087   6.783  11.818 -0.3914 -0.3761 -1.3382
11163TIP3    H254981   6.143   6.650  11.863 -0.8268 -0.4551 -1.0231
11164TIP3   OH254982   2.928   1.622  15.401  0.1271  0.2088  0.1758
11164TIP3    H154983   2.982   1.554  15.362 -0.2025 -0.4451  0.8280
11164TIP3    H254984   2.957   1.626  15.492  1.4498  2.2661 -0.2588
11165TIP3   OH254985   2.274   5.059  16.343 -0.5953  0.2692 -0.5962
11165TIP3    H154986   2.222   5.006  16.403 -0.9203 -0.5832 -1.5947
11165TIP3    H254987   2.358   5.013  16.337 -0.8975 -0.2034 -1.5046
11166TIP3   OH254988   1.595   3.602  12.653 -0.3314  0.0086 -0.2619
11166TIP3    H154989   1.549   3.576  12.573 -2.2049  0.7231  0.5395
11166TIP3    H254990   1.540   3.669  12.692  1.7172  1.3733  0.4559
11167TIP3   OH254991   1.213   6.477   4.089 -0.1022  0.6495  0.3005
11167TIP3    H154992   1.290   6.422   4.072 -1.1092 -0.4697 -0.9163
11167TIP3    H254993   1.140   6.426   4.055 -1.4181  1.6319  1.5237
11168TIP3   OH254994   5.089   2.547  11.035 -0.0011 -0.3724 -0.4101
11168TIP3    H154995   5.148   2.620  11.054  0.5954 -0.6786 -1.0834
11168TIP3    H254996   5.034   2.578  10.963 -1.0752  0.1266  0.5837
11169TIP3   OH254997   0.671   3.595  13.791 -0.7422 -0.4224 -0.0301
11169TIP3    H154998   0.733   3.590  13.718 -1.8010  0.6068 -1.0279
11169TIP3    H254999   0.719   3.642  13.859 -0.3205  0.1177 -0.6826
11170TIP3   OH255000   2.524   4.184   5.271 -0.4635  0.4868 -0.5258
11170TIP3    H155001   2.605   4.232   5.288 -0.9014  1.4573 -1.0631
11170TIP3    H255002   2.508   4.195   5.177 -1.4218  0.6666 -0.3611
11171TIP3   OH255003   1.229   1.573   6.461 -0.1018  0.5621 -0.4649
11171TIP3    H155004   1.310   1.533   6.432  0.1143  1.1690 -0.7102
11171TIP3    H255005   1.160   1.515   6.428  0.1278  1.2184 -2.2070
11172TIP3   OH255006   5.624   4.112   3.740 -0.1297 -0.0136  0.0472
11172TIP3    H155007   5.678   4.035   3.763 -1.7186 -0.9620  0.7876
11172TIP3    H255008   5.601   4.151   3.825 -0.6525  0.3428 -0.2571
11173TIP3   OH255009   4.056   4.478   3.257  0.4728 -0.4664  0.0221
11173TIP3    H155010   4.024   4.567   3.250  1.2157 -0.3141 -2.4881
11173TIP3    H255011   4.145   4.487   3.293  1.1837  0.0124 -1.7620
11174TIP3   OH255012   4.997   4.940   5.420 -0.6522 -0.2207  0.1658
11174TIP3    H155013   5.047   4.884   5.361 -0.8759  0.5432 -0.7673
11174TIP3    H255014   4.933   4.882   5.460 -1.6121 -0.4644 -1.6141
11175TIP3   OH255015   3.229   5.090   3.442 -0.1273  0.7392  0.3358
11175TIP3    H155016   3.261   5.064   3.356  1.7503 -0.3983  1.3227
11175TIP3    H255017   3.134   5.092   3.432 -0.0092 -0.3276 -1.5016
11176TIP3   OH255018   3.641   5.198   6.689 -0.3473  0.1883 -0.8506
11176TIP3    H155019   3.649   5.274   6.631 -0.4110  0.1902 -0.8578
11176TIP3    H255020   3.547   5.177   6.687 -0.9925  2.2170  1.7722
11177TIP3   OH255021   3.249   3.583   2.946  0.0610 -0.6660  0.1102
11177TIP3    H155022   3.338   3.583   2.982  0.0064 -1.6511  0.2693
11177TIP3    H255023   3.256   3.635   2.866  0.3193  0.9991  1.1647
11178TIP3   OH255024   4.108   3.490   4.843  0.1826  0.2540 -0.2822
11178TIP3    H155025   4.084   3.470   4.752 -0.4749 -0.2110 -0.0168
11178TIP3    H255026   4.195   3.452   4.854  0.2076  0.1949 -0.6777
11179TIP3   OH255027   1.443   1.158   5.686  0.1859  0.1665  0.0969
11179TIP3    H155028   1.462   1.159   5.592  1.4675  0.8174  0.3363
11179TIP3    H255029   1.524   1.126   5.726 -0.6857 -1.0925  0.9369
11180TIP3   OH255030   4.478   3.571   3.873 -0.5574 -0.0239  0.3247
11180TIP3    H155031   4.419   3.620   3.930 -2.1829 -2.9996  1.4201
11180TIP3    H255032   4.426   3.553   3.795 -0.1693 -0.4109  0.1528
11181TIP3   OH255033   5.295   6.632   0.662  0.2317 -0.5180 -0.4142
11181TIP3    H155034   5.267   6.716   0.698 -2.6464 -1.2413 -0.7177
11181TIP3    H255035   5.275   6.569   0.731  1.7806 -1.0911 -0.4365
11182TIP3   OH255036   2.283   3.584  12.798  0.8018 -0.1280 -0.4653
11182TIP3    H155037   2.341   3.548  12.730 -0.2138  2.1236 -2.6684
11182TIP3    H255038   2.335   3.578  12.878  2.5857 -1.6765 -1.6174
11183TIP3   OH255039   3.551   6.168   4.993  0.1816  0.6309  0.1984
11183TIP3    H155040   3.639   6.151   5.026 -0.3150 -1.3352  0.6341
11183TIP3    H255041   3.522   6.246   5.041  1.9151  1.7477 -0.4856
11184TIP3   OH255042   4.176   5.289  17.000  0.1548 -0.5031 -0.0517
11184TIP3    H155043   4.114   5.309  16.929 -0.9588 -1.4697  0.5974
11184TIP3    H255044   4.255   5.260  16.956  0.6862  2.0891 -0.9430
11185TIP3   OH255045   4.028   3.163  16.470 -0.0275 -0.8843 -0.4773
11185TIP3    H155046   3.971   3.096  16.509  0.1651  0.2416  1.9121
11185TIP3    H255047   4.069   3.206  16.545 -1.2567  2.9066 -1.7821
11186TIP3   OH255048   6.508   5.483  17.310 -0.4470 -0.4246 -0.0948
11186TIP3    H155049   6.457   5.560  17.284  0.2304  0.2354  0.4743
11186TIP3    H255050   6.506   5.425  17.234  1.3919  1.3682 -1.6179
11187TIP3   OH255051   6.016   0.578  17.565  0.0946  0.1951 -0.0240
11187TIP3    H155052   5.982   0.589  17.654  0.0663 -0.2588  0.0228
11187TIP3    H255053   5.974   0.647  17.514  1.6827  1.8167  0.7365
11188TIP3   OH255054   4.721   5.357  13.390 -0.3987 -0.1042 -0.5889
11188TIP3    H155055   4.791   5.315  13.341  0.4818  0.7649 -0.1167
11188TIP3    H255056   4.672   5.407  13.324 -0.9776 -1.2220 -1.0210
11189TIP3   OH255057   0.334   3.071  11.106  0.2881  0.4996 -1.0011
11189TIP3    H155058   0.292   3.020  11.037 -0.1957 -1.2775  0.5364
11189TIP3    H255059   0.263   3.126  11.141  0.0147 -0.1197 -0.5632
11190TIP3   OH255060   3.020   4.058  12.240  0.4815  0.0945  0.1619
11190TIP3    H155061   2.984   4.075  12.153 -1.1864 -1.7521  0.4324
11190TIP3    H255062   3.001   4.137  12.290  1.2500  1.0862 -1.0350
11191TIP3   OH255063   0.362   1.790  13.392  0.7098 -0.1464  0.0476
11191TIP3    H155064   0.396   1.781  13.481  1.4844  0.8748 -0.1330
11191TIP3    H255065   0.311   1.870  13.394  1.8112  0.6003 -0.7440
11192TIP3   OH255066   2.083   5.842   4.218 -0.0235  0.1685  0.1867
11192TIP3    H155067   2.038   5.921   4.246  1.7952  1.2396  0.2531
11192TIP3    H255068   2.088   5.850   4.123  0.1319  0.1200  0.1907
11193TIP3   OH255069   1.545   2.690  14.156 -0.1717  0.0401  0.1600
11193TIP3    H155070   1.488   2.750  14.108  1.4069 -0.1855 -2.1831
11193TIP3    H255071   1.487   2.647  14.219 -2.3139  0.6742 -1.2607
11194TIP3   OH255072   4.830   4.700   2.790  0.3636 -0.2636 -0.0026
11194TIP3    H155073   4.855   4.641   2.861  1.0205 -1.0174 -0.8344
11194TIP3    H255074   4.734   4.701   2.792  0.3050 -2.0285 -0.4799
11195TIP3   OH255075   5.366   4.715  16.954 -0.1209 -0.0334 -0.0621
11195TIP3    H155076   5.384   4.638  16.899  0.9755  1.2432 -1.5807
11195TIP3    H255077   5.285   4.750  16.918 -1.6910 -1.4649  1.8534
11196TIP3   OH255078   5.651   6.035  17.630  0.2287 -0.3346 -0.2582
11196TIP3    H155079   5.653   6.009  17.722 -0.8376 -0.5632 -0.2815
11196TIP3    H255080   5.672   5.955  17.582 -1.3528 -0.7859 -0.2677
11197TIP3   OH255081   1.572   5.476   3.627  0.6945 -0.0833  0.1348
11197TIP3    H155082   1.528   5.560   3.639  2.2234  0.7438  0.1992
11197TIP3    H255083   1.554   5.452   3.536  1.4182  1.0261 -0.3169
11198TIP3   OH255084   6.366   4.720   3.738 -0.2745  0.1870  0.8792
11198TIP3    H155085   6.444   4.715   3.684 -1.4282  1.7787 -1.1017
11198TIP3    H255086   6.382   4.794   3.797  0.1759 -0.2597  1.3241
11199TIP3   OH255087   1.816   5.719  15.508  0.4131 -0.0535  0.6912
11199TIP3    H155088   1.811   5.625  15.523  2.2782 -0.3640 -0.2877
11199TIP3    H255089   1.771   5.758  15.583 -1.5498 -1.7097  0.4618
11200TIP3   OH255090   1.080   4.650   1.427 -0.5620 -0.2309 -0.2883
11200TIP3    H155091   1.013   4.669   1.361  0.7981 -0.4523 -1.7976
11200TIP3    H255092   1.106   4.736   1.461  1.2172  0.2730 -2.6603
11201TIP3   OH255093   4.641   4.089   1.521  0.4257 -0.0832 -0.1898
11201TIP3    H155094   4.719   4.086   1.464 -0.1217  1.7668 -1.1228
11201TIP3    H255095   4.594   4.167   1.493 -2.5381 -1.8636 -0.6338
11202TIP3   OH255096   4.839   3.537  15.240  0.3367  0.0777 -0.3163
11202TIP3    H155097   4.825   3.535  15.335  0.4464 -0.7946 -0.3073
11202TIP3    H255098   4.772   3.596  15.207 -0.0969 -0.0941  0.2424
11203TIP3   OH255099   2.586   0.452   0.841 -0.2155 -0.1512  0.0087
11203TIP3    H155100   2.562   0.544   0.850  1.0543  0.1058  1.0832
11203TIP3    H255101   2.549   0.410   0.919 -0.1689 -0.4132 -0.1084
11204TIP3   OH255102   3.405   4.910  13.543 -0.7112  0.2711  0.1435
11204TIP3    H155103   3.484   4.858  13.557 -1.8185 -1.8690 -1.1074
11204TIP3    H255104   3.352   4.896  13.622 -0.4393  0.6385  0.3980
11205TIP3   OH255105   1.287   4.419   2.470 -0.4856  0.1211 -0.2581
11205TIP3    H155106   1.316   4.350   2.409  1.3568  0.8520 -0.2780
11205TIP3    H255107   1.204   4.386   2.506 -0.7519 -1.1095 -1.8678
11206TIP3   OH255108   0.632   4.666   6.119 -0.0485 -0.0903  0.0094
11206TIP3    H155109   0.662   4.588   6.074 -1.7075 -1.6250  1.4110
11206TIP3    H255110   0.654   4.651   6.211 -1.9435  0.2414  0.5640
11207TIP3   OH255111   0.417   1.196  12.785  0.0384  0.0951  0.3647
11207TIP3    H155112   0.453   1.252  12.855  0.5094  0.4481 -0.1525
11207TIP3    H255113   0.441   1.107  12.811 -4.0189 -0.4382  3.2680
11208TIP3   OH255114   6.396   0.142   1.612 -0.2998 -0.7736 -0.1013
11208TIP3    H155115   6.406   0.227   1.654 -0.4167 -0.0123 -1.5776
11208TIP3    H255116   6.409   0.079   1.683  0.4336  0.4487  0.8802
11209TIP3   OH255117   4.618   1.391  14.478 -0.2847  0.5223 -0.4222
11209TIP3    H155118   4.654   1.401  14.389 -1.1726 -1.6822 -1.0900
11209TIP3    H255119   4.679   1.333  14.523 -0.7979  0.1373 -0.2103
11210TIP3   OH255120   0.929   3.691  13.457  0.0925 -0.5504  0.3339
11210TIP3    H155121   0.980   3.769  13.433  1.1282 -1.0134  0.9385
11210TIP3    H255122   0.945   3.630  13.385  0.6836 -0.8123  0.6748
11211TIP3   OH255123   5.300   5.919   3.090 -0.0459  0.1580 -0.6659
11211TIP3    H155124   5.249   5.995   3.064 -1.4324 -0.3272  0.4660
11211TIP3    H255125   5.235   5.851   3.108  1.1586 -1.7090 -2.7152
11212TIP3   OH255126   5.559   1.765   0.403  0.5712 -0.7867 -0.5124
11212TIP3    H155127   5.561   1.673   0.377  2.2487 -1.1807  0.8216
11212TIP3    H255128   5.568   1.813   0.321 -0.3149 -1.7954 -1.2281
11213TIP3   OH255129   5.675   1.988   4.495 -0.7581 -0.7554  0.2804
11213TIP3    H155130   5.661   1.917   4.432 -1.4579  0.0090 -0.4643
11213TIP3    H255131   5.680   2.067   4.440  2.5511 -0.4547  0.8258
11214TIP3   OH255132   1.629   2.673   0.817 -0.1581 -0.3314 -0.0840
11214TIP3    H155133   1.674   2.607   0.869  0.4567 -1.1111 -1.5538
11214TIP3    H255134   1.603   2.628   0.737 -1.7019  0.6505 -0.1855
11215TIP3   OH255135   0.032   0.451  12.968 -0.0364 -0.4348  0.2735
11215TIP3    H155136   0.114   0.420  12.930 -0.7595 -1.8065 -0.2395
11215TIP3    H255137  -0.004   0.374  13.012 -1.4747 -0.0793 -0.2593
11216TIP3   OH255138   0.056   0.050  17.328  0.6667 -0.0403  0.0137
11216TIP3    H155139   0.123   0.094  17.278  1.2972 -1.9136 -0.8881
11216TIP3    H255140   0.007  -0.002  17.264 -0.9998  0.4840  0.7937
11217TIP3   OH255141   3.519   0.751  11.704  0.1001 -0.1188 -0.1202
11217TIP3    H155142   3.509   0.689  11.776 -0.5699 -0.1491 -0.2275
11217TIP3    H255143   3.579   0.708  11.643  1.3283  0.2546  0.7819
11218TIP3   OH255144   5.169   5.596  14.274  0.4463 -0.2434  0.0677
11218TIP3    H155145   5.076   5.585  14.258  0.4438 -1.6223  0.9265
11218TIP3    H255146   5.198   5.513  14.311  2.3287 -0.3680 -1.5058
11219TIP3   OH255147   4.688   1.295   4.988 -0.3895  0.5466  0.6622
11219TIP3    H155148   4.625   1.303   5.060 -0.6532  1.4714  0.3475
11219TIP3    H255149   4.762   1.350   5.014 -1.0664  2.0127 -0.3461
11220TIP3   OH255150   1.643   5.965  16.477 -0.0860 -0.1609  0.0376
11220TIP3    H155151   1.604   5.925  16.554 -1.1427 -2.5458 -1.6232
11220TIP3    H255152   1.622   6.058  16.485 -0.4801 -0.3898  2.3901
11221TIP3   OH255153   5.191   4.091  12.496 -0.3743 -0.1907  0.2309
11221TIP3    H155154   5.196   4.044  12.579 -1.4392 -1.0977 -0.1987
11221TIP3    H255155   5.152   4.175  12.519  1.5819  0.5793  1.0102
11222TIP3   OH255156   1.660   0.463  16.657 -0.5890  0.0528 -0.3169
11222TIP3    H155157   1.689   0.492  16.743 -0.8388  0.9610 -0.5281
11222TIP3    H255158   1.623   0.541  16.616 -0.2274 -0.3001 -1.3514
11223TIP3   OH255159   1.793   1.124   1.518 -0.2723  0.3293  0.1328
11223TIP3    H155160   1.869   1.140   1.462  0.5125  0.8327  1.3024
11223TIP3    H255161   1.778   1.207   1.564 -0.9183 -0.0572  0.6486
11224TIP3   OH255162   3.542   0.885   2.114  0.4428 -0.4767  0.0859
11224TIP3    H155163   3.584   0.819   2.058  0.4890  0.4642 -1.0243
11224TIP3    H255164   3.588   0.967   2.093 -0.2765  0.0969  0.7137
11225TIP3   OH255165   5.718   5.348  10.663  0.9034  0.1897 -0.4229
11225TIP3    H155166   5.682   5.422  10.614  2.2201  1.4633  0.4415
11225TIP3    H255167   5.644   5.289  10.677 -1.4510  3.4775  2.8733
11226TIP3   OH255168   3.266   4.183   5.445  0.3811  0.3956  0.2472
11226TIP3    H155169   3.265   4.146   5.534  2.4996  0.5580  0.3907
11226TIP3    H255170   3.182   4.229   5.437 -1.4196 -2.4890  0.8791
11227TIP3   OH255171   2.290   6.331   1.973 -0.0422 -0.1860  0.1000
11227TIP3    H155172   2.303   6.237   1.976  0.8897 -0.0449  1.0642
11227TIP3    H255173   2.318   6.362   2.059 -0.7323  0.9291 -0.0489
11228TIP3   OH255174   5.915   4.799  17.304  0.2847  0.0974  0.0307
11228TIP3    H155175   5.869   4.864  17.250  0.9924 -0.5039 -1.3414
11228TIP3    H255176   6.007   4.827  17.302  0.4476 -0.4155  0.2235
11229TIP3   OH255177   5.461   6.004  17.272  0.6209 -0.0727  0.2906
11229TIP3    H155178   5.518   6.061  17.220  0.0533 -0.9145 -1.3267
11229TIP3    H255179   5.372   6.031  17.247  0.3158 -0.1348  1.2583
11230TIP3   OH255180   1.098   0.540   0.644  0.2558  0.2210  0.0138
11230TIP3    H155181   1.122   0.448   0.638 -0.4140 -0.0302  0.9612
11230TIP3    H255182   1.002   0.540   0.642  0.2516  0.8958  0.0472
11231TIP3   OH255183   6.177   5.475  12.559 -0.0705  0.2205  0.0642
11231TIP3    H155184   6.131   5.558  12.550  0.4148  0.3842 -1.1692
11231TIP3    H255185   6.216   5.477  12.646 -1.5973  0.4766  0.7593
11232TIP3   OH255186   2.954   6.457  16.456 -0.2198  0.3542 -0.1058
11232TIP3    H155187   2.908   6.377  16.432  0.7459 -0.5638  0.9791
11232TIP3    H255188   3.040   6.428  16.485 -0.1695  1.6991  1.2344
11233TIP3   OH255189   5.016   2.325   1.607 -0.1201  0.4913 -0.1850
11233TIP3    H155190   4.990   2.254   1.547  0.6591  1.8097 -2.1856
11233TIP3    H255191   5.110   2.334   1.593  0.3315  0.0195  2.2300
11234TIP3   OH255192   2.891   1.537  11.767 -0.1093  0.4040  0.6341
11234TIP3    H155193   2.853   1.497  11.689  5.1652 -0.1023 -2.1000
11234TIP3    H255194   2.876   1.631  11.756 -1.2331  0.1901  0.2055
11235TIP3   OH255195   1.111   5.836  13.587  0.1539 -0.1768  0.2043
11235TIP3    H155196   1.037   5.785  13.556  0.8250  0.0016 -1.8265
11235TIP3    H255197   1.080   5.927  13.585 -1.0366 -0.3399  3.8061
11236TIP3   OH255198   3.069   6.546   1.966  0.0545  0.9709 -0.0619
11236TIP3    H155199   3.095   6.636   1.946  1.6866 -0.0814 -3.3910
11236TIP3    H255200   3.146   6.510   2.012 -0.3010  1.0210  0.5895
11237TIP3   OH255201   1.877   0.931   3.729 -0.3390 -0.6437 -0.0007
11237TIP3    H155202   1.934   0.999   3.695 -0.7714  0.3456  1.1585
11237TIP3    H255203   1.901   0.852   3.681  0.7043  0.1567 -0.8298
11238TIP3   OH255204   0.261   5.302   5.057 -0.3972 -0.6197  0.0688
11238TIP3    H155205   0.327   5.312   5.126 -1.2295  1.1905  0.6638
11238TIP3    H255206   0.293   5.355   4.985 -0.6203 -0.7026 -0.0918
11239TIP3   OH255207   0.487   1.543  10.734  0.4390 -0.0236  0.6131
11239TIP3    H155208   0.484   1.462  10.684 -2.5835 -0.4895  1.3004
11239TIP3    H255209   0.561   1.591  10.699  1.9427 -2.7846 -0.2532
11240TIP3   OH255210   3.820   4.303   4.069 -0.1360  0.4911 -0.4720
11240TIP3    H155211   3.772   4.365   4.015 -0.7260 -0.0273 -0.5574
11240TIP3    H255212   3.756   4.273   4.134  0.3311  0.4781 -0.0140
11241TIP3   OH255213   6.189   4.125   4.210 -0.2738  0.2382  0.2785
11241TIP3    H155214   6.179   4.031   4.217 -3.8598  0.3453 -1.2478
11241TIP3    H255215   6.239   4.139   4.130  0.2101 -0.3611  0.4765
11242TIP3   OH255216   4.236   4.623  13.412  0.0266  0.0192 -0.7001
11242TIP3    H155217   4.163   4.637  13.351 -0.3785  0.7406 -0.0630
11242TIP3    H255218   4.314   4.634  13.358 -0.2932  2.2204 -0.8312
11243TIP3   OH255219   4.490   2.040  14.770  0.2178 -0.2629 -0.2200
11243TIP3    H155220   4.417   2.067  14.715  0.4553  1.2144  0.1393
11243TIP3    H255221   4.563   2.095  14.742  0.2150  0.9234  1.8542
11244TIP3   OH255222   3.096   5.678   3.722 -0.2611 -0.1553 -0.0595
11244TIP3    H155223   3.097   5.661   3.627 -3.2701  0.5837 -0.3225
11244TIP3    H255224   3.056   5.599   3.759 -0.9173  0.3689  0.3533
11245TIP3   OH255225   2.101   3.190  14.129 -0.4002 -0.1332 -0.2063
11245TIP3    H155226   2.132   3.209  14.040  0.0397 -0.2705 -0.0849
11245TIP3    H255227   2.086   3.095  14.129 -1.9845  0.0900 -0.6222
11246TIP3   OH255228   0.650   1.649   3.657 -0.5024 -0.5451 -0.0063
11246TIP3    H155229   0.664   1.555   3.665  1.1374 -0.2129  2.0243
11246TIP3    H255230   0.578   1.668   3.717 -0.7180 -0.4982 -0.2817
11247TIP3   OH255231   3.434   6.022  13.640  0.1303 -0.3932 -0.4323
11247TIP3    H155232   3.484   6.064  13.571  1.0415  1.0815  1.0532
11247TIP3    H255233   3.481   6.043  13.720 -1.6648 -0.8230  0.8050
11248TIP3   OH255234   6.408   4.698  12.206 -0.6048 -0.1760  0.4652
11248TIP3    H155235   6.403   4.791  12.230 -2.0165 -0.5338  1.7339
11248TIP3    H255236   6.352   4.691  12.129 -0.7714 -0.0317  0.5715
11249TIP3   OH255237   0.225   5.431  13.935 -0.6532  0.0788 -0.5807
11249TIP3    H155238   0.223   5.459  14.027 -1.5490  0.9448 -0.8495
11249TIP3    H255239   0.228   5.335  13.939  2.7496  0.1238  0.3698
11250TIP3   OH255240   0.663   6.458   4.562 -0.1119  0.4497 -0.2697
11250TIP3    H155241   0.629   6.424   4.479 -1.5609 -0.4263  0.6217
11250TIP3    H255242   0.714   6.385   4.597  0.7353  0.9211 -0.5106
11251TIP3   OH255243   1.565   2.444   0.633  0.1834  0.4102  0.1782
11251TIP3    H155244   1.661   2.446   0.627  0.1588  1.8458 -0.0602
11251TIP3    H255245   1.535   2.455   0.543 -0.2222 -0.6497  0.1704
11252TIP3   OH255246   0.533   3.057  14.440 -0.1531 -0.0975  0.3156
11252TIP3    H155247   0.626   3.068  14.458  0.4148 -2.0855 -1.0684
11252TIP3    H255248   0.522   2.964  14.420 -2.1063  0.3700 -1.2548
11253TIP3   OH255249   3.493   5.461  16.254 -0.4299 -0.3199  0.3346
11253TIP3    H155250   3.453   5.546  16.274  1.0249  0.1839  1.2599
11253TIP3    H255251   3.587   5.478  16.258 -0.1226 -1.8230 -0.1958
11254TIP3   OH255252   3.058   0.272   2.779  0.1289 -0.3229  0.2080
11254TIP3    H155253   3.083   0.238   2.693  1.5267  0.6831  0.1745
11254TIP3    H255254   3.096   0.210   2.841  1.6749  0.5071  0.1288
11255TIP3   OH255255   2.523   4.376   6.194 -0.2304  0.3138 -0.4244
11255TIP3    H155256   2.477   4.292   6.198 -0.2692  0.3534  0.0651
11255TIP3    H255257   2.458   4.438   6.161 -0.5027  0.3471  0.1593
11256TIP3   OH255258   1.005   0.325   4.107  0.1949 -0.0106  0.4493
11256TIP3    H155259   0.946   0.391   4.070 -0.4859  0.3417  2.0515
11256TIP3    H255260   1.016   0.260   4.037 -1.9601  0.0112  0.0197
11257TIP3   OH255261   4.401   3.510   2.342 -0.4525  0.2241 -0.0638
11257TIP3    H155262   4.450   3.466   2.272 -0.8049  2.2583 -1.6950
11257TIP3    H255263   4.422   3.460   2.421  2.7022 -0.1848 -0.9921
11258TIP3   OH255264   0.845   5.094  11.162 -0.1815 -0.2178  0.0155
11258TIP3    H155265   0.769   5.113  11.107  1.0681  0.5078 -1.5400
11258TIP3    H255266   0.871   5.005  11.137  1.1813  0.5872 -1.6396
11259TIP3   OH255267   6.357   1.490  12.703 -0.5670 -1.2068 -0.4493
11259TIP3    H155268   6.431   1.429  12.696 -0.6915 -1.2595 -1.4297
11259TIP3    H255269   6.360   1.521  12.794  1.5072 -0.1394 -0.8174
11260TIP3   OH255270   1.846   2.259   0.842  0.3106  0.4295  0.5907
11260TIP3    H155271   1.940   2.237   0.843  0.6778  1.8624 -0.2732
11260TIP3    H255272   1.819   2.246   0.751 -0.4128 -0.2027  0.8808
11261TIP3   OH255273   1.407   4.167  11.612 -0.2302  0.2032  0.1417
11261TIP3    H155274   1.482   4.193  11.558  1.2108 -1.2530  1.3316
11261TIP3    H255275   1.416   4.073  11.622 -1.8875  0.0854  0.8609
11262TIP3   OH255276   4.374   1.253  12.116 -0.1395 -0.1253  0.0151
11262TIP3    H155277   4.353   1.233  12.207 -2.9377 -1.4450 -0.8127
11262TIP3    H255278   4.437   1.185  12.091  0.0433 -0.2308  0.7313
11263TIP3   OH255279   6.115   4.094  14.023 -0.6378 -0.2320  0.4757
11263TIP3    H155280   6.083   4.028  13.961 -0.4918 -2.5512  2.6897
11263TIP3    H255281   6.194   4.054  14.060 -0.7280  1.0582  2.1346
11264TIP3   OH255282   6.087   5.619  15.327  0.1444 -0.3440 -0.5508
11264TIP3    H155283   6.033   5.575  15.262  1.5796 -1.4322 -1.0781
11264TIP3    H255284   6.170   5.637  15.281  0.4524  0.7608  0.3739
11265TIP3   OH255285   1.094   4.940  17.005  0.2956 -0.6339 -0.2372
11265TIP3    H155286   1.103   4.925  16.911 -1.1315 -2.4505 -0.1599
11265TIP3    H255287   1.150   4.874  17.045  0.3301 -0.3515  0.1874
11266TIP3   OH255288   6.263   6.232   0.176  0.7718  0.1698  0.6282
11266TIP3    H155289   6.212   6.306   0.210 -0.8136 -0.3894 -0.4180
11266TIP3    H255290   6.230   6.220   0.087 -0.4253 -3.0060  1.3640
11267TIP3   OH255291   1.363   2.601   2.909 -0.2042 -0.2693  0.2514
11267TIP3    H155292   1.278   2.557   2.906 -0.3818 -0.0174  1.1972
11267TIP3    H255293   1.412   2.554   2.976 -0.1935  0.5916  0.8662
11268TIP3   OH255294   6.134   0.992   4.163 -0.5752  0.7370 -0.6245
11268TIP3    H155295   6.210   0.992   4.221  0.7188  1.5783 -2.2404
11268TIP3    H255296   6.067   0.945   4.212  0.7996  0.4289  1.0743
11269TIP3   OH255297   2.847   2.507   0.316  0.0535  0.0321  0.0577
11269TIP3    H155298   2.762   2.512   0.273 -0.4706 -0.6371  0.9785
11269TIP3    H255299   2.826   2.487   0.407  1.1000  1.8294  0.7492
11270TIP3   OH255300   0.471   3.791  17.243  0.2555  0.9081 -0.6450
11270TIP3    H155301   0.411   3.844  17.295 -1.2284 -1.6692  0.4832
11270TIP3    H255302   0.526   3.747  17.307  0.7484  0.2969 -1.4611
11271TIP3   OH255303   4.230   1.582   1.707 -0.5208 -0.2752 -0.0225
11271TIP3    H155304   4.301   1.640   1.678 -1.4820  1.6248  1.2375
11271TIP3    H255305   4.184   1.559   1.627 -0.1428  0.7580 -0.5522
11272TIP3   OH255306   0.078   5.460   4.842 -0.0331 -0.0156 -0.0880
11272TIP3    H155307   0.088   5.410   4.762  2.7722  0.5401 -0.1957
11272TIP3    H255308   0.038   5.399   4.904 -0.5960 -1.0006 -1.3892
11273TIP3   OH255309   3.193   1.725   5.305 -0.2105 -0.6228  0.7729
11273TIP3    H155310   3.277   1.682   5.322 -0.8843 -1.6403  1.6154
11273TIP3    H255311   3.140   1.659   5.260 -0.7977 -0.2179  0.8596
11274TIP3   OH255312   0.749   0.946  16.529 -0.7412 -0.4437  0.0421
11274TIP3    H155313   0.764   0.875  16.467 -0.9970  0.7791 -1.4765
11274TIP3    H255314   0.686   0.911  16.592 -2.5799 -0.8761 -1.9418
11275TIP3   OH255315   0.081   5.911   0.128  0.1150 -0.2580 -0.3497
11275TIP3    H155316   0.122   5.829   0.101 -1.3553 -0.5898 -1.7785
11275TIP3    H255317   0.008   5.884   0.184  0.5766  0.1829  0.4776
11276TIP3   OH255318   4.160   5.467   3.538  0.3966  0.2377 -0.4382
11276TIP3    H155319   4.231   5.516   3.497  1.8026 -0.5677  0.9241
11276TIP3    H255320   4.201   5.420   3.610 -1.4659 -0.5550  0.1878
11277TIP3   OH255321   1.070   3.687   0.924 -0.9376  0.5862  0.6150
11277TIP3    H155322   1.018   3.748   0.872 -1.4584 -0.1935  0.1876
11277TIP3    H255323   1.115   3.632   0.860  0.5537  1.3358  0.9787
11278TIP3   OH255324   3.268   2.141   4.664  0.2768  0.5320  0.2380
11278TIP3    H155325   3.174   2.156   4.666 -0.1935 -2.0475  1.4210
11278TIP3    H255326   3.297   2.152   4.754 -0.0267 -4.1241  1.1356
11279TIP3   OH255327   4.036   5.029  16.875  0.5445  0.0999 -0.2258
11279TIP3    H155328   4.112   5.029  16.817 -0.6451  0.3131 -1.8666
11279TIP3    H255329   4.070   5.003  16.960  2.2655 -0.8555 -1.1618
11280TIP3   OH255330   4.881   5.189   6.112  0.4247 -0.0000 -0.1959
11280TIP3    H155331   4.924   5.218   6.193 -0.3156 -1.1159  0.6126
11280TIP3    H255332   4.833   5.110   6.136 -1.1335  0.5423 -1.3555
11281TIP3   OH255333   6.118   4.894   5.402 -0.3289 -0.4142  0.2992
11281TIP3    H155334   6.151   4.804   5.406 -0.0927 -0.3727 -0.5072
11281TIP3    H255335   6.190   4.945   5.366 -0.9005 -0.1291 -0.4689
11282TIP3   OH255336   1.846   2.286  12.789  0.1472  0.1681  0.6997
11282TIP3    H155337   1.823   2.193  12.801 -1.7023  0.3389 -0.9705
11282TIP3    H255338   1.942   2.287  12.790  0.2493 -1.9421 -0.2138
11283TIP3   OH255339   5.147   5.604  15.176  0.2135  0.7782 -0.3164
11283TIP3    H155340   5.081   5.654  15.127 -2.3946  1.6228  3.5603
11283TIP3    H255341   5.152   5.520  15.130 -1.1862  1.8424 -2.5874
11284TIP3   OH255342   3.944   5.630  17.025  0.5306  0.1000 -0.4503
11284TIP3    H155343   3.867   5.657  17.075 -0.2010 -2.1896 -0.2493
11284TIP3    H255344   4.018   5.649  17.083 -0.2358 -1.6475  1.2044
11285TIP3   OH255345   3.615   0.713  17.675 -0.7166 -0.3053  0.6038
11285TIP3    H155346   3.527   0.693  17.705 -0.1964 -1.3453  1.5313
11285TIP3    H255347   3.635   0.644  17.612 -1.0001  0.6357 -0.5523
11286TIP3   OH255348   6.042   1.039  13.868 -0.5456  0.1905  0.1610
11286TIP3    H155349   6.108   1.065  13.933 -0.3543  1.4159 -0.4899
11286TIP3    H255350   6.081   0.966  13.821  0.3760  0.9078 -0.2162
11287TIP3   OH255351   6.186   2.285   2.088 -0.0398 -0.8748 -0.2451
11287TIP3    H155352   6.184   2.290   2.184  0.4300 -1.8768 -0.1820
11287TIP3    H255353   6.183   2.377   2.060 -2.2820 -0.5938  0.6708
11288TIP3   OH255354   5.309   3.813  15.981  0.3005 -0.3551 -0.2714
11288TIP3    H155355   5.363   3.750  16.030  0.4377 -0.3310 -0.3904
11288TIP3    H255356   5.370   3.854  15.921 -0.3125 -2.2422 -2.3352
11289TIP3   OH255357   4.147   1.302  17.002  0.2916  0.7528  0.3911
11289TIP3    H155358   4.072   1.306  16.943  0.4313  1.3179  0.2471
11289TIP3    H255359   4.190   1.219  16.981 -1.4315 -0.5912  1.8943
11290TIP3   OH255360   0.934   5.431  16.076  0.1433 -0.3870  0.7680
11290TIP3    H155361   0.870   5.364  16.054  2.5494 -2.2395 -1.1734
11290TIP3    H255362   0.982   5.396  16.152  1.3984 -0.9157 -0.2393
11291TIP3   OH255363   3.466   3.943   1.993  0.5042  0.1593  0.5864
11291TIP3    H155364   3.480   3.937   1.898 -2.0351 -0.2144  0.1451
11291TIP3    H255365   3.527   3.880   2.030  0.9756 -0.3072 -0.8933
11292TIP3   OH255366   1.490   5.373   3.389 -0.1239 -0.1788  0.0814
11292TIP3    H155367   1.448   5.287   3.379 -0.9192  0.1759  0.3118
11292TIP3    H255368   1.441   5.431   3.331  0.0363  0.2488  0.3689
11293TIP3   OH255369   0.491   2.803  15.572  0.1772  0.4344  0.5057
11293TIP3    H155370   0.473   2.874  15.633  1.5257  0.6590  0.6697
11293TIP3    H255371   0.425   2.737  15.592 -0.8763  1.4733  0.5935
11294TIP3   OH255372   0.150   1.612  13.311  0.0719 -0.0045 -0.0533
11294TIP3    H155373   0.236   1.650  13.330  0.3263 -1.2750  1.6916
11294TIP3    H255374   0.091   1.687  13.304  0.9121  0.8046  1.1537
11295TIP3   OH255375   1.359   0.618  16.463 -0.3506 -0.4405  0.7736
11295TIP3    H155376   1.325   0.565  16.535  3.4591 -2.1522  1.5734
11295TIP3    H255377   1.367   0.556  16.390 -0.9176  0.4384 -0.0507
11296TIP3   OH255378   6.336   4.093  14.316  0.0178  0.2561 -0.1269
11296TIP3    H155379   6.313   4.175  14.360 -0.5759 -0.1972  0.4257
11296TIP3    H255380   6.426   4.106  14.286 -0.4132  1.4982 -0.9495
11297TIP3   OH255381   1.369   2.623   3.208 -0.2013 -0.8327  0.0384
11297TIP3    H155382   1.288   2.674   3.201  0.2667  0.0884  1.0804
11297TIP3    H255383   1.368   2.589   3.297  1.0782  0.0968  0.4240
11298TIP3   OH255384   5.634   4.555   4.448 -0.1926  0.3264 -0.1760
11298TIP3    H155385   5.595   4.502   4.379  0.1082 -0.4591  0.2514
11298TIP3    H255386   5.586   4.638   4.443 -1.9335 -0.5858  0.3128
11299TIP3   OH255387   2.024   4.604  14.213  0.3376 -0.3975  0.4139
11299TIP3    H155388   1.939   4.609  14.170  0.3556 -0.7075  0.3411
11299TIP3    H255389   2.013   4.538  14.282 -0.0329  0.9281  1.6619
11300TIP3   OH255390   1.862   5.864   4.447  0.3853 -0.5814 -0.7231
11300TIP3    H155391   1.875   5.782   4.399 -0.3150 -0.4762 -1.1035
11300TIP3    H255392   1.910   5.930   4.396 -0.4003 -0.4595 -1.3319
11301TIP3   OH255393   6.263   2.646   3.197 -0.4677 -0.1061 -0.0072
11301TIP3    H155394   6.290   2.721   3.143 -1.6135  1.0852  0.9966
11301TIP3    H255395   6.345   2.607   3.226  0.2583  2.0726  1.1594
11302TIP3   OH255396   1.886   0.307   4.874  0.6727 -0.1872  0.1272
11302TIP3    H155397   1.837   0.225   4.883  0.4467 -0.1580 -0.8027
11302TIP3    H255398   1.840   0.355   4.806  2.1444 -0.2706 -0.9582
11303TIP3   OH255399   4.597   3.920  12.123 -0.4468 -0.2866  0.8660
11303TIP3    H155400   4.574   4.013  12.122 -1.1854 -0.3954  2.8689
11303TIP3    H255401   4.685   3.917  12.085 -0.0867  1.3488  1.4593
11304TIP3   OH255402   4.813   1.527   0.087 -0.3257  0.0840 -0.1127
11304TIP3    H155403   4.901   1.499   0.113 -0.2636  0.1638 -0.2356
11304TIP3    H255404   4.790   1.465   0.017 -0.3982  0.0150 -0.0272
11305TIP3   OH255405   1.372   1.978  13.773  0.3085  0.5387 -0.1596
11305TIP3    H155406   1.312   2.036  13.821 -0.4532  1.4318 -2.0792
11305TIP3    H255407   1.442   2.036  13.742 -0.3765  0.4783 -1.9687
11306TIP3   OH255408   1.775   2.168  14.305 -0.1240  0.3143 -0.3398
11306TIP3    H155409   1.729   2.085  14.296 -0.2074  0.1399  1.2596
11306TIP3    H255410   1.815   2.163  14.392 -1.0158  2.3654  0.2526
11307TIP3   OH255411   4.901   4.520   4.493  0.2398 -0.3038  0.1210
11307TIP3    H155412   4.848   4.443   4.515  0.5591  0.0815  2.5236
11307TIP3    H255413   4.841   4.594   4.504  1.0661  0.1032  2.4654
11308TIP3   OH255414   0.097   1.120  17.332  0.0070 -0.3965  0.5269
11308TIP3    H155415   0.005   1.139  17.316 -0.0117 -1.4467 -0.7459
11308TIP3    H255416   0.125   1.188  17.393 -1.6415 -0.1561  1.0650
11309TIP3   OH255417   1.103   6.651   6.144  0.6250  0.3635 -0.3070
11309TIP3    H155418   1.077   6.585   6.208  1.5487  0.1412 -0.1431
11309TIP3    H255419   1.196   6.633   6.127  0.3733  0.3312 -1.8108
11310TIP3   OH255420   0.821   6.495   3.403  0.1582 -0.2245 -0.3297
11310TIP3    H155421   0.837   6.588   3.382  3.1183 -0.3990  0.5921
11310TIP3    H255422   0.733   6.494   3.440 -0.6831  1.8984 -2.0390
11311TIP3   OH255423   4.338   2.484  14.592 -0.2617  0.0598  0.4193
11311TIP3    H155424   4.401   2.419  14.560  0.6942 -0.0540  2.3909
11311TIP3    H255425   4.285   2.436  14.655 -0.6531  0.7846  0.6462
11312TIP3   OH255426   4.578   5.663  11.671 -0.1064 -0.2073 -0.0603
11312TIP3    H155427   4.638   5.735  11.691 -1.9429  1.2292  0.7223
11312TIP3    H255428   4.501   5.707  11.633 -0.5340 -1.9907 -1.3904
11313TIP3   OH255429   1.038   0.934  12.245  0.3388 -0.2351  0.1079
11313TIP3    H155430   1.112   0.918  12.186 -0.7348 -1.1344 -1.0588
11313TIP3    H255431   0.966   0.957  12.187 -0.2572  0.8427  1.2433
11314TIP3   OH255432   3.521   5.201  13.791 -0.3998 -0.3587 -0.2664
11314TIP3    H155433   3.503   5.251  13.711  0.6552 -0.1452 -0.3884
11314TIP3    H255434   3.532   5.267  13.859 -1.6601 -0.5559  0.1525
11315TIP3   OH255435   1.161   4.915   4.573 -0.2379  0.1794  0.9911
11315TIP3    H155436   1.158   4.858   4.496  3.8096  1.3332 -0.2902
11315TIP3    H255437   1.113   4.994   4.546 -0.4267 -0.1445  0.3590
11316TIP3   OH255438   0.849   1.392   3.461 -0.0566  0.3894 -0.0814
11316TIP3    H155439   0.811   1.313   3.424 -0.6634  0.5452  0.1935
11316TIP3    H255440   0.898   1.362   3.538  0.2385  0.2073 -0.3401
11317TIP3   OH255441   1.543   5.878   0.500  0.2994  0.1726  0.5231
11317TIP3    H155442   1.622   5.830   0.476 -1.2086 -2.3446  0.2804
11317TIP3    H255443   1.529   5.857   0.593 -0.1460  0.5067  0.5344
11318TIP3   OH255444   1.083   0.050  14.132 -0.1816 -0.2298  0.4497
11318TIP3    H155445   1.103   0.143  14.139  0.1361 -0.2074 -0.6060
11318TIP3    H255446   0.988   0.045  14.137 -0.2027  0.1513  0.4488
11319TIP3   OH255447   5.743   4.787   1.454  0.3458  0.3119 -0.5974
11319TIP3    H155448   5.824   4.778   1.504  0.6323 -0.7099 -1.2113
11319TIP3    H255449   5.674   4.766   1.517  0.2664  3.9396  0.7242
11320TIP3   OH255450   0.889   0.637  17.301 -0.0144  0.5215 -0.4237
11320TIP3    H155451   0.971   0.661  17.345 -0.8401  0.2769  1.3558
11320TIP3    H255452   0.844   0.581  17.364 -0.9833 -0.4289 -1.8980
11321TIP3   OH255453   1.451   4.398  12.614 -0.2670 -0.1305  0.6025
11321TIP3    H155454   1.533   4.351  12.627 -0.5388 -0.7569  0.1419
11321TIP3    H255455   1.408   4.396  12.699 -0.7550 -1.6769  0.3469
11322TIP3   OH255456   6.636   3.528   3.229 -0.7259  0.2567 -0.2599
11322TIP3    H155457   6.572   3.564   3.167  0.1370  0.7420 -0.8968
11322TIP3    H255458   6.610   3.437   3.240 -2.4066  0.8049  0.6572
11323TIP3   OH255459   4.432   2.761  12.555  0.4951 -0.6841 -0.3907
11323TIP3    H155460   4.477   2.811  12.624 -2.0877 -1.0804  1.7458
11323TIP3    H255461   4.460   2.802  12.474  0.6163  2.4819  1.0963
11324TIP3   OH255462   4.962   4.315   2.428  0.1332  0.0584 -0.0349
11324TIP3    H155463   4.959   4.220   2.415  0.2035  0.0956 -0.3273
11324TIP3    H255464   4.980   4.326   2.522  1.6452 -0.2430 -0.2574
11325TIP3   OH255465   2.287   2.624  14.514  0.1925  0.0444 -0.2154
11325TIP3    H155466   2.370   2.577  14.525 -1.8687 -3.7885  1.0859
11325TIP3    H255467   2.247   2.583  14.438 -1.8700 -0.7083  1.1879
11326TIP3   OH255468   6.242   3.791   6.455  0.2413 -0.4169  0.1989
11326TIP3    H155469   6.247   3.808   6.361  0.6932  0.1942  0.3268
11326TIP3    H255470   6.162   3.836   6.483  0.7806  0.4924  0.3197
11327TIP3   OH255471   3.823   1.547  17.155 -0.5556 -0.3132 -0.7567
11327TIP3    H155472   3.907   1.591  17.152 -0.5237 -0.3886 -1.0192
11327TIP3    H255473   3.759   1.617  17.167 -0.2755 -0.4439  2.3689
11328TIP3   OH255474   5.517   6.435  15.141  0.2258 -0.1387  0.0969
11328TIP3    H155475   5.431   6.444  15.181 -0.5786  0.2253 -1.6484
11328TIP3    H255476   5.545   6.347  15.165 -0.6466 -0.2885  0.6141
11329TIP3   OH255477   6.127   4.359  14.070 -0.0379  0.2785  0.0846
11329TIP3    H155478   6.106   4.266  14.056 -0.4209  0.4102 -0.2262
11329TIP3    H255479   6.218   4.367  14.041 -0.4637  0.3059 -1.2824
11330TIP3   OH255480   1.168   0.724  17.034 -0.3026 -0.5799 -0.4336
11330TIP3    H155481   1.241   0.689  17.085 -1.1188 -1.0871  0.4137
11330TIP3    H255482   1.150   0.809  17.074 -2.1496 -1.7546  1.4259
11331TIP3   OH255483   6.280   1.685   0.005  0.6405 -0.0130 -0.2534
11331TIP3    H155484   6.220   1.759   0.000 -0.5987 -1.0063 -0.5289
11331TIP3    H255485   6.249   1.624  -0.062  3.5024  0.5167 -2.2617
11332TIP3   OH255486   5.828   0.722  13.465  0.4034 -0.3504  0.3016
11332TIP3    H155487   5.872   0.708  13.549  1.2315  1.8276  0.2968
11332TIP3    H255488   5.848   0.644  13.414 -0.2426 -1.7878  2.1574
11333TIP3   OH255489   1.200   0.264   5.628  0.4277  0.1979 -0.2498
11333TIP3    H155490   1.211   0.330   5.696  2.3541  0.8262 -1.0920
11333TIP3    H255491   1.198   0.181   5.675 -0.0981  0.7353  0.6905
11334TIP3   OH255492   0.861   6.378   3.737  0.0001  0.3945  0.9687
11334TIP3    H155493   0.928   6.310   3.746 -0.0029  0.2164 -0.1173
11334TIP3    H255494   0.902   6.444   3.682 -0.9334 -0.0467 -0.3122
11335TIP3   OH255495   0.841   2.123  17.317  0.5694  0.2209 -0.5133
11335TIP3    H155496   0.804   2.211  17.309  1.5834  1.0113  2.2253
11335TIP3    H255497   0.768   2.070  17.350  0.4786  0.5447 -0.1845
11336TIP3   OH255498   5.133   1.067   5.908  0.5080 -0.3838  0.5627
11336TIP3    H155499   5.052   1.093   5.950  0.6439  1.6216 -0.2963
11336TIP3    H255500   5.178   1.014   5.973 -0.7115 -0.0763  1.6996
11337TIP3   OH255501   5.382   2.631  14.326 -0.0328 -0.1010 -0.1780
11337TIP3    H155502   5.294   2.661  14.302  0.7632  1.8576 -0.8517
11337TIP3    H255503   5.386   2.642  14.421  0.2564  2.2088 -0.3968
11338TIP3   OH255504   4.811   5.402   1.365 -0.7026 -0.4635 -0.2774
11338TIP3    H155505   4.729   5.411   1.316 -0.7323 -1.1225 -0.3587
11338TIP3    H255506   4.797   5.325   1.421  0.1300 -1.0409 -0.8422
11339TIP3   OH255507   1.452   2.292   1.420  0.3506 -0.1756 -0.0286
11339TIP3    H155508   1.423   2.364   1.476  0.7136 -0.2639  0.2772
11339TIP3    H255509   1.489   2.334   1.343  1.2722 -0.0070  0.4940
11340TIP3   OH255510   1.991   2.963  16.904 -0.3014  0.0589 -0.0728
11340TIP3    H155511   1.925   3.031  16.890 -0.0369  0.4461  0.5624
11340TIP3    H255512   2.027   2.946  16.816  0.1749  1.2927 -0.1288
11341TIP3   OH255513   6.293   0.598   4.018  0.6169 -0.0396 -0.5315
11341TIP3    H155514   6.276   0.687   3.986  0.8259  0.1866 -0.0097
11341TIP3    H255515   6.219   0.579   4.076  0.8251 -0.0194 -0.2585
11342TIP3   OH255516   3.260   0.433  15.430 -0.1254 -0.4105 -0.2887
11342TIP3    H155517   3.190   0.413  15.367 -0.9602  1.7141 -0.1252
11342TIP3    H255518   3.339   0.439  15.377 -0.5336 -0.2627 -0.8888
11343TIP3   OH255519   1.500   2.784  17.572 -0.1894  0.4029 -0.3246
11343TIP3    H155520   1.436   2.832  17.624 -0.9834 -1.8916  0.9871
11343TIP3    H255521   1.461   2.697  17.560  1.5269 -0.2268 -1.8097
11344TIP3   OH255522   0.096   0.730  11.677  0.2379 -0.4854 -0.1285
11344TIP3    H155523   0.022   0.752  11.620 -0.3112 -1.1219  0.3130
11344TIP3    H255524   0.147   0.811  11.683  0.2326 -0.3658 -1.3953
11345TIP3   OH255525   6.546   6.394   4.291 -0.2229 -0.0394 -0.1100
11345TIP3    H155526   6.547   6.325   4.357 -1.1199 -1.3619 -1.4183
11345TIP3    H255527   6.534   6.348   4.208  2.0328  1.4643 -1.3835
11346TIP3   OH255528   3.366   4.005  15.443 -0.3795 -0.5444  0.6068
11346TIP3    H155529   3.396   4.096  15.440  2.1810 -1.3079 -2.1056
11346TIP3    H255530   3.278   4.007  15.405  0.1505  0.6839 -0.6327
11347TIP3   OH255531   3.957   5.243   2.881  0.0086 -0.6453  0.0319
11347TIP3    H155532   4.033   5.190   2.856  0.2112 -0.8058  0.9499
11347TIP3    H255533   3.994   5.326   2.908 -0.1039 -0.8378  0.8033
11348TIP3   OH255534   1.084   2.794  13.503 -0.8007  0.2529 -0.3397
11348TIP3    H155535   1.026   2.782  13.428 -0.2805  0.7508 -0.8324
11348TIP3    H255536   1.046   2.739  13.572 -0.1902 -1.7722 -1.5405
11349TIP3   OH255537   1.891   1.090  17.504 -0.1220 -0.3846 -0.0096
11349TIP3    H155538   1.886   1.128  17.417 -0.9778 -0.4377  0.0123
11349TIP3    H255539   1.826   1.138  17.556  0.4101 -0.3197  0.6137
11350TIP3   OH255540   3.154   0.665  13.639 -0.6548 -0.1201 -0.1353
11350TIP3    H155541   3.147   0.734  13.705  2.0909  0.8177 -0.6575
11350TIP3    H255542   3.239   0.624  13.657 -1.7030 -2.6241 -0.5714
11351TIP3   OH255543   0.518   3.905   5.043  0.3309  0.0782  0.3419
11351TIP3    H155544   0.606   3.889   5.008  0.9235  0.9752  1.3783
11351TIP3    H255545   0.470   3.942   4.969  0.9936  0.1332 -0.0767
11352TIP3   OH255546   4.771   3.852   0.585 -0.6938  0.4072  0.1170
11352TIP3    H155547   4.862   3.838   0.557 -0.0279 -0.4772  2.4648
11352TIP3    H255548   4.731   3.900   0.513  1.8701  1.5766 -0.6443
11353TIP3   OH255549   1.000   4.802  12.983  0.0251 -0.8178  0.8716
11353TIP3    H155550   1.071   4.776  12.923 -1.9306  0.9734 -2.4745
11353TIP3    H255551   0.942   4.726  12.985  0.3162 -1.0444  0.8986
11354TIP3   OH255552   5.374   4.083  11.810 -0.3243  0.1563 -0.3513
11354TIP3    H155553   5.467   4.088  11.831 -1.0708  0.7282  3.7407
11354TIP3    H255554   5.360   3.991  11.788  1.4353  0.4321 -3.0348
11355TIP3   OH255555   3.641   1.056  13.873  0.0570  0.1843 -0.5380
11355TIP3    H155556   3.705   1.106  13.822  0.4378 -0.5233 -0.7669
11355TIP3    H255557   3.608   1.118  13.938  2.2282  0.1045  0.7085
11356TIP3   OH255558   4.621   5.644   5.751  0.4825  0.4748 -0.1362
11356TIP3    H155559   4.668   5.690   5.821 -0.0773  2.6781 -1.1435
11356TIP3    H255560   4.590   5.713   5.693 -0.8320 -1.1712 -1.4906
11357TIP3   OH255561   4.601   0.230  12.492 -0.1692  0.2005  0.0076
11357TIP3    H155562   4.630   0.152  12.540  0.1545 -0.4971 -1.2831
11357TIP3    H255563   4.659   0.299  12.522  1.4693 -0.6983 -0.9361
11358TIP3   OH255564   2.751   4.196   5.491 -0.2332  0.3653 -0.1433
11358TIP3    H155565   2.678   4.168   5.546 -0.2813  0.7579 -0.0022
11358TIP3    H255566   2.751   4.134   5.418 -0.3335 -0.0011  0.1608
11359TIP3   OH255567   0.968   0.704   3.389  0.1383 -0.0999 -0.0258
11359TIP3    H155568   1.001   0.635   3.446 -0.9749 -0.7701 -0.1716
11359TIP3    H255569   0.874   0.709   3.408 -0.3117 -0.5054 -1.9223
11360TIP3   OH255570   1.296   3.536  14.226  0.0055  0.4736 -0.4901
11360TIP3    H155571   1.328   3.493  14.147  0.5183  0.1736 -0.1232
11360TIP3    H255572   1.235   3.603  14.194  0.1474  0.2999 -1.1309
11361TIP3   OH255573   6.684   4.149  14.495 -0.0320 -0.1315  0.0248
11361TIP3    H155574   6.660   4.111  14.411 -1.6198 -0.3801  0.5612
11361TIP3    H255575   6.730   4.230  14.472 -0.0490 -0.4139 -1.0681
11362TIP3   OH255576   4.692   1.150  12.905  0.1361 -0.4210 -0.2773
11362TIP3    H155577   4.599   1.172  12.917 -0.3055 -1.3307 -1.7879
11362TIP3    H255578   4.732   1.171  12.989 -1.6701 -1.1510  0.8456
11363TIP3   OH255579   4.580   0.990  15.240  0.2541 -0.7666 -0.1542
11363TIP3    H155580   4.637   1.059  15.204 -0.6813 -0.9527 -2.1002
11363TIP3    H255581   4.530   1.034  15.308 -0.0377  0.4004 -1.0890
11364TIP3   OH255582   1.166   0.291   3.117 -0.3855 -0.5322 -0.1563
11364TIP3    H155583   1.261   0.302   3.114 -0.1999 -2.0974 -1.4969
11364TIP3    H255584   1.147   0.278   3.210  0.8795 -1.4084  0.0089
11365TIP3   OH255585   2.858   0.815  16.774 -0.4423 -0.7344  0.0219
11365TIP3    H155586   2.847   0.880  16.844 -0.6186  0.6022 -1.2011
11365TIP3    H255587   2.781   0.759  16.781 -0.4380 -0.6442  0.9187
11366TIP3   OH255588   4.697   2.686   4.570  0.7190 -0.1190 -0.3590
11366TIP3    H155589   4.603   2.672   4.577  0.6353  0.7049  0.2338
11366TIP3    H255590   4.717   2.752   4.636  1.5370  0.5568 -1.2543
11367TIP3   OH255591   1.964   3.893   0.310 -0.2502  0.2368  0.2243
11367TIP3    H155592   1.957   3.881   0.216 -0.2413  0.5900  0.1767
11367TIP3    H255593   2.006   3.814   0.342 -2.3461 -0.9546  0.2325
11368TIP3   OH255594   3.765   4.838  14.271 -0.0983 -0.7163  0.7643
11368TIP3    H155595   3.731   4.900  14.336  1.6550 -1.1930  2.2141
11368TIP3    H255596   3.828   4.889  14.221 -3.1609  0.3638 -2.3865
11369TIP3   OH255597   0.971   2.889   2.133 -0.0244 -0.3955 -0.3806
11369TIP3    H155598   0.967   2.795   2.152  0.4244 -0.3183  0.1322
11369TIP3    H255599   1.055   2.917   2.170 -0.5350  0.3773  0.2163
11370TIP3   OH255600   4.504   3.875   3.474  0.4479 -0.7094  0.2420
11370TIP3    H155601   4.509   3.894   3.380 -2.3339  0.3284  0.2245
11370TIP3    H255602   4.596   3.871   3.502  1.3526 -0.8184 -2.4456
11371TIP3   OH255603   1.686   2.216  15.216 -0.3247  0.2282 -0.0497
11371TIP3    H155604   1.762   2.164  15.188 -1.0343 -0.4423 -0.7777
11371TIP3    H255605   1.717   2.307  15.211  0.9988 -0.0874  1.4345
11372TIP3   OH255606   0.923   2.006   2.048  0.3439 -0.1330 -0.2715
11372TIP3    H155607   0.933   2.101   2.044  3.4655 -0.3896 -1.9393
11372TIP3    H255608   0.968   1.980   2.129 -1.4444 -0.1677  0.7516
11373TIP3   OH255609   1.228   1.217   3.211 -0.0332 -0.0346 -0.0220
11373TIP3    H155610   1.237   1.123   3.196  0.5357 -0.1045  0.6987
11373TIP3    H255611   1.140   1.238   3.178 -0.1297 -0.7955 -0.2733
11374TIP3   OH255612   2.032   3.584  17.654 -0.2518 -0.4961 -0.0248
11374TIP3    H155613   2.030   3.598  17.559 -2.0421 -0.9610 -0.0856
11374TIP3    H255614   2.001   3.495  17.666 -0.3066 -0.3488  1.0176
11375TIP3   OH255615   3.485   2.050  16.206 -0.0161 -0.0533 -0.2210
11375TIP3    H155616   3.452   2.115  16.269 -1.1203 -1.7281  1.0154
11375TIP3    H255617   3.580   2.056  16.214 -0.1042  1.1772  0.1050
11376TIP3   OH255618   4.927   1.012  16.290 -0.1364  0.1497  0.1896
11376TIP3    H155619   5.012   1.025  16.248  0.1899 -1.2542  0.3895
11376TIP3    H255620   4.945   0.957  16.366 -1.3141 -0.7662 -0.1676
11377TIP3   OH255621   1.260   0.715  14.844  0.0101 -0.3981 -0.1062
11377TIP3    H155622   1.199   0.695  14.772  1.6604 -0.5255 -1.5217
11377TIP3    H255623   1.238   0.650  14.911  0.3319 -2.2355 -1.6603
11378TIP3   OH255624   0.299   4.240   5.694  0.1545  0.5679  0.2924
11378TIP3    H155625   0.242   4.315   5.676 -0.6522  0.1099  0.8786
11378TIP3    H255626   0.365   4.244   5.625  0.6502  2.3221  0.8205
11379TIP3   OH255627   4.543   5.097   4.094  0.1609  0.7402  0.2842
11379TIP3    H155628   4.511   5.177   4.138  0.7125  1.1379 -0.0341
11379TIP3    H255629   4.636   5.092   4.118  0.1574  0.2496  0.2063
11380TIP3   OH255630   2.167   1.566  11.458  0.3334  0.0171  0.3847
11380TIP3    H155631   2.164   1.531  11.547  0.1157 -1.1802 -0.0764
11380TIP3    H255632   2.260   1.569  11.436  0.3142 -1.3849  0.0236
11381TIP3   OH255633   1.816   3.986  14.226  0.6411  0.7133 -0.7382
11381TIP3    H155634   1.764   3.915  14.264 -0.3916  0.9426 -1.6743
11381TIP3    H255635   1.876   3.942  14.166 -0.0681  0.6230 -1.3966
11382TIP3   OH255636   4.120   3.460  15.170 -0.1721 -0.3491  1.3298
11382TIP3    H155637   4.123   3.422  15.258 -3.8612  1.2494  2.3564
11382TIP3    H255638   4.041   3.514  15.170  1.2023  2.0421 -2.1033
11383TIP3   OH255639   0.916   5.519   6.744 -0.7662  0.1551  0.1623
11383TIP3    H155640   0.976   5.461   6.696 -0.5269  0.0114  0.6233
11383TIP3    H255641   0.922   5.603   6.697  2.8458  1.3862  2.3929
11384TIP3   OH255642   1.105   0.404   2.298 -0.0636 -1.0468 -0.1278
11384TIP3    H155643   1.151   0.485   2.274 -0.9979 -0.6911 -0.7614
11384TIP3    H255644   1.065   0.374   2.217 -1.1646 -1.2000  0.4551
11385TIP3   OH255645   5.266   2.482   0.159 -0.4552 -0.0048 -0.0450
11385TIP3    H155646   5.292   2.443   0.076 -4.2389  0.9668 -1.8500
11385TIP3    H255647   5.332   2.550   0.175  1.1555 -1.1515 -1.4269
11386TIP3   OH255648   5.191   5.957   5.724 -0.3364 -0.2479  0.2058
11386TIP3    H155649   5.256   5.887   5.731  0.1870  0.1326 -0.6896
11386TIP3    H255650   5.110   5.917   5.755  0.1845 -0.9067  0.7771
11387TIP3   OH255651   6.723   3.485  17.610 -0.5101  0.1895  0.1389
11387TIP3    H155652   6.807   3.520  17.580 -0.9311  0.7806 -0.3814
11387TIP3    H255653   6.746   3.422  17.678  0.3205  0.8256  0.4612
11388TIP3   OH255654   0.007   2.270  14.664  0.1191  0.1801 -0.1418
11388TIP3    H155655   0.036   2.185  14.630 -0.6276  0.1269 -0.6727
11388TIP3    H255656   0.035   2.333  14.597  3.1920  0.7656  1.5275
11389TIP3   OH255657   5.129   4.853  16.836  0.1071  0.3870 -0.1422
11389TIP3    H155658   5.093   4.845  16.748 -1.1552  1.3286  0.2600
11389TIP3    H255659   5.060   4.819  16.894  1.5169 -1.7100  0.4315
11390TIP3   OH255660   0.947   6.170   2.919 -0.2019  0.8147 -0.4345
11390TIP3    H155661   0.991   6.099   2.872 -0.2317  0.6788 -0.2578
11390TIP3    H255662   1.018   6.229   2.945  0.2363 -0.6440  2.0267
11391TIP3   OH255663   1.857   0.295   0.442  0.2634 -0.2881 -0.2704
11391TIP3    H155664   1.853   0.296   0.346  0.9724 -1.5716 -0.3337
11391TIP3    H255665   1.801   0.368   0.469 -1.0363 -0.7222 -1.6310
11392TIP3   OH255666   0.482   0.736  17.343 -0.5398 -0.3830 -0.0877
11392TIP3    H155667   0.456   0.822  17.374  0.7586  0.2936 -0.8128
11392TIP3    H255668   0.542   0.704  17.411 -0.3350 -0.3399 -0.2484
11393TIP3   OH255669   0.741   3.170  14.750  0.7519  0.1949  0.1456
11393TIP3    H155670   0.751   3.230  14.824 -0.6204  0.0979  0.4417
11393TIP3    H255671   0.745   3.226  14.672  0.5606  0.5303  0.3747
11394TIP3   OH255672   5.338   2.173  12.536  0.2327 -0.4336 -0.1431
11394TIP3    H155673   5.341   2.081  12.562  1.5778 -0.3464  0.0645
11394TIP3    H255674   5.423   2.190  12.496 -0.6045  0.2900 -1.7512
11395TIP3   OH255675   0.387   5.039   1.441 -0.5405 -0.2259  0.1974
11395TIP3    H155676   0.302   5.081   1.427 -0.2160  0.2446 -0.3809
11395TIP3    H255677   0.407   5.055   1.534 -0.9662 -0.1303  0.2734
11396TIP3   OH255678   1.297   1.988  12.725  0.0118  0.1327 -0.4513
11396TIP3    H155679   1.257   2.069  12.756 -0.8232 -0.8030  1.0112
11396TIP3    H255680   1.230   1.947  12.671 -0.2947 -0.4790  0.3730
11397TIP3   OH255681   3.814   1.248  13.797 -0.4611 -0.0989 -0.2561
11397TIP3    H155682   3.781   1.273  13.883 -0.1291  0.2046 -0.2127
11397TIP3    H255683   3.903   1.283  13.794 -0.4471 -0.1578 -0.6989
11398TIP3   OH255684   6.520   5.482   2.292 -0.0959  0.3133  0.1198
11398TIP3    H155685   6.452   5.443   2.238 -0.7329 -0.1022  1.1728
11398TIP3    H255686   6.576   5.529   2.231 -1.0220  0.2119 -0.8328
11399TIP3   OH255687   2.968   2.883  14.431  0.0452  0.1668  0.5439
11399TIP3    H155688   2.927   2.914  14.350  1.0958 -0.3886 -0.2339
11399TIP3    H255689   3.033   2.820  14.401  1.1634  0.7091  1.7640
11400TIP3   OH255690   2.585   4.205   0.423 -0.5450  0.2100  0.2154
11400TIP3    H155691   2.529   4.207   0.501 -1.4897 -2.2323 -0.2873
11400TIP3    H255692   2.527   4.227   0.351 -0.1824  0.4349 -0.0083
11401TIP3   OH255693   2.102   1.864  12.140 -0.1074  0.0622  0.6297
11401TIP3    H155694   2.079   1.937  12.082 -0.3456 -0.9870 -0.6718
11401TIP3    H255695   2.193   1.879  12.163 -0.2646  0.9677  0.7095
11402TIP3   OH255696   1.526   1.236  15.003 -0.4765 -0.4816  0.1912
11402TIP3    H155697   1.576   1.310  15.037 -2.3644  0.2356  1.5567
11402TIP3    H255698   1.480   1.201  15.080  0.4947 -3.2497 -0.3516
11403TIP3   OH255699   1.180   3.654   3.455  0.0568  0.3779  0.2963
11403TIP3    H155700   1.090   3.682   3.469 -0.2277 -0.2008 -0.2979
11403TIP3    H255701   1.207   3.615   3.538 -0.7096 -0.6844  0.0663
11404TIP3   OH255702   6.062   3.392  16.985 -0.0490 -0.3398 -0.6409
11404TIP3    H155703   6.015   3.368  17.065  0.5778 -1.1482 -0.5018
11404TIP3    H255704   6.143   3.433  17.015 -0.4247  0.6085 -0.8806
11405TIP3   OH255705   3.006   3.379   5.178 -0.4317  0.1034 -0.1806
11405TIP3    H155706   2.946   3.361   5.105 -0.2194 -1.0489 -0.0802
11405TIP3    H255707   3.039   3.293   5.204 -1.1543  0.3781  1.8449
11406TIP3   OH255708   0.818   0.051  14.168 -0.3935 -0.0525 -0.0875
11406TIP3    H155709   0.745   0.060  14.107 -0.2348  0.3879 -0.2187
11406TIP3    H255710   0.842   0.142  14.189  0.6259 -0.1836 -0.6481
11407TIP3   OH255711   2.832   3.961   2.336  0.1233  0.0881  0.3669
11407TIP3    H155712   2.899   3.894   2.322  1.1345  1.0369  0.4759
11407TIP3    H255713   2.760   3.915   2.377  1.6054 -0.5837  2.3766
11408TIP3   OH255714   1.479   5.717  13.218 -0.2945  0.1850 -0.5693
11408TIP3    H155715   1.443   5.664  13.146  0.3568 -0.0533 -0.7228
11408TIP3    H255716   1.423   5.795  13.221 -0.8417 -0.1882 -0.7861
11409TIP3   OH255717   4.301   6.045  12.540  0.3375  0.0836  0.2129
11409TIP3    H155718   4.353   6.053  12.460 -0.3995  1.1406 -0.1692
11409TIP3    H255719   4.356   6.082  12.609  1.0836 -1.0744  0.2768
11410TIP3   OH255720   5.498   6.630  14.944  0.2311 -0.1507 -0.0843
11410TIP3    H155721   5.500   6.563  15.013  1.1685  0.2049  0.2511
11410TIP3    H255722   5.484   6.580  14.864 -1.2100 -0.5404  0.3783
11411TIP3   OH255723   5.442   3.976  15.312 -0.5473  0.3287 -0.1482
11411TIP3    H155724   5.485   3.993  15.228  3.2486 -2.1285  1.0394
11411TIP3    H255725   5.395   3.894  15.299 -1.3468  0.7956 -0.2681
11412TIP3   OH255726   5.142   4.030  15.152  1.2866 -0.4710 -0.1264
11412TIP3    H155727   5.198   4.055  15.078  2.2579  1.0333  1.0428
11412TIP3    H255728   5.162   4.095  15.220 -0.5267 -1.0310  1.0095
11413TIP3   OH255729   6.051   5.288   7.071  0.1927 -0.0070  0.3865
11413TIP3    H155730   6.064   5.280   6.976 -1.3417  1.1537  0.0431
11413TIP3    H255731   6.131   5.330   7.103 -0.7120  3.0218 -0.9909
11414TIP3   OH255732   5.501   3.168   2.669  0.2946  0.3938  0.2771
11414TIP3    H155733   5.427   3.116   2.638  1.5962 -0.4613 -1.6232
11414TIP3    H255734   5.501   3.157   2.764 -1.1826 -0.6836  0.1906
11415TIP3   OH255735   0.249   5.786  14.731 -0.1498  0.3544 -0.0625
11415TIP3    H155736   0.323   5.810  14.675  1.8292  0.1000  2.2466
11415TIP3    H255737   0.271   5.698  14.764 -0.0057  1.3428  2.8158
11416TIP3   OH255738   3.436   6.227   6.779 -0.0565 -0.6006 -0.5838
11416TIP3    H155739   3.517   6.198   6.820  0.1844  1.6596  0.7138
11416TIP3    H255740   3.464   6.268   6.697  0.0161 -0.6996 -0.6078
11417TIP3   OH255741   2.751   4.255   4.424 -0.2072 -0.0006  0.1818
11417TIP3    H155742   2.725   4.347   4.419 -0.2028  0.0235  0.6198
11417TIP3    H255743   2.806   4.249   4.502 -2.0016 -0.8197  1.4518
11418TIP3   OH255744   4.443   3.863  14.785  0.3800 -0.3737  0.1805
11418TIP3    H155745   4.532   3.885  14.813  0.8355 -0.5604 -1.0725
11418TIP3    H255746   4.396   3.947  14.786  0.4110 -0.3504  1.3234
11419TIP3   OH255747   2.734   5.695   4.455 -0.1013 -0.0625  0.2766
11419TIP3    H155748   2.775   5.776   4.486  0.2173 -0.4361  0.8575
11419TIP3    H255749   2.779   5.625   4.504  2.8447 -1.0427 -3.3658
11420TIP3   OH255750   5.210   5.665   3.617 -0.0431  0.2720 -0.2030
11420TIP3    H155751   5.230   5.618   3.536 -0.8650  0.8925 -0.7736
11420TIP3    H255752   5.116   5.678   3.615 -0.1233  0.0090  1.0219
11421TIP3   OH255753   5.167   5.831   0.100 -0.1086  0.2997 -0.1682
11421TIP3    H155754   5.098   5.787   0.150 -0.7624 -0.2446 -1.5165
11421TIP3    H255755   5.205   5.894   0.162 -1.7581  0.5537  0.6273
11422TIP3   OH255756   0.880   3.704  13.081  0.0430  0.4749  0.3659
11422TIP3    H155757   0.886   3.676  12.989 -0.5543 -0.6333  0.6439
11422TIP3    H255758   0.825   3.637  13.123  0.0053  1.1638  1.4559
11423TIP3   OH255759   3.893   2.491   1.236  0.1843  0.0104 -0.5943
11423TIP3    H155760   3.875   2.519   1.326 -0.4019 -2.4697  0.1457
11423TIP3    H255761   3.830   2.538   1.183  0.5577  1.5403  0.2704
11424TIP3   OH255762   0.996   1.372   5.810  0.4948  0.7409 -0.0840
11424TIP3    H155763   1.080   1.356   5.765  0.6673  3.1219 -0.7639
11424TIP3    H255764   0.955   1.443   5.759 -2.0050 -0.4138  0.1811
11425TIP3   OH255765   5.826   6.664  17.407  0.1979 -0.0832 -0.2483
11425TIP3    H155766   5.744   6.706  17.380  0.2635  0.3823  0.2601
11425TIP3    H255767   5.839   6.594  17.343  0.1224  0.7199 -1.1811
11426TIP3   OH255768   5.906   0.951  12.498  0.0216  0.5771  0.0450
11426TIP3    H155769   5.881   1.037  12.463 -0.4034 -0.5550 -2.7029
11426TIP3    H255770   5.914   0.895  12.421 -0.9135 -2.1794  1.7899
11427TIP3   OH255771   1.510   6.433   5.739 -0.0120 -0.4812  0.5896
11427TIP3    H155772   1.483   6.456   5.650 -0.6363 -0.6781  0.7223
11427TIP3    H255773   1.602   6.409   5.731  0.7126  2.1215  0.4524
11428TIP3   OH255774   5.103   0.726   4.396  0.2800 -0.2216 -0.4065
11428TIP3    H155775   5.198   0.727   4.408  0.2782  0.3983 -0.3836
11428TIP3    H255776   5.077   0.818   4.406 -0.2971 -0.3583 -0.6095
11429TIP3   OH255777   6.049   3.254  11.429  0.0048 -0.2307  0.3752
11429TIP3    H155778   5.965   3.296  11.410  0.6452  2.5711  2.9855
11429TIP3    H255779   6.109   3.290  11.364 -0.1908  0.2190  0.4395
11430TIP3   OH255780   3.926   3.792  12.389 -0.6142  0.3892  0.5456
11430TIP3    H155781   3.953   3.746  12.310  0.5860  1.1215  0.5075
11430TIP3    H255782   3.869   3.863  12.358 -0.1130  0.6987  0.3185
11431TIP3   OH255783   1.201   2.375   5.667 -0.1326  0.2702  0.0212
11431TIP3    H155784   1.249   2.306   5.713 -2.2377 -0.8817  0.6713
11431TIP3    H255785   1.210   2.452   5.722  1.9118  0.4606 -0.4990
11432TIP3   OH255786   4.409   1.436   2.883 -0.1152  0.5233  0.4087
11432TIP3    H155787   4.386   1.373   2.815  1.2361 -0.0400  0.4523
11432TIP3    H255788   4.377   1.520   2.850 -0.0756  0.1506 -0.6125
11433TIP3   OH255789   3.823   5.902  13.978 -0.7871 -0.4908 -0.0848
11433TIP3    H155790   3.772   5.982  13.987 -1.0325 -0.5115 -1.1703
11433TIP3    H255791   3.914   5.930  13.985 -0.8800 -0.1350 -0.2795
11434TIP3   OH255792   3.287   5.860   3.701 -0.2025  0.5860 -0.1195
11434TIP3    H155793   3.211   5.806   3.725 -0.8244  1.7434  0.6153
11434TIP3    H255794   3.322   5.890   3.785  0.4052  0.9553 -0.4961
11435TIP3   OH255795   5.347   2.478   4.331  0.4270 -0.1824 -0.2160
11435TIP3    H155796   5.361   2.402   4.388 -0.6946  0.3578  0.8347
11435TIP3    H255797   5.435   2.511   4.313  0.8765 -1.2148  0.0284
11436TIP3   OH255798   2.138   0.810  12.083 -0.0463 -0.1295 -0.2714
11436TIP3    H155799   2.125   0.720  12.114 -2.1791  0.4947  0.8650
11436TIP3    H255800   2.154   0.860  12.163 -1.8843  0.9285 -0.5081
11437TIP3   OH255801   5.009   0.286  12.806  0.5647  0.7169  0.0499
11437TIP3    H155802   5.019   0.368  12.855 -0.2584 -0.0266  1.5435
11437TIP3    H255803   5.090   0.238  12.823  0.1691  0.3474  0.9339
11438TIP3   OH255804   2.569   3.577  17.173  0.5620  0.4145 -0.3822
11438TIP3    H155805   2.479   3.608  17.167  0.8095  0.8743 -3.2776
11438TIP3    H255806   2.601   3.613  17.256 -1.6590  0.8949  0.3321
11439TIP3   OH255807   4.814   6.041   4.804 -0.3440  0.3059 -0.2116
11439TIP3    H155808   4.846   6.092   4.730 -1.3202 -0.1981 -0.9934
11439TIP3    H255809   4.890   5.989   4.831 -0.2375 -0.2694 -1.5276
11440TIP3   OH255810   3.509   3.031  16.821 -0.0234 -0.1457 -0.1449
11440TIP3    H155811   3.489   3.040  16.728 -0.3592 -0.7916 -0.1396
11440TIP3    H255812   3.577   2.964  16.825  0.7232  0.5907  0.0079
11441TIP3   OH255813   0.545   4.492  12.740 -0.5163  0.1449 -0.0560
11441TIP3    H155814   0.464   4.479  12.789 -1.7870 -1.2493 -2.3157
11441TIP3    H255815   0.552   4.586  12.727 -0.1362  0.5546  2.6483
11442TIP3   OH255816   2.437   2.602   6.929 -0.5763 -0.7809  0.3551
11442TIP3    H155817   2.475   2.526   6.885 -0.3807 -0.6427  0.2862
11442TIP3    H255818   2.344   2.579   6.941 -1.2222  0.1556 -2.2879
11443TIP3   OH255819   2.079   3.728  13.383 -0.3516  0.0922 -0.4552
11443TIP3    H155820   2.063   3.657  13.321 -1.2035 -0.2760  0.1582
11443TIP3    H255821   2.111   3.684  13.462  0.3583  0.5179 -0.4993
11444TIP3   OH255822   1.115   5.345  11.832  0.3285  0.1931  0.2507
11444TIP3    H155823   1.192   5.300  11.798 -0.0104  0.7992 -1.4267
11444TIP3    H255824   1.150   5.410  11.892  1.3660  1.6640 -1.8031
11445TIP3   OH255825   0.481   5.696  14.063 -0.5008 -0.2467  0.4160
11445TIP3    H155826   0.523   5.763  14.009 -0.4434  0.3621  1.1968
11445TIP3    H255827   0.537   5.619  14.054  0.0700  0.1664  0.4214
11446TIP3   OH255828   3.552   6.280  12.222  0.2095 -0.0413  0.6254
11446TIP3    H155829   3.461   6.280  12.191  0.4358 -1.5604 -0.1642
11446TIP3    H255830   3.599   6.335  12.159  0.0468 -0.3267  0.2460
11447TIP3   OH255831   0.056   6.377  16.085 -0.2254  0.2376 -0.4090
11447TIP3    H155832  -0.031   6.361  16.047 -0.0948 -1.1936 -0.1707
11447TIP3    H255833   0.114   6.316  16.038  0.1693 -0.6657  1.1834
11448TIP3   OH255834   4.785   4.801  12.772 -0.3201 -0.4343  0.3220
11448TIP3    H155835   4.689   4.808  12.775 -0.3756 -1.2391  0.4978
11448TIP3    H255836   4.813   4.880  12.725 -1.2467 -1.4673 -2.1271
11449TIP3   OH255837   3.118   3.643   5.057  0.2556  0.0637  0.1737
11449TIP3    H155838   3.105   3.548   5.064  0.3490 -0.2316 -2.6351
11449TIP3    H255839   3.082   3.666   4.972  0.5620  2.5183  0.6370
11450TIP3   OH255840   4.993   4.317  11.317  0.2191 -0.0939 -0.1894
11450TIP3    H155841   4.906   4.318  11.278  0.2563  1.1606 -0.2855
11450TIP3    H255842   5.032   4.400  11.290  1.4935 -0.6817 -0.2510
11451TIP3   OH255843   4.238   2.035   4.863  0.0771 -0.7421 -0.0634
11451TIP3    H155844   4.194   1.950   4.869 -2.4455  0.4501 -0.1283
11451TIP3    H255845   4.242   2.066   4.954  0.1439 -0.5286 -0.1388
11452TIP3   OH255846   1.203   1.641  12.155  0.1996  0.1209 -0.0690
11452TIP3    H155847   1.263   1.632  12.080  0.9504 -0.0061  0.5339
11452TIP3    H255848   1.250   1.599  12.227  0.0338  1.3648  0.7750
11453TIP3   OH255849   6.050   2.007  15.165  0.2528  0.0272 -0.2744
11453TIP3    H155850   6.016   2.079  15.112 -0.5003 -0.2258 -0.1405
11453TIP3    H255851   6.008   1.929  15.129  0.9278 -0.3364 -0.3059
11454TIP3   OH255852   3.195   6.717   5.346  0.5507 -0.2195  0.2298
11454TIP3    H155853   3.262   6.650   5.335 -2.0226 -2.6555 -2.3975
11454TIP3    H255854   3.116   6.668   5.370 -1.3138  1.8861 -1.2234
11455TIP3   OH255855   2.370   6.368   3.742  0.4247  0.1634  0.2059
11455TIP3    H155856   2.459   6.393   3.716  0.1551  1.4068  0.3925
11455TIP3    H255857   2.348   6.429   3.812 -0.5767 -0.1302  0.1625
11456TIP3   OH255858   6.507   1.113  15.237  0.1064  0.1694 -0.1660
11456TIP3    H155859   6.571   1.185  15.233 -0.5574  0.8914  1.2360
11456TIP3    H255860   6.559   1.034  15.228  1.2666  0.7333  1.1730
11457TIP3   OH255861   3.760   1.439   5.797  0.3699 -0.4727  0.3116
11457TIP3    H155862   3.806   1.521   5.816 -0.8661 -0.0081  1.4272
11457TIP3    H255863   3.773   1.426   5.703  0.8397  0.8396  0.1775
11458TIP3   OH255864   4.235   1.426   0.158  0.0329  0.4483 -0.4123
11458TIP3    H155865   4.175   1.501   0.169 -0.0713  0.1057  1.6901
11458TIP3    H255866   4.310   1.446   0.214  0.0033 -1.0002  0.1981
11459TIP3   OH255867   1.826   3.349  14.418 -0.1193  0.4873  0.3009
11459TIP3    H155868   1.776   3.430  14.417  0.7554  1.0649  1.3757
11459TIP3    H255869   1.912   3.373  14.384  0.0950 -0.0153  0.4798
11460TIP3   OH255870   0.850   0.262   5.495  0.5629 -0.1471 -0.0728
11460TIP3    H155871   0.847   0.219   5.581  3.4774 -1.3539 -0.4404
11460TIP3    H255872   0.933   0.310   5.495 -0.2020  1.2520 -1.6038
11461TIP3   OH255873   0.089   2.621   5.231  0.0751  0.4526  0.4317
11461TIP3    H155874   0.182   2.644   5.224  0.0285  0.5088 -0.0569
11461TIP3    H255875   0.056   2.628   5.141 -0.0785 -0.9094  0.3641
11462TIP3   OH255876   0.280   2.955  12.894 -0.5069 -0.3792 -0.0152
11462TIP3    H155877   0.310   3.044  12.875  0.1305 -0.6860 -0.4605
11462TIP3    H255878   0.218   2.935  12.825 -0.0763 -0.5620 -0.3516
11463TIP3   OH255879   5.777   2.424   4.891  0.0159  0.5319 -0.4681
11463TIP3    H155880   5.694   2.467   4.911  0.5038  2.8086 -2.8030
11463TIP3    H255881   5.840   2.465   4.951  0.2304  2.2637 -1.7946
11464TIP3   OH255882   1.442   3.673   2.838  0.1384  0.2591  0.0747
11464TIP3    H155883   1.355   3.680   2.878  0.5894 -0.5256  1.2442
11464TIP3    H255884   1.487   3.753   2.864 -0.3457  0.8610 -0.8743
11465TIP3   OH255885   5.717   4.568  17.359 -0.2248 -0.1013 -0.2082
11465TIP3    H155886   5.697   4.617  17.279  0.3338  0.9556  0.2666
11465TIP3    H255887   5.807   4.538  17.346 -0.3049 -0.3455 -0.1880
11466TIP3   OH255888   0.426   5.582  12.599  0.3576 -0.0406 -0.2610
11466TIP3    H155889   0.334   5.556  12.601  0.2808 -0.0317 -2.0194
11466TIP3    H255890   0.473   5.501  12.580  0.4359  0.3803 -2.0868
11467TIP3   OH255891   0.170   3.381  13.393  0.3893 -0.3741  0.0558
11467TIP3    H155892   0.087   3.403  13.437  0.0427 -0.1726 -0.6774
11467TIP3    H255893   0.186   3.456  13.336  0.7134 -0.7325 -0.3256
11468TIP3   OH255894   2.108   2.962   5.599  0.4994 -0.8385 -0.5183
11468TIP3    H155895   2.146   3.033   5.651  3.5213 -2.6820  0.0307
11468TIP3    H255896   2.014   2.965   5.619  1.0707  0.6414  2.4064
11469TIP3   OH255897   4.382   5.596   3.419 -0.4201 -0.3508  0.1163
11469TIP3    H155898   4.470   5.558   3.422  1.7846  3.5293 -3.8356
11469TIP3    H255899   4.383   5.663   3.488  0.3298  0.5705 -0.7519
11470TIP3   OH255900   3.703   5.186  12.279  0.8983 -0.2320 -0.6170
11470TIP3    H155901   3.782   5.188  12.225  0.5251  1.1940 -1.1654
11470TIP3    H255902   3.735   5.170  12.368  1.7587 -0.2204 -0.9140
11471TIP3   OH255903   1.582   2.157   4.897  0.2971  0.8609  0.1649
11471TIP3    H155904   1.486   2.160   4.893  0.2937  2.0688  0.7484
11471TIP3    H255905   1.601   2.121   4.984  0.3570  1.6156  0.4747
11472TIP3   OH255906   2.816   3.572   3.982 -0.2351 -0.0214 -0.1402
11472TIP3    H155907   2.843   3.557   4.072 -0.3219 -1.7572 -0.3677
11472TIP3    H255908   2.882   3.631   3.946  0.5969 -0.4610  0.6441
11473TIP3   OH255909   1.197   4.396  13.682 -0.4089  0.1009 -0.0388
11473TIP3    H155910   1.266   4.446  13.637 -0.2198 -1.2535 -1.2931
11473TIP3    H255911   1.176   4.325  13.623 -1.1042 -0.9839  1.4535
11474TIP3   OH255912   3.367   2.391   6.668  0.0027 -0.1073 -0.4506
11474TIP3    H155913   3.365   2.487   6.660 -0.7055 -0.2452 -2.4017
11474TIP3    H255914   3.277   2.367   6.688 -0.2516 -0.4900 -1.9897
11475TIP3   OH255915   4.096   6.153   2.046 -0.2460 -0.1527 -0.1455
11475TIP3    H155916   4.109   6.059   2.037 -2.1026 -0.5724  1.1494
11475TIP3    H255917   4.096   6.170   2.140  0.3190  1.1925 -0.3589
11476TIP3   OH255918   1.871   2.239  16.953  0.0029  0.4648  0.0945
11476TIP3    H155919   1.872   2.237  16.857  0.2853  2.9138 -0.0085
11476TIP3    H255920   1.956   2.204  16.978 -0.7651 -2.0140 -0.4022
11477TIP3   OH255921   2.210   6.695   1.765  0.5432  0.6731 -0.3455
11477TIP3    H155922   2.282   6.716   1.706  0.8245  0.8881  0.0743
11477TIP3    H255923   2.137   6.750   1.735  0.6532  0.7028 -0.5573
11478TIP3   OH255924   5.456   3.668   5.223  0.0075  0.2140  0.6635
11478TIP3    H155925   5.444   3.709   5.138  1.9433  0.0598  0.2774
11478TIP3    H255926   5.524   3.720   5.266 -0.4088 -0.1533  1.8253
11479TIP3   OH255927   2.848   0.257  17.352 -0.0782 -0.0603  0.4139
11479TIP3    H155928   2.803   0.178  17.323  0.1944 -0.0036 -0.1726
11479TIP3    H255929   2.915   0.225  17.413  1.6271 -0.5732 -1.5989
11480TIP3   OH255930   5.766   5.455  13.005 -0.2987 -0.2257  0.3737
11480TIP3    H155931   5.729   5.503  12.931 -0.5533 -0.3277  0.4338
11480TIP3    H255932   5.812   5.522  13.056  0.4662 -0.2671 -0.2363
11481TIP3   OH255933   5.033   0.861   3.999  0.2786  0.6700  0.4172
11481TIP3    H155934   5.031   0.770   4.028  2.1533  0.4792  0.0683
11481TIP3    H255935   4.996   0.860   3.911  2.3396 -0.1617 -0.4833
11482TIP3   OH255936   4.562   4.356  15.161 -0.6352  0.1075 -0.1238
11482TIP3    H155937   4.489   4.322  15.110 -0.9776 -0.4488  0.7171
11482TIP3    H255938   4.523   4.389  15.242  0.0193 -0.1198  0.3011
11483TIP3   OH255939   5.245   6.274   4.150  0.6353  0.3772 -0.5977
11483TIP3    H155940   5.326   6.259   4.197 -0.4301  0.4999  1.3793
11483TIP3    H255941   5.252   6.219   4.072  3.2086  1.5091 -1.2723
11484TIP3   OH255942   3.699   0.642   3.800  0.4832  0.6674  0.4937
11484TIP3    H155943   3.634   0.703   3.833  0.6403  1.3331 -0.4082
11484TIP3    H255944   3.669   0.620   3.712 -0.4277 -1.7928  1.3180
11485TIP3   OH255945   3.077   4.132  17.511  0.2133 -0.0443 -0.0658
11485TIP3    H155946   3.057   4.071  17.582 -2.9494  0.7009 -0.1500
11485TIP3    H255947   3.037   4.092  17.433  1.6626  0.2300 -0.9752
11486TIP3   OH255948   2.583   6.206   2.169  0.5857 -0.0243  0.0235
11486TIP3    H155949   2.542   6.143   2.110 -1.1263  1.7983 -0.8758
11486TIP3    H255950   2.513   6.268   2.190  2.1320  1.5043  0.9734
11487TIP3   OH255951   5.682   3.277   2.305  0.5489  0.1855 -0.4639
11487TIP3    H155952   5.703   3.184   2.301  1.0973  0.0718  2.4761
11487TIP3    H255953   5.756   3.320   2.262  0.0956 -0.6884 -2.2218
11488TIP3   OH255954   1.483   0.604  16.979  0.3533  0.2776  0.4403
11488TIP3    H155955   1.574   0.634  16.966  0.8757 -1.3560  0.1127
11488TIP3    H255956   1.433   0.653  16.913  1.3472 -0.3159 -0.8193
11489TIP3   OH255957   5.219   0.514   0.954  0.3891 -0.9478  0.0660
11489TIP3    H155958   5.197   0.599   0.918  1.7815 -0.4910  0.2224
11489TIP3    H255959   5.273   0.472   0.887  2.6950 -0.2344  1.3528
11490TIP3   OH255960   1.566   0.360   3.624  0.3427 -0.2015  0.1165
11490TIP3    H155961   1.645   0.323   3.662  0.1110  0.4521  1.2701
11490TIP3    H255962   1.581   0.455   3.624 -0.1835 -0.1130 -0.2424
11491TIP3   OH255963   2.576   1.822  11.236 -0.1365  0.0317  0.7497
11491TIP3    H155964   2.562   1.881  11.162  0.5375 -1.4169 -0.5829
11491TIP3    H255965   2.491   1.781  11.251 -0.4841  0.9356  1.3639
11492TIP3   OH255966   6.695   3.626   3.465  0.6040 -0.2072 -0.6356
11492TIP3    H155967   6.643   3.614   3.544 -0.7660  0.9618 -1.3179
11492TIP3    H255968   6.645   3.582   3.396  1.1027 -0.0589 -1.0995
11493TIP3   OH255969   1.880   6.203   0.342 -0.3752 -0.3796 -0.2512
11493TIP3    H155970   1.820   6.172   0.274 -2.5263 -0.9152  1.7474
11493TIP3    H255971   1.923   6.124   0.374 -0.6158 -0.3622  0.1199
11494TIP3   OH255972   5.808   3.850  11.519 -0.1040  0.3131 -0.2417
11494TIP3    H155973   5.762   3.806  11.449  0.3767  0.7911 -0.8716
11494TIP3    H255974   5.885   3.889  11.477  1.2503 -1.0331  0.8904
11495TIP3   OH255975   2.251   5.023  12.324  0.4403 -0.4942  0.2288
11495TIP3    H155976   2.288   4.982  12.246 -0.3665  0.1533 -0.4971
11495TIP3    H255977   2.202   4.953  12.367  1.0397 -0.8991  0.2753
11496TIP3   OH255978   6.409   6.682  15.743 -0.0626  0.0390  0.6887
11496TIP3    H155979   6.476   6.663  15.677 -1.0384 -1.8972  0.1817
11496TIP3    H255980   6.446   6.649  15.825  1.0864  2.3099  1.1733
11497TIP3   OH255981   2.313   0.477  12.433  0.0687  0.6983 -0.5603
11497TIP3    H155982   2.282   0.525  12.511 -0.1687 -0.1923 -0.0981
11497TIP3    H255983   2.408   0.485  12.436  0.0123  1.5937 -0.7875
11498TIP3   OH255984   3.953   4.826   2.126 -0.1940 -0.1404  0.4296
11498TIP3    H155985   3.909   4.788   2.050  0.0770 -0.9023  0.6423
11498TIP3    H255986   4.043   4.795   2.119  0.7001  2.3829 -0.6766
11499TIP3   OH255987   2.275   6.245   0.113 -0.1600 -0.2241  0.6089
11499TIP3    H155988   2.224   6.305   0.059  1.8741 -1.2151 -2.7421
11499TIP3    H255989   2.335   6.301   0.162 -0.9496  0.6493  0.5968
11500TIP3   OH255990   1.682   0.240  17.681 -0.6040  0.2051  0.4041
11500TIP3    H155991   1.678   0.190  17.763 -0.5290  1.4655  1.2078
11500TIP3    H255992   1.729   0.183  17.620  0.3023 -0.3162  1.5578
11501TIP3   OH255993   1.533   1.335   6.062 -0.3978 -0.0605 -0.1423
11501TIP3    H155994   1.616   1.311   6.019  0.2032 -0.2344  1.0775
11501TIP3    H255995   1.494   1.251   6.087  0.0366  0.0802  1.0577
11502TIP3   OH255996   3.405   0.400   3.047  0.2811  0.6411  0.1276
11502TIP3    H155997   3.404   0.466   3.116  0.1499  2.6582 -1.7005
11502TIP3    H255998   3.317   0.361   3.050  0.4519  0.3135  1.4065
11503TIP3   OH255999   4.129   6.244  11.904  0.7425  0.2899  0.1295
11503TIP3    H156000   4.081   6.317  11.866  1.5121  1.4262  1.2614
11503TIP3    H256001   4.062   6.185  11.937  0.1169  0.8794 -0.0834
11504TIP3   OH256002   3.785   4.849   2.342  0.8658  0.3314  0.2379
11504TIP3    H156003   3.803   4.926   2.395 -0.7986  1.5005 -0.7897
11504TIP3    H256004   3.855   4.848   2.277  3.0140 -1.2059  2.4263
11505TIP3   OH256005   3.481   0.251  16.173  0.4842  0.2458 -0.1793
11505TIP3    H156006   3.462   0.168  16.129 -0.7009 -0.0464  0.8376
11505TIP3    H256007   3.573   0.244  16.199  0.3562 -0.8009  0.0137
11506TIP3   OH256008   3.612   4.078  15.159 -0.6182  0.1212 -0.3671
11506TIP3    H156009   3.521   4.074  15.127 -1.9841  3.5550  2.4016
11506TIP3    H256010   3.648   4.156  15.117  0.7725 -0.6878 -0.7083
11507TIP3   OH256011   1.870   2.762   1.583 -0.2125  0.4457  0.0586
11507TIP3    H156012   1.775   2.749   1.593 -0.5349  2.5193  0.2124
11507TIP3    H256013   1.878   2.812   1.501  1.0843 -2.4860 -1.7988
11508TIP3   OH256014   0.128   3.226  11.182  0.5248  0.1089  0.5754
11508TIP3    H156015   0.091   3.281  11.112  0.9755 -1.7704 -1.2496
11508TIP3    H256016   0.077   3.249  11.260 -0.4034  1.8864 -0.4821
11509TIP3   OH256017   0.349   5.170   5.518  0.3567 -1.2308  0.6615
11509TIP3    H156018   0.282   5.238   5.525  0.1702 -1.2190 -0.8361
11509TIP3    H256019   0.317   5.099   5.573 -0.3376 -0.7963  0.8342
11510TIP3   OH256020   4.344   5.639   3.124  0.0405  0.1215 -0.2494
11510TIP3    H156021   4.360   5.619   3.216 -1.5928  0.2968  0.0955
11510TIP3    H256022   4.249   5.639   3.115  0.1675 -0.3302 -2.0449
11511TIP3   OH256023   3.622   1.692   5.294  0.1128  0.2692  0.7295
11511TIP3    H156024   3.622   1.741   5.212  0.8874 -0.1941  0.4499
11511TIP3    H256025   3.573   1.747   5.355 -0.5039  0.6004 -0.0481
11512TIP3   OH256026   1.011   6.088   6.025  0.5454  0.5139  0.5073
11512TIP3    H156027   0.926   6.086   6.069  0.9872 -0.0143  1.3569
11512TIP3    H256028   1.050   6.171   6.052 -0.5724  1.8210 -1.6258
11513TIP3   OH256029   1.998   5.895  17.376 -0.5248  0.1595  0.3208
11513TIP3    H156030   2.060   5.925  17.310 -0.9676 -0.4556 -0.3878
11513TIP3    H256031   2.048   5.835  17.431 -0.3853 -0.0298 -0.0112
11514TIP3   OH256032   1.884   2.663   1.973 -0.2124 -0.1213  0.1748
11514TIP3    H156033   1.802   2.711   1.964 -0.1675 -0.0766 -0.0170
11514TIP3    H256034   1.882   2.599   1.902  1.4368  2.1287 -2.1056
11515TIP3   OH256035   0.813   5.398   4.293 -0.5502 -0.1734  0.6887
11515TIP3    H156036   0.886   5.386   4.353  0.4118  0.6680 -0.2830
11515TIP3    H256037   0.780   5.309   4.278  0.5759 -0.6228  0.7712
11516TIP3   OH256038   0.516   2.373  11.937  0.8518 -0.3541 -0.4575
11516TIP3    H156039   0.571   2.451  11.946  0.8388 -0.5589  1.7711
11516TIP3    H256040   0.427   2.406  11.942  0.7582 -0.2412 -2.2327
11517TIP3   OH256041   0.302   5.127  11.705  0.5352 -0.2370  0.4801
11517TIP3    H156042   0.223   5.116  11.757 -0.7709 -0.6359 -1.5032
11517TIP3    H256043   0.302   5.220  11.682  1.1928 -0.0291  1.2582
11518TIP3   OH256044   1.647   0.320  13.456 -0.0793 -0.9285  0.1926
11518TIP3    H156045   1.604   0.374  13.522  0.0745  0.6240 -0.9191
11518TIP3    H256046   1.604   0.235  13.463 -0.9344 -0.4210  1.4270
11519TIP3   OH256047   6.329   2.303   4.861  0.3003 -0.0982 -0.5958
11519TIP3    H156048   6.387   2.300   4.937  1.5818  0.8417 -1.4805
11519TIP3    H256049   6.254   2.354   4.891  1.2390  1.1239 -0.2161
11520TIP3   OH256050   0.703   3.388  12.582 -0.1348 -0.4871 -0.6364
11520TIP3    H156051   0.710   3.482  12.564  0.4994 -0.6608 -1.3646
11520TIP3    H256052   0.792   3.361  12.605 -0.2870 -0.9349 -0.5654
11521TIP3   OH256053   0.103   4.993  14.295 -0.0370  0.4350 -0.0522
11521TIP3    H156054   0.063   4.967  14.378 -0.6054  0.5170 -0.2898
11521TIP3    H256055   0.037   4.971  14.229  1.7552 -2.9481 -0.9230
11522TIP3   OH256056   5.450   3.542  14.923  0.9861 -0.1990  0.0581
11522TIP3    H156057   5.523   3.492  14.960  0.6217 -1.5933 -1.0049
11522TIP3    H256058   5.403   3.479  14.869  0.1600  1.1847 -0.9012
11523TIP3   OH256059   0.006   5.707  14.547 -0.1925  0.8355  0.9212
11523TIP3    H156060   0.052   5.730  14.627 -1.2925  0.7003  1.6105
11523TIP3    H256061  -0.077   5.669  14.576  0.3488 -1.3839 -0.2245
11524TIP3   OH256062   0.087   3.140   5.385  0.1352  0.2502  0.2800
11524TIP3    H156063   0.051   3.196   5.317  0.0925 -1.3201 -1.0624
11524TIP3    H256064   0.013   3.125   5.444 -0.4131  0.0092 -0.4452
11525TIP3   OH256065   0.359   3.743   0.719 -0.2298  0.2567  0.3558
11525TIP3    H156066   0.292   3.702   0.773 -2.2423  1.6634 -0.9386
11525TIP3    H256067   0.337   3.718   0.629  0.5423  1.3589 -0.1680
11526TIP3   OH256068   2.431   5.033  13.299 -0.1689 -0.3092 -0.0279
11526TIP3    H156069   2.359   4.976  13.328 -0.2236 -0.0481  0.3668
11526TIP3    H256070   2.439   5.098  13.369  0.4435 -0.3266 -0.0764
11527TIP3   OH256071   0.108   2.360   2.096 -0.5035  0.0981 -0.0019
11527TIP3    H156072   0.195   2.323   2.110  0.2527  1.6121 -0.4321
11527TIP3    H256073   0.096   2.421   2.169  0.5014  2.7663 -1.8593
11528TIP3   OH256074   2.763   0.587  12.628 -0.3604 -0.6194  0.4076
11528TIP3    H156075   2.712   0.656  12.587 -0.6508 -1.1543 -0.1413
11528TIP3    H256076   2.730   0.583  12.718 -1.1585 -0.8365  0.1084
11529TIP3   OH256077   4.362   3.879  12.396 -0.1208  0.2600  0.5158
11529TIP3    H156078   4.407   3.804  12.356 -0.6727  0.4958 -0.5957
11529TIP3    H256079   4.330   3.846  12.480  1.1384 -0.2365  0.8194
11530TIP3   OH256080   0.940   0.109   3.929  0.3481  0.3037 -0.1751
11530TIP3    H156081   0.904   0.026   3.963 -0.5066  0.1782 -1.3387
11530TIP3    H256082   0.863   0.163   3.913  0.6590  0.1563 -2.4138
11531TIP3   OH256083   1.804   2.112   5.367 -0.0045  0.1582  0.1476
11531TIP3    H156084   1.832   2.201   5.347  1.4758 -0.1222  0.8229
11531TIP3    H256085   1.883   2.059   5.355 -0.8903 -1.0928 -0.3580
11532TIP3   OH256086   5.417   4.351  15.513  0.2575  0.0084  0.1572
11532TIP3    H156087   5.462   4.429  15.480  0.7557 -0.5214 -0.4173
11532TIP3    H256088   5.348   4.386  15.570  2.3355  0.8420  2.3707
11533TIP3   OH256089   2.617   6.063  12.865 -0.1011  0.5202  0.3935
11533TIP3    H156090   2.621   6.066  12.961  1.4480  3.0113  0.3510
11533TIP3    H256091   2.524   6.069  12.845 -0.3621  1.8643  1.7828
11534TIP3   OH256092   3.587   5.916   4.773 -0.4291  0.0108  0.8398
11534TIP3    H156093   3.625   5.984   4.717 -0.4166  0.5639  1.5090
11534TIP3    H256094   3.603   5.947   4.862  0.0561 -1.1390  1.1650
11535TIP3   OH256095   4.335   2.684   0.506 -0.0222 -0.5362 -0.2164
11535TIP3    H156096   4.261   2.636   0.469  0.7867 -1.2158 -1.0069
11535TIP3    H256097   4.351   2.642   0.591  1.1239 -2.1926 -1.2013
11536TIP3   OH256098   4.750   2.621  11.861 -0.3838 -0.1254 -0.1969
11536TIP3    H156099   4.677   2.642  11.803  1.2927  2.5139 -1.5589
11536TIP3    H256100   4.793   2.705  11.877  0.9839 -1.2198  2.4942
11537TIP3   OH256101   6.488   2.454  17.277  0.0013  0.1117  0.2442
11537TIP3    H156102   6.519   2.464  17.187  1.9166 -0.0950  0.8401
11537TIP3    H256103   6.452   2.540  17.299  2.4838  1.2061  0.3081
11538TIP3   OH256104   5.194   3.949  16.331 -0.0530  0.3119 -0.3823
11538TIP3    H156105   5.137   3.951  16.407  0.0387  0.8205 -0.3229
11538TIP3    H256106   5.271   3.900  16.359 -0.5054 -0.4857 -0.5019
11539TIP3   OH256107   3.987   1.245   4.424  0.1117  0.8380  0.4090
11539TIP3    H156108   3.949   1.176   4.478 -0.4638 -0.0704 -1.0937
11539TIP3    H256109   3.963   1.327   4.468  1.1765  0.1200  2.4701
11540TIP3   OH256110   0.677   2.323  12.857 -0.3300  0.2335  0.0350
11540TIP3    H156111   0.770   2.345  12.860 -0.7766  2.2031  1.6702
11540TIP3    H256112   0.667   2.252  12.920 -0.0964  0.7591  0.6690
11541TIP3   OH256113   6.059   2.996   2.683 -0.5515  0.3494  0.6518
11541TIP3    H156114   5.977   2.951   2.701 -0.2549  0.5782  2.7782
11541TIP3    H256115   6.058   3.010   2.588 -1.7647 -1.9247  0.2623
11542TIP3   OH256116   4.396   6.580   5.242  0.2968  0.0202 -0.4865
11542TIP3    H156117   4.407   6.557   5.334  1.1926 -0.3293 -0.6677
11542TIP3    H256118   4.406   6.675   5.239  0.3428  0.0226 -0.2381
11543TIP3   OH256119   2.822   1.006  17.531 -0.1074  0.3049 -0.4413
11543TIP3    H156120   2.825   0.969  17.443  2.5021 -0.2006 -0.2133
11543TIP3    H256121   2.797   1.098  17.518  1.5338  0.5884 -1.8891
11544TIP3   OH256122   1.236   3.433   1.192  0.2045 -0.3168 -0.1744
11544TIP3    H156123   1.277   3.514   1.224  1.1881 -0.7658 -0.2648
11544TIP3    H256124   1.160   3.421   1.249  0.4239  0.3239  0.2667
11545TIP3   OH256125   2.364   3.446   4.213  0.3619 -0.0834  0.1622
11545TIP3    H156126   2.315   3.428   4.294  0.4833  0.7732  0.4345
11545TIP3    H256127   2.340   3.374   4.154  0.9544 -1.2270  1.2615
11546TIP3   OH256128   1.855   2.150   4.208 -0.0625  0.4088 -0.4148
11546TIP3    H156129   1.827   2.096   4.134 -0.2913 -0.6256  0.4090
11546TIP3    H256130   1.932   2.105   4.243  0.5614  1.3593 -0.5302
11547TIP3   OH256131   3.843   5.329  15.708 -0.1638 -0.0865 -0.0126
11547TIP3    H156132   3.910   5.263  15.726  0.8986  1.2652  1.2920
11547TIP3    H256133   3.817   5.360  15.795 -1.8708  0.0523 -0.5389
11548TIP3   OH256134   0.615   3.411   1.272 -0.0176  0.0331  0.5103
11548TIP3    H156135   0.550   3.428   1.340 -0.8310  0.3374 -0.3327
11548TIP3    H256136   0.654   3.496   1.254  0.8378 -0.1885  1.2040
11549TIP3   OH256137   2.186   0.213  17.383  0.2614  0.9158  0.4833
11549TIP3    H156138   2.168   0.251  17.297  0.8546  0.0003 -0.0812
11549TIP3    H256139   2.279   0.187  17.378 -0.0257 -0.2728  0.9385
11550TIP3   OH256140   5.534   2.543   3.175 -0.3013  0.6010 -0.3681
11550TIP3    H156141   5.460   2.492   3.143  0.4239 -1.8063  1.4425
11550TIP3    H256142   5.601   2.532   3.108 -0.5771  0.2130 -0.5854
11551TIP3   OH256143   1.280   3.839  12.164 -0.1276 -0.1832  0.0767
11551TIP3    H156144   1.217   3.857  12.094  0.3909 -1.2701 -0.6889
11551TIP3    H256145   1.363   3.872  12.131  0.2609 -1.3480 -0.1364
11552TIP3   OH256146   3.026   4.108  14.477 -0.1418 -0.1252  0.4329
11552TIP3    H156147   3.038   4.154  14.393  4.1344 -0.9232  0.4012
11552TIP3    H256148   3.020   4.016  14.453 -1.1325 -0.2222  0.9666
11553TIP3   OH256149   4.116   1.133   0.071  0.7420  0.1511 -0.3210
11553TIP3    H156150   4.133   1.047   0.034  0.8885  0.0965 -0.1316
11553TIP3    H256151   4.163   1.194   0.014  3.0784 -0.1268  1.1365
11554TIP3   OH256152   3.632   1.503  11.723 -0.6204  0.2390 -0.8293
11554TIP3    H156153   3.629   1.563  11.798 -1.0147 -0.7756 -0.0149
11554TIP3    H256154   3.593   1.422  11.755  1.3577 -1.0182 -1.4025
11555TIP3   OH256155   6.287   3.311   1.095 -0.2062  0.1528 -0.5296
11555TIP3    H156156   6.270   3.386   1.038 -0.4982  0.5725  0.1062
11555TIP3    H256157   6.378   3.287   1.078 -0.2684  0.3257 -1.1104
11556TIP3   OH256158   3.770   1.470  12.592  0.6105  0.2830  0.6101
11556TIP3    H156159   3.682   1.457  12.627  1.1984 -2.0300  1.4125
11556TIP3    H256160   3.756   1.513  12.508 -1.1486  1.5824  1.5010
11557TIP3   OH256161   1.686   4.833  15.492 -0.1998  0.7454 -0.4278
11557TIP3    H156162   1.647   4.917  15.467 -0.2945  0.3872 -1.4927
11557TIP3    H256163   1.667   4.775  15.419 -0.9606 -0.4859  0.7012
11558TIP3   OH256164   0.440   3.598  16.962  0.4277  0.2777 -0.3441
11558TIP3    H156165   0.397   3.533  16.906 -0.8455  0.3756  0.4926
11558TIP3    H256166   0.460   3.550  17.043  0.2512  0.7129 -0.0425
11559TIP3   OH256167   3.032   1.603   1.441  0.0382  0.1965  0.4164
11559TIP3    H156168   3.035   1.581   1.348 -0.6375  0.0065  0.4354
11559TIP3    H256169   3.072   1.689   1.447 -0.4279  0.4569 -0.1338
11560TIP3   OH256170   0.315   4.405   5.097 -0.3906 -0.5110 -0.6684
11560TIP3    H156171   0.284   4.437   5.182 -0.6663 -0.5325 -0.7614
11560TIP3    H256172   0.281   4.468   5.034  0.1866 -0.2475 -0.7210
11561TIP3   OH256173   2.437   2.412   6.056 -0.1235 -0.8088 -0.2444
11561TIP3    H156174   2.411   2.396   6.147  0.9846 -1.4464 -0.0111
11561TIP3    H256175   2.358   2.443   6.013 -1.1205 -2.1725  0.5206
11562TIP3   OH256176   0.890   1.692   5.891 -0.4413 -0.1621  0.5570
11562TIP3    H156177   0.801   1.659   5.908 -0.5564  0.3100  0.8965
11562TIP3    H256178   0.910   1.662   5.802 -1.1436  0.1690  0.2771
11563TIP3   OH256179   6.400   0.483  11.724  0.7497 -0.4010 -0.0652
11563TIP3    H156180   6.472   0.462  11.664  0.8500 -2.0515  0.5822
11563TIP3    H256181   6.397   0.409  11.785 -0.3642  0.4871  1.0081
11564TIP3   OH256182   6.281   0.224   0.969 -0.5233 -0.3899  0.4712
11564TIP3    H156183   6.312   0.227   0.879  1.2248 -2.0061  0.9521
11564TIP3    H256184   6.234   0.141   0.976 -2.4202  0.6277  0.5856
11565TIP3   OH256185   4.031   5.852  13.466  0.0595  0.5822  0.4173
11565TIP3    H156186   4.000   5.762  13.483 -0.0351  0.7886  1.4086
11565TIP3    H256187   3.974   5.907  13.520 -0.6177  1.3510 -1.0394
11566TIP3   OH256188   0.524   3.751   4.666  0.1863  0.5430 -0.4238
11566TIP3    H156189   0.509   3.837   4.706 -0.3039  0.2540  0.0181
11566TIP3    H256190   0.503   3.689   4.735  0.4885  0.0635 -0.7626
11567TIP3   OH256191   2.186   2.720   2.728 -0.8014  0.0565 -0.5813
11567TIP3    H156192   2.214   2.763   2.647 -1.1107  0.4890 -0.4616
11567TIP3    H256193   2.256   2.739   2.791  0.8975 -2.6863 -1.4854
11568TIP3   OH256194   0.313   1.753  16.496  0.3914  1.0154 -0.2138
11568TIP3    H156195   0.222   1.778  16.482 -0.6097 -2.5558 -0.8974
11568TIP3    H256196   0.312   1.703  16.578  1.3008 -0.8062 -1.2543
11569TIP3   OH256197   0.462   5.658  15.897 -0.0949  0.3744  0.3583
11569TIP3    H156198   0.412   5.680  15.819  0.0459  0.9833  0.4361
11569TIP3    H256199   0.493   5.569  15.882 -1.7061 -0.2518  0.5679
11570TIP3   OH256200   1.304   3.696   6.078  1.0465  0.2838  0.6272
11570TIP3    H156201   1.216   3.658   6.079  0.8649  0.6497 -0.4214
11570TIP3    H256202   1.312   3.739   6.163  0.7185 -0.8586  1.2613
11571TIP3   OH256203   4.594   3.160  14.419  0.0069 -0.0556 -0.0013
11571TIP3    H156204   4.549   3.078  14.436  3.3787 -1.6266  2.7740
11571TIP3    H256205   4.572   3.215  14.494  0.9669 -0.0712  0.3105
11572TIP3   OH256206   5.679   6.602   2.480  0.5998  0.4037 -0.6919
11572TIP3    H156207   5.676   6.514   2.516 -1.5235  0.9126  0.5371
11572TIP3    H256208   5.769   6.611   2.447  2.2818 -0.6646  3.0838
11573TIP3   OH256209   5.311   3.266   2.141  0.1810  0.2591  0.1922
11573TIP3    H156210   5.351   3.342   2.184 -1.9278  1.3698  0.2863
11573TIP3    H256211   5.260   3.223   2.209 -0.2940 -0.0471 -0.3472
11574TIP3   OH256212   4.979   3.603  16.541 -0.3714  0.1491  1.1854
11574TIP3    H156213   4.928   3.661  16.598 -1.5677  0.9387 -0.5992
11574TIP3    H256214   4.941   3.517  16.553 -1.2145  0.4766  0.9412
11575TIP3   OH256215   6.688   1.433  12.611  0.2047  0.8204  0.4470
11575TIP3    H156216   6.748   1.472  12.548  0.1765 -0.7089 -0.5747
11575TIP3    H256217   6.739   1.426  12.691  1.5692 -0.7746 -0.4902
11576TIP3   OH256218   0.032   2.522  14.340 -0.0883 -0.2560  0.4920
11576TIP3    H156219  -0.039   2.535  14.403 -1.0090  1.6019 -0.8091
11576TIP3    H256220   0.099   2.585  14.366 -1.5053  2.3483 -1.6656
11577TIP3   OH256221   2.007   1.104   1.361 -0.2116  0.5284 -0.1247
11577TIP3    H156222   2.044   1.090   1.448  1.0672  1.6518 -0.4486
11577TIP3    H256223   2.059   1.047   1.304 -1.2698 -0.4625 -0.1270
11578TIP3   OH256224   1.175   5.854  11.291 -0.7039  0.8647  0.4804
11578TIP3    H156225   1.188   5.759  11.293 -0.4836  0.9019  2.1332
11578TIP3    H256226   1.095   5.867  11.240  1.4519  0.1304 -3.5398
11579TIP3   OH256227   0.725   0.776   0.126 -0.0849 -0.1212 -0.5926
11579TIP3    H156228   0.803   0.817   0.088 -0.8561  0.4902 -1.5792
11579TIP3    H256229   0.703   0.706   0.065  1.2029 -2.0933  1.0702
11580TIP3   OH256230   0.207   5.498   6.207  1.0102  0.3585 -0.0615
11580TIP3    H156231   0.259   5.578   6.213  0.1952  1.1461 -2.2953
11580TIP3    H256232   0.119   5.528   6.183 -0.2198 -1.0258  2.2629
11581TIP3   OH256233   0.533   0.581   5.497 -0.0020 -0.1443  0.1116
11581TIP3    H156234   0.560   0.672   5.512  2.3079 -1.0356  1.8879
11581TIP3    H256235   0.527   0.574   5.402 -1.1270  2.0531 -0.0595
11582TIP3   OH256236   5.240   1.294  12.766  0.3338 -0.2752  0.1973
11582TIP3    H156237   5.183   1.220  12.791 -0.8258  0.7400  0.6642
11582TIP3    H256238   5.288   1.316  12.846  0.2043 -0.1161  0.2319
11583TIP3   OH256239   6.513   2.063   5.679 -0.4612 -0.1716  0.2948
11583TIP3    H156240   6.452   1.991   5.668 -1.8394  1.1394 -1.2457
11583TIP3    H256241   6.476   2.134   5.626  2.1933  0.8364 -0.3655
11584TIP3   OH256242   1.313   3.831   0.973  0.4812 -0.6249  0.1883
11584TIP3    H156243   1.262   3.905   0.942  0.5448 -1.1925 -1.3496
11584TIP3    H256244   1.256   3.755   0.961  1.3425 -1.1572 -0.7356
11585TIP3   OH256245   6.359   0.750  12.343  0.0659 -0.2077 -0.0602
11585TIP3    H156246   6.396   0.667  12.313  0.9708 -0.1317  0.8105
11585TIP3    H256247   6.277   0.725  12.385  1.0485 -0.8624  1.5308
11586TIP3   OH256248   2.875   0.890   1.880  0.0188  0.0497 -0.1563
11586TIP3    H156249   2.940   0.840   1.931 -0.0399 -0.1035 -0.2306
11586TIP3    H256250   2.847   0.959   1.939 -0.6553 -0.6122  0.3155
11587TIP3   OH256251   4.405   0.587   5.007  0.3330 -0.4163  0.6814
11587TIP3    H156252   4.403   0.654   4.938 -1.8225 -0.4366  0.6563
11587TIP3    H256253   4.483   0.535   4.988  0.2964  0.1484 -1.1827
11588TIP3   OH256254   6.589   3.575  11.841 -0.0697  0.9629  0.1381
11588TIP3    H156255   6.667   3.575  11.896 -0.5655  1.3307  0.8632
11588TIP3    H256256   6.552   3.488  11.850  1.1270  0.2219 -1.5212
11589TIP3   OH256257   5.934   2.801  13.493 -0.4234  0.1138  0.5296
11589TIP3    H156258   5.977   2.838  13.415  2.1312  0.3435  1.9414
11589TIP3    H256259   5.957   2.860  13.564 -3.0780  0.1423  1.4584
11590TIP3   OH256260   3.075   3.323  16.679 -0.2066  0.5908  0.0722
11590TIP3    H156261   3.164   3.294  16.664  0.2417  0.2884  2.8245
11590TIP3    H256262   3.084   3.411  16.716 -0.9890  0.3189  0.9589
11591TIP3   OH256263   6.068   1.993   1.362  0.2076 -0.4428  0.5435
11591TIP3    H156264   6.085   1.928   1.294  0.8840  0.5746 -0.2932
11591TIP3    H256265   6.038   2.070   1.314 -0.1280  0.0220  1.4770
11592TIP3   OH256266   5.259   6.138  17.138 -0.2681  0.2483  1.0970
11592TIP3    H156267   5.187   6.186  17.180 -0.7581  0.9620 -0.4663
11592TIP3    H256268   5.228   6.123  17.048  1.1100 -0.3823  0.7078
11593TIP3   OH256269   1.860   3.112  12.664 -0.0378 -0.1414  0.7914
11593TIP3    H156270   1.907   3.037  12.628  0.0257  0.1114  0.3289
11593TIP3    H256271   1.776   3.112  12.617  1.0192  1.6773 -1.3085
11594TIP3   OH256272   0.223   4.481  14.747  0.0862 -0.2166 -0.4234
11594TIP3    H156273   0.307   4.508  14.710 -0.2389 -0.2624 -1.2343
11594TIP3    H256274   0.170   4.561  14.745 -0.3290 -0.5000 -1.2231
11595TIP3   OH256275   3.394   4.378  11.851 -0.4399 -0.4715 -0.2950
11595TIP3    H156276   3.344   4.423  11.783 -1.4135 -1.2556 -0.1104
11595TIP3    H256277   3.449   4.317  11.803  1.4351  1.3338 -0.6102
11596TIP3   OH256278   3.923   1.673   0.840 -0.2347 -0.0463 -0.1495
11596TIP3    H156279   3.939   1.714   0.755  0.4901  0.0636  0.0312
11596TIP3    H256280   4.007   1.633   0.863 -0.5792 -0.5444  0.2638
11597TIP3   OH256281   2.222   0.228  13.617  0.0039 -0.1363 -0.0382
11597TIP3    H156282   2.235   0.285  13.693  1.1134  0.1529 -0.4372
11597TIP3    H256283   2.127   0.230  13.603  0.1466  4.8434 -2.3953
11598TIP3   OH256284   4.033   0.071   2.680  0.0311 -0.4793 -0.2331
11598TIP3    H156285   4.089   0.148   2.678 -0.5246 -0.0715 -0.6048
11598TIP3    H256286   3.980   0.078   2.600 -1.8347  0.1332  0.9977
11599TIP3   OH256287   0.042   3.607   2.582 -0.3100 -0.0811 -0.2697
11599TIP3    H156288   0.020   3.515   2.572 -1.4915  0.2455 -0.8367
11599TIP3    H256289   0.130   3.607   2.620 -1.6560 -1.4725  3.3394
11600TIP3   OH256290   5.705   5.481   1.617  0.5093 -0.3052  0.0147
11600TIP3    H156291   5.780   5.502   1.673  0.2827  2.3228 -0.5086
11600TIP3    H256292   5.740   5.422   1.551  1.2425 -1.8986  1.7406
11601TIP3   OH256293   0.753   6.016   2.408  0.7249 -0.5818  0.6184
11601TIP3    H156294   0.839   6.049   2.433  1.0771 -1.8336  1.1623
11601TIP3    H256295   0.705   6.007   2.490 -1.1521  3.1070  0.1279
11602TIP3   OH256296   4.118   5.758   2.899 -0.1858 -0.0637 -0.2121
11602TIP3    H156297   4.077   5.817   2.836  1.4623  2.0196  0.5291
11602TIP3    H256298   4.108   5.802   2.984 -0.8120 -1.9487  0.7578
11603TIP3   OH256299   0.584   2.173   6.638  0.5147 -0.3004  0.7301
11603TIP3    H156300   0.547   2.235   6.700  0.9491  0.9173 -0.1984
11603TIP3    H256301   0.670   2.152   6.673  1.3981  1.5686 -0.1873
11604TIP3   OH256302   6.388   1.271   4.713 -0.6568 -0.5408 -0.3453
11604TIP3    H156303   6.354   1.200   4.658  0.4111 -0.1006 -1.6307
11604TIP3    H256304   6.439   1.227   4.780 -1.6338 -1.0702  0.0672
11605TIP3   OH256305   0.246   1.682   0.027  0.6442 -0.4749  0.5869
11605TIP3    H156306   0.152   1.689   0.038  0.3340  1.8554 -2.3058
11605TIP3    H256307   0.283   1.749   0.084  0.2633  0.7466 -0.5596
11606TIP3   OH256308   0.650   2.427  13.249 -0.1403 -0.3979 -0.3548
11606TIP3    H156309   0.667   2.360  13.315 -1.6974  0.0374  0.5201
11606TIP3    H256310   0.633   2.507  13.298  2.6188  0.9686 -1.3906
11607TIP3   OH256311   4.070   1.067   0.704 -0.1808 -0.3989 -0.1821
11607TIP3    H156312   4.078   1.162   0.710  1.0512 -0.5562  1.9083
11607TIP3    H256313   4.126   1.042   0.631 -0.0648  0.4312 -0.3831
11608TIP3   OH256314   5.383   6.166  14.965 -0.2343 -0.3354  1.1966
11608TIP3    H156315   5.339   6.120  14.893 -0.9743 -0.8008  1.9194
11608TIP3    H256316   5.476   6.148  14.951 -0.5251 -3.0707  2.0416
11609TIP3   OH256317   0.209   0.099   0.872  0.1175 -0.0404  0.0108
11609TIP3    H156318   0.190   0.145   0.954 -1.3564 -1.0288  0.2607
11609TIP3    H256319   0.300   0.070   0.881 -0.1650 -0.5293  1.4966
11610TIP3   OH256320   3.088   3.344  13.184 -0.8234  0.0920  0.0352
11610TIP3    H156321   3.037   3.419  13.214 -0.5529  0.7115 -1.0301
11610TIP3    H256322   3.045   3.315  13.104 -0.2832 -0.2186 -0.1532
11611TIP3   OH256323   1.844   2.463   3.762 -0.1179 -0.2554 -0.3516
11611TIP3    H156324   1.884   2.536   3.810  1.0637 -1.1319  0.0454
11611TIP3    H256325   1.786   2.505   3.700  0.3542  1.0271  0.0307
11612TIP3   OH256326   1.965   6.497   3.963 -0.2719  0.0920  0.2147
11612TIP3    H156327   1.982   6.458   4.048 -0.0744  1.5679  0.8768
11612TIP3    H256328   1.897   6.563   3.980  0.5740  1.1896 -0.5426
11613TIP3   OH256329   2.997   6.215   5.182  0.7556  0.0207 -0.1237
11613TIP3    H156330   3.085   6.207   5.218  1.1025 -0.2629 -1.0066
11613TIP3    H256331   2.999   6.162   5.102  0.0657  0.7684 -0.6493
11614TIP3   OH256332   3.253   5.798   0.230  0.3523 -0.1791  0.4225
11614TIP3    H156333   3.218   5.879   0.193 -0.9410 -0.1098  1.7259
11614TIP3    H256334   3.256   5.737   0.156  0.2441  0.6992 -0.3267
11615TIP3   OH256335   0.001   0.868   2.222 -0.3079  0.7894  0.0524
11615TIP3    H156336  -0.026   0.958   2.235 -1.2647  0.7484 -1.4377
11615TIP3    H256337  -0.075   0.816   2.246 -0.1840  0.4403 -0.3008
11616TIP3   OH256338   4.179   0.772   3.570 -0.4186 -0.1534 -0.1305
11616TIP3    H156339   4.095   0.818   3.564 -0.3812  0.1287  1.1269
11616TIP3    H256340   4.244   0.842   3.580 -0.1508 -0.4140 -0.0196
11617TIP3   OH256341   2.406   4.855  13.056  0.0762 -0.4159  0.5492
11617TIP3    H156342   2.424   4.929  13.114 -0.8595  0.5548 -0.3522
11617TIP3    H256343   2.338   4.887  12.997 -0.8313 -2.2268  0.5545
11618TIP3   OH256344   4.489   0.502  11.926 -0.1246  0.2186  0.1129
11618TIP3    H156345   4.579   0.512  11.893 -0.1322 -2.5494 -1.0225
11618TIP3    H256346   4.437   0.561  11.872  0.8465  1.0460  0.0464
11619TIP3   OH256347   0.952   3.183  16.510  0.0278 -0.0728 -0.2733
11619TIP3    H156348   0.900   3.138  16.576  0.4575 -0.7071 -0.3486
11619TIP3    H256349   1.028   3.217  16.557  0.3237 -0.5063 -0.4293
11620TIP3   OH256350   5.900   6.274   2.976 -0.2757 -0.0928 -0.2164
11620TIP3    H156351   5.839   6.215   3.021  0.3329  0.1804  1.0190
11620TIP3    H256352   5.973   6.218   2.952 -0.5444 -0.2127 -0.7824
11621TIP3   OH256353   0.230   2.952  14.333  0.2584  0.1597 -0.1794
11621TIP3    H156354   0.142   2.915  14.322  0.0788  0.9845 -1.8274
11621TIP3    H256355   0.284   2.903  14.271  0.6108  0.7736 -0.3609
11622TIP3   OH256356   5.702   5.754  15.189 -0.2751  0.8524 -0.2973
11622TIP3    H156357   5.703   5.791  15.277  1.1277 -1.8490  0.9609
11622TIP3    H256358   5.614   5.719  15.178 -0.8466  2.2881 -0.5407
11623TIP3   OH256359   3.633   3.758   0.128  0.2813  0.7696  0.4697
11623TIP3    H156360   3.562   3.819   0.107  1.6141  2.1421 -0.2467
11623TIP3    H256361   3.609   3.677   0.082 -0.6478  1.3102 -0.0306
11624TIP3   OH256362   5.055   5.899   0.864 -0.5882  0.1283 -0.2097
11624TIP3    H156363   5.135   5.846   0.862 -1.3221 -1.0161 -2.6033
11624TIP3    H256364   5.081   5.985   0.831 -0.3636 -0.2950 -1.1543
11625TIP3   OH256365   3.790   0.952   0.377 -0.3298  0.4967  0.1298
11625TIP3    H156366   3.848   0.979   0.448 -1.9279  1.4207  1.1405
11625TIP3    H256367   3.719   1.016   0.378 -1.9602 -1.2023 -0.3039
11626TIP3   OH256368   4.346   4.498   0.433  0.2396 -0.7701 -0.1931
11626TIP3    H156369   4.400   4.495   0.354  0.6070  2.8177 -0.2465
11626TIP3    H256370   4.407   4.482   0.504  0.2751 -2.0025 -0.4632
11627TIP3   OH256371   0.490   2.008   3.960  0.2200 -0.2639  0.1279
11627TIP3    H156372   0.465   2.065   3.888 -1.3422  1.1784  1.7038
11627TIP3    H256373   0.562   2.054   4.004  1.2925 -1.2242 -0.5531
11628TIP3   OH256374   0.123   1.104   4.621  0.2659  0.0420  0.2759
11628TIP3    H156375   0.119   1.065   4.708  0.0094 -0.9762 -0.1724
11628TIP3    H256376   0.198   1.163   4.624 -0.7703  1.3642  1.7025
11629TIP3   OH256377   0.452   1.611   2.821 -0.2515 -0.3138 -0.1515
11629TIP3    H156378   0.360   1.626   2.841 -0.0860  0.3144  0.1691
11629TIP3    H256379   0.451   1.549   2.748 -0.9837  1.6507 -1.8923
11630TIP3   OH256380   5.829   5.310   1.030  0.0680  0.1961 -0.0721
11630TIP3    H156381   5.905   5.274   1.077 -0.4597  0.2618  0.8675
11630TIP3    H256382   5.767   5.238   1.026 -1.2447  1.0583  2.3605
11631TIP3   OH256383   1.869   4.963   5.815 -0.5974 -0.6035 -0.7434
11631TIP3    H156384   1.801   5.018   5.852 -2.6664 -2.0060 -2.2578
11631TIP3    H256385   1.919   5.022   5.759 -1.3400  0.2037 -0.5799
11632TIP3   OH256386   0.727   1.206   3.132 -0.0358  0.1324  0.3123
11632TIP3    H156387   0.656   1.259   3.096  1.2707  0.3771 -2.0734
11632TIP3    H256388   0.705   1.196   3.225 -3.5148 -0.4160 -0.4594
11633TIP3   OH256389   5.612   3.539   4.383  0.1854  0.4798  0.6266
11633TIP3    H156390   5.520   3.562   4.370  0.3728  0.8896 -0.0500
11633TIP3    H256391   5.628   3.469   4.319 -0.0384 -0.6510  1.7748
11634TIP3   OH256392   5.748   4.092   6.211 -0.2796 -0.4244 -0.4268
11634TIP3    H156393   5.755   4.139   6.294 -0.5536 -0.3861 -0.4253
11634TIP3    H256394   5.689   4.144   6.158 -2.6994 -2.0510  0.4991
11635TIP3   OH256395   0.936   5.952  15.537 -0.0287  0.4849  0.0443
11635TIP3    H156396   0.927   5.872  15.484 -1.6263  0.9337 -0.4280
11635TIP3    H256397   1.025   5.949  15.570  0.5516 -0.5500 -1.5077
11636TIP3   OH256398   1.419   1.116   4.785 -0.4515 -0.1234 -0.3703
11636TIP3    H156399   1.395   1.030   4.818 -1.2011 -0.1305 -0.9097
11636TIP3    H256400   1.350   1.138   4.722  0.8883 -0.0941 -1.9014
11637TIP3   OH256401   0.070   0.233  13.355 -0.4896 -0.2649 -0.0909
11637TIP3    H156402   0.135   0.281  13.406 -0.9214 -0.8480  1.0634
11637TIP3    H256403  -0.010   0.284  13.363 -0.4550 -0.1427 -0.5364
11638TIP3   OH256404   2.211   2.010   4.949 -0.2904  0.5132  0.4217
11638TIP3    H156405   2.129   2.024   4.903 -0.1749  0.8543  0.3177
11638TIP3    H256406   2.278   2.051   4.893 -0.3358  2.4270  1.6614
11639TIP3   OH256407   4.458   4.464  12.286  0.3148  0.3918  0.2771
11639TIP3    H156408   4.475   4.558  12.277 -0.2847  0.6416  1.4583
11639TIP3    H256409   4.543   4.422  12.271  1.4967  1.4100  3.3968
11640TIP3   OH256410   5.331   5.160  15.087 -0.3323 -0.1532  0.2122
11640TIP3    H156411   5.367   5.185  15.172 -1.0392  1.2993  0.1069
11640TIP3    H256412   5.298   5.071  15.100  1.3693 -0.7194  0.8785
11641TIP3   OH256413   1.428   6.209  12.749 -0.0405 -0.2667  0.0386
11641TIP3    H156414   1.415   6.299  12.778 -2.0291 -0.7093  0.6218
11641TIP3    H256415   1.512   6.183  12.788  0.8481  1.4778 -0.6062
11642TIP3   OH256416   5.356   3.793  11.769  0.3443  0.3128 -0.1964
11642TIP3    H156417   5.421   3.827  11.707  1.1933  1.0504  1.0506
11642TIP3    H256418   5.391   3.707  11.795  0.3863  0.3446 -0.1484
11643TIP3   OH256419   0.850   3.748   5.981  0.0528  0.0178 -0.1083
11643TIP3    H156420   0.838   3.659   5.949  2.1123 -0.2217 -0.3879
11643TIP3    H256421   0.818   3.803   5.909  0.3651 -0.5122 -0.6689
11644TIP3   OH256422   5.595   5.229   4.829 -0.1692 -0.4846 -0.4855
11644TIP3    H156423   5.615   5.318   4.859 -0.4128  0.2588 -2.4032
11644TIP3    H256424   5.521   5.202   4.884  1.0806 -0.2724  1.4047
11645TIP3   OH256425   6.091   1.391   4.980 -0.4464 -0.2120  0.5024
11645TIP3    H156426   6.155   1.420   4.915 -0.2153 -2.8012 -0.5314
11645TIP3    H256427   6.130   1.313   5.019 -0.2455  1.5920  4.3858
11646TIP3   OH256428   5.046   5.856  13.097 -0.1391  0.0886 -0.6569
11646TIP3    H156429   4.981   5.831  13.162 -0.5584 -1.6396 -1.6562
11646TIP3    H256430   5.130   5.825  13.133  0.4110  3.1941  1.0946
11647TIP3   OH256431   2.765   4.057   3.506  0.1900 -0.1931 -0.0457
11647TIP3    H156432   2.782   4.148   3.485 -0.9457 -0.1838 -1.0153
11647TIP3    H256433   2.732   4.019   3.424  0.6329 -1.4708  0.3396
11648TIP3   OH256434   1.804   1.067  15.637 -0.6413 -0.0922 -0.2030
11648TIP3    H156435   1.793   1.097  15.727 -1.4119  0.3766 -0.4471
11648TIP3    H256436   1.849   0.983  15.645  2.5085  1.5058  0.4466
11649TIP3   OH256437   4.658   2.372   0.713 -0.2992  0.2726  0.6419
11649TIP3    H156438   4.630   2.408   0.797  1.5769  0.2651  1.3244
11649TIP3    H256439   4.715   2.299   0.736  0.8928  0.7536 -0.5932
11650TIP3   OH256440   2.808   6.212  11.791  0.1085 -0.5471 -0.0007
11650TIP3    H156441   2.730   6.184  11.839  0.3410 -4.6267 -1.5819
11650TIP3    H256442   2.777   6.231  11.703  0.4696  1.5685  0.2692
11651TIP3   OH256443   6.706   2.353   5.129 -0.4177  0.0923  0.2712
11651TIP3    H156444   6.785   2.368   5.078  0.1847 -0.7047  0.9302
11651TIP3    H256445   6.728   2.382   5.217 -0.8746 -0.0961  0.4545
11652TIP3   OH256446   4.256   5.883  15.317  0.2610 -0.6488 -0.2266
11652TIP3    H156447   4.183   5.848  15.267 -0.3099 -1.6802  1.2460
11652TIP3    H256448   4.319   5.912  15.251 -0.0434 -2.7621 -1.5456
11653TIP3   OH256449   2.788   0.177  15.193 -0.1120  0.5930 -0.2195
11653TIP3    H156450   2.740   0.156  15.274 -0.7674  1.5436 -0.3507
11653TIP3    H256451   2.721   0.213  15.134 -0.0832 -1.9408 -1.9581
11654TIP3   OH256452   2.822   6.550  11.593 -0.1591 -0.4264  0.3414
11654TIP3    H156453   2.744   6.584  11.549 -0.8774 -1.1420  1.0126
11654TIP3    H256454   2.847   6.473  11.541  2.0500  1.5157 -1.7644
11655TIP3   OH256455   2.029   3.846  13.991  0.0843 -0.5304  0.5714
11655TIP3    H156456   2.076   3.914  13.942  0.4443 -1.1982 -0.0282
11655TIP3    H256457   1.940   3.849  13.956  0.2652 -0.8034  0.0880
11656TIP3   OH256458   0.171   0.425   2.608 -0.0950  0.1216 -0.2434
11656TIP3    H156459   0.094   0.465   2.648 -1.7588 -1.3572 -1.8410
11656TIP3    H256460   0.191   0.350   2.664 -0.1043  0.2145 -0.1146
11657TIP3   OH256461   5.384   6.137  12.024  0.0051 -0.2466  0.4901
11657TIP3    H156462   5.348   6.068  11.967 -2.1672 -0.2176  1.7321
11657TIP3    H256463   5.407   6.092  12.105  1.0685  0.0696  0.3753
11658TIP3   OH256464   4.067   5.927   5.915 -0.2575 -0.4355 -0.0982
11658TIP3    H156465   4.049   5.990   5.845  1.5751 -0.0204 -0.2322
11658TIP3    H256466   4.161   5.934   5.931 -0.3161 -1.8701  1.1266
11659TIP3   OH256467   2.579   6.632   1.555 -0.7506 -0.5739  0.5457
11659TIP3    H156468   2.491   6.667   1.569 -0.4896  0.3797 -0.1555
11659TIP3    H256469   2.610   6.674   1.475 -0.5299 -2.6242 -0.5323
11660TIP3   OH256470   4.221   6.409   4.492 -0.1053 -0.1359 -0.2774
11660TIP3    H156471   4.196   6.376   4.406  0.6149  1.9263 -1.3407
11660TIP3    H256472   4.149   6.382   4.550 -0.8054 -1.1926 -1.5802
11661TIP3   OH256473   1.876   3.268  13.036 -0.3120 -0.1716 -0.4645
11661TIP3    H156474   1.915   3.287  13.121 -0.9696  0.5915 -0.3255
11661TIP3    H256475   1.931   3.199  12.999  0.4576  0.0616  0.2320
11662TIP3   OH256476   3.439   6.172  17.262  0.2020 -0.7320  0.2291
11662TIP3    H156477   3.384   6.135  17.331  1.2559 -1.2140  0.8190
11662TIP3    H256478   3.383   6.238  17.221 -0.8444 -1.2443  0.7720
11663TIP3   OH256479   6.128   2.744  16.980 -0.2881  0.1207  0.0019
11663TIP3    H156480   6.044   2.701  16.965 -0.0776 -0.6564  0.9854
11663TIP3    H256481   6.113   2.836  16.957 -0.2468 -0.7026 -4.0638
11664TIP3   OH256482   4.382   5.504  13.035  0.1700 -0.0885  0.8367
11664TIP3    H156483   4.296   5.533  13.063 -0.2363  1.4728 -1.6841
11664TIP3    H256484   4.375   5.495  12.940  2.2861 -1.8268  0.7446
11665TIP3   OH256485   4.080   3.232   2.078 -0.0962  0.0191 -0.8151
11665TIP3    H156486   4.033   3.199   2.154 -0.9319  0.4683 -1.1321
11665TIP3    H256487   4.168   3.251   2.111  0.0237 -1.3076 -0.3423
11666TIP3   OH256488   6.029   4.780  16.219  0.2352  0.6093  0.4391
11666TIP3    H156489   6.006   4.806  16.130 -0.7267 -0.7360  0.2747
11666TIP3    H256490   5.986   4.845  16.274 -1.1881  0.0711 -0.0066
11667TIP3   OH256491   0.243   2.917  13.163  0.5179  0.0532  0.1452
11667TIP3    H156492   0.266   2.919  13.070  0.7329 -0.5974  0.1784
11667TIP3    H256493   0.169   2.977  13.170 -1.7102 -2.3310 -1.0803
11668TIP3   OH256494   0.283   3.133   6.172 -0.3235 -0.1022 -0.3691
11668TIP3    H156495   0.282   3.089   6.257 -1.8058 -0.5892 -0.6149
11668TIP3    H256496   0.240   3.216   6.187  2.4629  1.3996  0.0862
11669TIP3   OH256497   2.208   1.406   4.293 -0.0902  0.1149  0.0650
11669TIP3    H156498   2.186   1.499   4.289 -1.1793 -0.0772  0.9165
11669TIP3    H256499   2.175   1.378   4.379  2.5484 -0.4943  0.9630
11670TIP3   OH256500   6.408   5.362   5.014  0.5185  0.0972  0.1574
11670TIP3    H156501   6.416   5.440   5.070 -2.1416  0.7048 -0.1855
11670TIP3    H256502   6.377   5.395   4.930 -3.1989 -1.4235  0.7413
11671TIP3   OH256503   4.146   3.011   2.626 -0.4156  0.1727 -0.2671
11671TIP3    H156504   4.126   3.096   2.587  0.0169  1.3547  1.9055
11671TIP3    H256505   4.064   2.962   2.619 -1.5628  1.8134  0.8860
11672TIP3   OH256506   1.330   1.991   1.561  0.3511  0.3814  0.3960
11672TIP3    H156507   1.293   2.072   1.594 -0.8554 -0.1556  0.4203
11672TIP3    H256508   1.408   2.018   1.512 -0.9694  1.7311 -1.0783
11673TIP3   OH256509   2.895   3.733  17.483 -0.1190 -0.1686 -0.8139
11673TIP3    H156510   2.939   3.660  17.526  1.2440  1.8416  1.4890
11673TIP3    H256511   2.802   3.710  17.486  0.1531 -1.2076  1.1724
11674TIP3   OH256512   2.439   3.892   1.113  0.0762  1.0249  0.2526
11674TIP3    H156513   2.513   3.839   1.142 -1.7773 -0.6890  2.1984
11674TIP3    H256514   2.417   3.858   1.027 -0.5618 -0.8953  1.1255
11675TIP3   OH256515   1.366   0.282   1.078  0.8157 -0.4135  0.0263
11675TIP3    H156516   1.285   0.240   1.106  2.4346 -2.0394  2.6300
11675TIP3    H256517   1.345   0.376   1.080 -0.9559 -0.7702  0.7424
11676TIP3   OH256518   3.397   1.076   0.818  0.7210  0.1241  0.4138
11676TIP3    H156519   3.433   1.037   0.898 -1.0220 -0.9456  0.7485
11676TIP3    H256520   3.314   1.114   0.846 -0.6850 -1.6038 -1.0973
11677TIP3   OH256521   0.215   0.912   0.187  0.6066 -0.4569 -0.2939
11677TIP3    H156522   0.299   0.866   0.192  1.3789  0.8814 -0.4993
11677TIP3    H256523   0.213   0.966   0.266 -0.0632 -0.4719 -0.2979
11678TIP3   OH256524   3.176   2.419  17.517 -0.1934  0.8914 -0.7009
11678TIP3    H156525   3.095   2.446  17.472 -1.3815 -0.6281  0.4210
11678TIP3    H256526   3.160   2.440  17.609 -0.6877 -2.2877  0.0423
11679TIP3   OH256527   2.712   0.758  11.986 -0.4682  0.0919 -0.5558
11679TIP3    H156528   2.701   0.850  11.960  1.2587  0.1772 -1.0950
11679TIP3    H256529   2.795   0.732  11.946 -0.9815 -1.7498 -0.4966
11680TIP3   OH256530   1.952   3.159   5.264 -0.1827 -0.0066 -0.1789
11680TIP3    H156531   1.864   3.169   5.298  0.0044  3.0529 -0.2790
11680TIP3    H256532   2.005   3.133   5.339 -0.5039  2.3958  0.9712
11681TIP3   OH256533   5.021   0.767   6.282 -0.2986 -0.2630  0.1410
11681TIP3    H156534   4.997   0.676   6.297  1.5866 -0.5730  1.5162
11681TIP3    H256535   5.007   0.810   6.366 -0.1918  0.4985 -0.2206
11682TIP3   OH256536   5.636   4.514   2.303 -0.4709  0.0942  0.3450
11682TIP3    H156537   5.560   4.560   2.338 -1.1718 -0.8874  0.1629
11682TIP3    H256538   5.685   4.485   2.380  0.3125  1.6259  0.4663
11683TIP3   OH256539   5.094   0.015  15.949 -0.4969 -0.1659 -0.5332
11683TIP3    H156540   5.041   0.043  15.874 -1.3138 -1.0792 -0.3103
11683TIP3    H256541   5.030  -0.006  16.017  0.1811 -0.6039 -0.0176
11684TIP3   OH256542   3.431   3.119  17.206 -0.2977 -0.4963  0.8410
11684TIP3    H156543   3.473   3.098  17.289 -1.5109 -1.4013  1.2462
11684TIP3    H256544   3.391   3.037  17.177  2.1584 -0.8849 -1.9145
11685TIP3   OH256545   6.095   2.565  15.295 -0.2178 -0.0027 -0.1753
11685TIP3    H156546   6.108   2.472  15.315  1.9343  0.4034  0.6280
11685TIP3    H256547   6.083   2.607  15.380 -0.9716  0.4942 -0.5200
11686TIP3   OH256548   1.363   4.485  11.998  0.4063  0.1241  0.3964
11686TIP3    H156549   1.429   4.452  11.937 -1.5255  0.6652 -2.1492
11686TIP3    H256550   1.292   4.422  11.993 -1.2217  1.9519 -0.6260
11687TIP3   OH256551   0.248   6.460   1.084  0.0464  0.1959 -0.1618
11687TIP3    H156552   0.244   6.509   1.166 -1.0430  2.8174 -1.6579
11687TIP3    H256553   0.341   6.453   1.065  0.2567  0.7475  0.6243
11688TIP3   OH256554   0.657   1.891   3.523  0.4431 -0.0314 -0.4541
11688TIP3    H156555   0.621   1.963   3.575  1.2827  0.0062  0.0966
11688TIP3    H256556   0.630   1.812   3.569  0.8289 -0.0117 -0.1889
11689TIP3   OH256557   1.911   3.303   0.944  0.3222  0.2864  0.7890
11689TIP3    H156558   1.855   3.333   0.873  0.6421 -0.9839 -0.0295
11689TIP3    H256559   1.993   3.279   0.902  0.4738 -0.6031  1.5647
11690TIP3   OH256560   1.258   1.909   6.737 -0.3303 -0.7513 -0.1719
11690TIP3    H156561   1.234   1.999   6.715  1.8593  0.0320  0.3953
11690TIP3    H256562   1.351   1.903   6.715 -0.4413 -2.9139 -0.2424
11691TIP3   OH256563   2.699   5.358   1.368  0.3245  0.3798  0.0652
11691TIP3    H156564   2.670   5.443   1.403 -0.0867  0.2604  0.0206
11691TIP3    H256565   2.772   5.380   1.311  1.0024  0.5809  0.9795
11692TIP3   OH256566   0.376   2.751   2.420 -0.5148 -0.0270  0.0411
11692TIP3    H156567   0.418   2.682   2.471 -0.4712 -0.7307 -0.9190
11692TIP3    H256568   0.288   2.759   2.456 -1.5474 -2.6251 -1.6649
11693TIP3   OH256569   2.653   0.719   2.955 -0.4415 -0.0763 -0.1088
11693TIP3    H156570   2.652   0.734   3.049  2.1196 -3.2580  0.6048
11693TIP3    H256571   2.742   0.744   2.928 -0.6894 -0.4949 -1.3848
11694TIP3   OH256572   4.433   0.880   5.791 -0.2043  0.3177  0.3521
11694TIP3    H156573   4.448   0.975   5.798  0.3214  0.2404  0.3710
11694TIP3    H256574   4.518   0.846   5.763 -1.0084  0.1300 -2.1610
11695TIP3   OH256575   6.546   4.767  13.822  0.1314  0.1498  0.2764
11695TIP3    H156576   6.472   4.820  13.849  0.7214 -0.5721  3.8416
11695TIP3    H256577   6.623   4.814  13.855  0.9074 -1.1466  0.4112
11696TIP3   OH256578   3.133   4.905   2.769  0.3136 -0.0045 -0.0023
11696TIP3    H156579   3.096   4.922   2.682  1.7266 -0.2066 -0.6670
11696TIP3    H256580   3.227   4.914   2.757  0.4927  0.6903  1.6904
11697TIP3   OH256581   5.109   4.234   1.420  0.6371 -0.0556  0.0576
11697TIP3    H156582   5.147   4.147   1.411 -1.3019 -1.2999  2.5500
11697TIP3    H256583   5.168   4.279   1.480  0.4467 -0.4928  0.5849
11698TIP3   OH256584   1.596   3.103  11.840  0.5620  0.4828 -0.9646
11698TIP3    H156585   1.635   3.061  11.917 -2.6301  0.0556  0.5830
11698TIP3    H256586   1.598   3.196  11.860 -0.1444  0.3817 -0.4239
11699TIP3   OH256587   0.332   4.651   1.087 -0.1431  0.7451 -0.0556
11699TIP3    H156588   0.358   4.621   1.174 -0.8254  0.4332  0.0521
11699TIP3    H256589   0.297   4.739   1.101 -0.8286  0.4611  0.1006
11700TIP3   OH256590   6.526   6.703  14.443 -0.0562  0.3876 -0.1260
11700TIP3    H156591   6.497   6.790  14.470  0.3048  0.8153 -1.0649
11700TIP3    H256592   6.533   6.653  14.524 -1.1957  0.9463  0.3306
11701TIP3   OH256593   2.309   2.147   2.776  0.4346  1.2918  0.4302
11701TIP3    H156594   2.393   2.106   2.755 -0.9033 -0.9670 -0.8639
11701TIP3    H256595   2.300   2.137   2.871  1.1028  0.5087  0.4163
11702TIP3   OH256596   3.325   1.606  15.372  0.1366 -0.0204  0.2052
11702TIP3    H156597   3.246   1.552  15.367  0.5198 -0.7941  1.7442
11702TIP3    H256598   3.365   1.599  15.286  0.7409 -3.1272  0.6219
11703TIP3   OH256599   2.799   3.236  12.372  0.0581  0.6325  0.2916
11703TIP3    H156600   2.793   3.267  12.462 -0.3447 -1.7156  1.1572
11703TIP3    H256601   2.871   3.174  12.373 -1.1477 -0.8504 -0.4889
11704TIP3   OH256602   0.996   0.255  14.766 -0.8992  0.5611 -0.0646
11704TIP3    H156603   1.078   0.280  14.723 -0.3355 -1.1826 -0.0839
11704TIP3    H256604   0.968   0.334  14.812  0.2925  1.4659 -0.8288
11705TIP3   OH256605   1.456   4.109  13.646 -0.2965  0.3369 -0.2587
11705TIP3    H156606   1.444   4.188  13.699  0.2215 -1.1550  2.2469
11705TIP3    H256607   1.371   4.065  13.649 -0.3247  0.3421 -0.8831
11706TIP3   OH256608   2.231   1.500   5.551 -0.0585 -0.0898 -0.5276
11706TIP3    H156609   2.148   1.512   5.505  0.1841  2.7763 -0.3791
11706TIP3    H256610   2.245   1.406   5.551 -2.6942 -0.5631 -1.6326
11707TIP3   OH256611   4.937   2.745  15.434  0.0755 -0.0147 -0.6591
11707TIP3    H156612   4.852   2.789  15.422  0.3422  0.7449  0.1233
11707TIP3    H256613   4.932   2.706  15.522  0.8461  0.7760 -0.2489
11708TIP3   OH256614   1.945   6.414  15.185 -0.2275  0.1073 -0.0613
11708TIP3    H156615   1.949   6.488  15.125 -1.0586 -1.0171 -1.5519
11708TIP3    H256616   1.879   6.356  15.148  1.7800 -2.3393 -0.0412
11709TIP3   OH256617   4.766   0.293   2.519  0.1994  0.3889 -0.7822
11709TIP3    H156618   4.702   0.303   2.590  1.0681 -0.5088  0.1676
11709TIP3    H256619   4.713   0.272   2.442 -0.7062  0.5010 -0.2020
11710TIP3   OH256620   3.096   4.000   4.045  0.4307  0.4750 -0.2234
11710TIP3    H156621   3.054   4.031   4.125 -0.1931 -1.4850  0.2815
11710TIP3    H256622   3.188   4.024   4.055  0.6935 -1.1412  1.8890
11711TIP3   OH256623   5.104   2.973   1.379 -0.0018  0.3305 -0.8316
11711TIP3    H156624   5.142   2.977   1.291  0.3533 -1.2376 -0.7709
11711TIP3    H256625   5.101   2.880   1.400 -0.7339  0.6406  0.5461
11712TIP3   OH256626   1.387   0.562   6.317 -0.5893  0.5517  0.0008
11712TIP3    H156627   1.353   0.619   6.386 -1.9265 -0.2914  0.0685
11712TIP3    H256628   1.467   0.525   6.355 -1.8112 -0.6696  1.5670
11713TIP3   OH256629   1.700   2.584  14.953  0.4492 -0.6309 -0.2570
11713TIP3    H156630   1.734   2.536  15.029 -0.7445  0.0412  0.7419
11713TIP3    H256631   1.699   2.520  14.882  1.8306 -1.2029  0.2125
11714TIP3   OH256632   5.514   1.060   5.929 -0.4969 -0.0659  0.1246
11714TIP3    H156633   5.546   0.978   5.967 -1.1663 -0.0433  0.7713
11714TIP3    H256634   5.470   1.034   5.848  0.7979 -0.1348 -0.5837
11715TIP3   OH256635   5.168   3.701   3.673 -0.4374 -0.8350 -0.0923
11715TIP3    H156636   5.242   3.703   3.734 -0.5499  0.1241  0.0315
11715TIP3    H256637   5.097   3.663   3.724 -0.7531  0.6894  0.6769
11716TIP3   OH256638   3.617   4.479  13.146  0.2165 -0.0863  0.2540
11716TIP3    H156639   3.667   4.410  13.191 -1.4017 -1.3218  0.2858
11716TIP3    H256640   3.562   4.516  13.215 -0.0735  0.1252 -0.0898
11717TIP3   OH256641   3.353   0.458  11.837 -0.4774  0.0597 -0.5226
11717TIP3    H156642   3.375   0.406  11.914  1.6799 -0.2778 -1.2854
11717TIP3    H256643   3.357   0.549  11.867  1.5747 -0.0025 -0.4285
11718TIP3   OH256644   1.487   1.192   0.973  0.2055  0.1008  0.1948
11718TIP3    H156645   1.410   1.174   1.027 -1.5439 -0.0185 -2.1851
11718TIP3    H256646   1.506   1.110   0.928  0.1877  0.7321 -1.0360
11719TIP3   OH256647   3.365   3.468   2.287  0.2490 -0.9840 -0.0169
11719TIP3    H156648   3.286   3.456   2.340  0.0883  2.2135  0.6980
11719TIP3    H256649   3.333   3.482   2.198  0.0035 -0.0926  0.2011
11720TIP3   OH256650   4.731   4.204   2.917  0.1093 -0.3254  0.3821
11720TIP3    H156651   4.826   4.202   2.906  0.3395  0.6017  1.9337
11720TIP3    H256652   4.709   4.115   2.944  0.2438 -1.0752 -1.8094
11721TIP3   OH256653   2.947   0.355   1.017 -0.4180  0.1220 -0.3594
11721TIP3    H156654   2.884   0.296   0.977 -0.9185 -0.0126  0.5905
11721TIP3    H256655   3.012   0.371   0.949  1.1275 -3.5056  0.0302
11722TIP3   OH256656   4.218   5.505   0.958 -0.3132 -0.5396  0.8290
11722TIP3    H156657   4.271   5.582   0.978 -1.5403  0.7720 -0.7253
11722TIP3    H256658   4.128   5.537   0.958 -0.7480 -1.6220 -1.2514
11723TIP3   OH256659   5.323   6.470   1.579 -0.4516  0.5778  0.7580
11723TIP3    H156660   5.248   6.435   1.628 -0.8774  0.8507  0.3030
11723TIP3    H256661   5.328   6.562   1.606 -0.0045  0.4519  1.1207
11724TIP3   OH256662   4.237   3.848  11.709 -0.2374 -0.7514 -0.9868
11724TIP3    H156663   4.318   3.804  11.685  1.2494  0.8382  0.8784
11724TIP3    H256664   4.197   3.790  11.774  0.8551 -0.2387  0.1824
11725TIP3   OH256665   4.417   4.675   3.595  0.1827  0.2793  0.5317
11725TIP3    H156666   4.383   4.649   3.680 -0.7538  1.8065  0.6609
11725TIP3    H256667   4.435   4.592   3.550 -0.4360 -0.5555  1.7650
11726TIP3   OH256668   4.783   4.613   0.300  0.3203  0.5463  0.0975
11726TIP3    H156669   4.876   4.617   0.321  0.5393  1.0980 -0.9064
11726TIP3    H256670   4.739   4.607   0.384  1.2419  0.8850  0.6103
11727TIP3   OH256671   2.087   6.355   0.595 -0.0671  0.1608 -0.1974
11727TIP3    H156672   2.082   6.260   0.585 -0.4256  0.1987 -0.3922
11727TIP3    H256673   2.142   6.384   0.523  1.8329 -0.1089  1.0929
11728TIP3   OH256674   0.139   4.358  13.612  0.4932 -0.3461  0.2410
11728TIP3    H156675   0.227   4.346  13.649  0.1647  0.9684  1.5527
11728TIP3    H256676   0.113   4.445  13.641 -0.1793  0.4221 -2.4160
11729TIP3   OH256677   4.236   4.719  17.108  0.5195 -0.4601  0.4940
11729TIP3    H156678   4.275   4.675  17.032 -0.4848  1.1148 -0.9950
11729TIP3    H256679   4.307   4.774  17.142  0.2364  1.0131 -1.1116
11730TIP3   OH256680   6.310   0.720   1.352  0.3351 -0.4216  0.1547
11730TIP3    H156681   6.230   0.696   1.305 -0.1230  0.7541  0.2999
11730TIP3    H256682   6.380   0.676   1.304 -0.4509 -2.1250  0.4982
11731TIP3   OH256683   5.319   4.075   0.234 -0.0779  0.2758  0.1089
11731TIP3    H156684   5.278   4.024   0.164 -0.6479  0.5989  0.1965
11731TIP3    H256685   5.258   4.147   0.249 -0.6373 -0.5106  1.8660
11732TIP3   OH256686   6.103   3.850  14.592 -0.2763 -0.2005 -0.5612
11732TIP3    H156687   6.088   3.792  14.518  1.7878  1.1586 -2.1814
11732TIP3    H256688   6.197   3.869  14.588 -0.1776  0.2729  2.1771
11733TIP3   OH256689   5.700   6.315  17.443 -0.0218 -0.0216  0.5493
11733TIP3    H156690   5.775   6.352  17.396 -0.8273 -0.8400 -1.4929
11733TIP3    H256691   5.734   6.236  17.484  0.3460 -0.1094  0.0757
11734TIP3   OH256692   5.285   2.299   5.756 -0.0169 -0.4531  0.1737
11734TIP3    H156693   5.264   2.236   5.825  0.9022  0.6652  1.5381
11734TIP3    H256694   5.234   2.377   5.779 -1.1361 -0.6283 -1.4856
11735TIP3   OH256695   4.815   6.406  17.182 -0.1454  0.8561  0.4106
11735TIP3    H156696   4.841   6.498  17.191 -1.8339  1.5309 -0.9361
11735TIP3    H256697   4.723   6.410  17.157 -0.4943 -1.2576  1.1467
11736TIP3   OH256698   6.489   0.434  17.208  0.2889  0.0466 -0.0282
11736TIP3    H156699   6.520   0.401  17.292 -0.0618 -0.8103 -0.2238
11736TIP3    H256700   6.558   0.410  17.146  1.5404  2.4746  0.2976
11737TIP3   OH256701   4.580   0.004   2.510 -0.4463 -0.3271 -0.0542
11737TIP3    H156702   4.546  -0.083   2.531 -0.3816 -0.2931  0.2037
11737TIP3    H256703   4.509   0.048   2.465  0.5731 -1.6022 -3.1292
11738TIP3   OH256704   5.351   2.045  14.877  0.0212  0.1546 -0.2992
11738TIP3    H156705   5.436   2.080  14.906  0.8999 -1.5837 -0.6826
11738TIP3    H256706   5.344   2.072  14.785  0.9134 -1.0367 -0.7313
11739TIP3   OH256707   0.091   1.575  12.332 -0.0171 -0.1954 -0.0990
11739TIP3    H156708   0.156   1.589  12.264  0.4706 -2.4913 -0.2098
11739TIP3    H256709   0.037   1.503  12.299 -1.8181  0.7879  0.5653
11740TIP3   OH256710   4.622   1.153  14.762  0.4762 -0.3245  0.2370
11740TIP3    H156711   4.667   1.236  14.746 -0.8696  0.4967  0.4952
11740TIP3    H256712   4.529   1.175  14.752  0.1375 -2.1255 -1.1293
11741TIP3   OH256713   2.485   6.125  11.235  0.0919 -0.1682  0.1478
11741TIP3    H156714   2.442   6.056  11.285  0.0713  0.1549  0.5816
11741TIP3    H256715   2.524   6.182  11.301  1.0274 -0.3482 -0.2349
11742TIP3   OH256716   6.641   2.482   3.804 -0.3172  0.5736  0.2682
11742TIP3    H156717   6.607   2.427   3.733  1.5218 -0.0092 -0.2176
11742TIP3    H256718   6.602   2.445   3.884 -1.0325  0.1192 -0.2834
11743TIP3   OH256719   5.840   1.395   4.243 -0.5032  0.2921  0.0852
11743TIP3    H156720   5.755   1.438   4.252 -1.2836 -1.1467 -0.1334
11743TIP3    H256721   5.826   1.307   4.279  0.2895 -0.7020 -1.9152
11744TIP3   OH256722   2.251   0.843  11.692 -0.0818  0.3676  0.2281
11744TIP3    H156723   2.239   0.749  11.704 -1.4495  0.5885  0.7900
11744TIP3    H256724   2.194   0.865  11.618 -0.2033  0.8339  0.4557
11745TIP3   OH256725   0.380   2.547   5.790 -0.0563 -0.4639  0.1668
11745TIP3    H156726   0.475   2.533   5.783 -0.1603 -1.8624  1.1393
11745TIP3    H256727   0.366   2.634   5.754  1.3895 -0.8743 -1.4970
11746TIP3   OH256728   3.095   0.018   6.183  0.0687  0.2858 -0.2419
11746TIP3    H156729   3.133   0.088   6.131  1.3600  0.0936  0.4004
11746TIP3    H256730   3.110   0.044   6.274  0.2861 -0.6645  0.0058
11747TIP3   OH256731   2.459   2.541  12.398 -0.1448 -0.0757 -0.0646
11747TIP3    H156732   2.537   2.576  12.442 -1.2735  1.1199  1.0758
11747TIP3    H256733   2.472   2.447  12.397  0.8980  0.0394  0.9184
11748TIP3   OH256734   2.458   0.089  14.263 -0.1300  0.2676  0.0387
11748TIP3    H156735   2.477   0.035  14.186  1.3952  0.4794  0.2252
11748TIP3    H256736   2.473   0.179  14.235  3.4526  0.2199  1.2457
11749TIP3   OH256737   2.559   5.767   5.952 -0.2323 -0.7480 -0.8362
11749TIP3    H156738   2.623   5.831   5.922 -0.3214  0.8786  2.0476
11749TIP3    H256739   2.474   5.810   5.939 -0.3699 -0.7391  0.0349
11750TIP3   OH256740   1.902   1.225  16.118  0.1297 -0.3310 -0.2453
11750TIP3    H156741   1.941   1.138  16.132 -0.2589 -0.7353 -1.5113
11750TIP3    H256742   1.809   1.207  16.104 -0.5103  0.5790  2.2960
11751TIP3   OH256743   3.323   3.501  15.772  0.0634  0.1656  0.2200
11751TIP3    H156744   3.398   3.559  15.760  0.4413 -0.3713  0.0010
11751TIP3    H256745   3.306   3.465  15.685 -0.7831  0.6813  0.1488
11752TIP3   OH256746   5.587   6.685   0.357  0.3113  0.2711 -0.0159
11752TIP3    H156747   5.528   6.611   0.343  0.8490  0.2199 -2.3685
11752TIP3    H256748   5.530   6.762   0.349  0.1784  0.1726 -0.0333
11753TIP3   OH256749   2.388   3.653  12.394 -0.3829  0.6010 -0.8587
11753TIP3    H156750   2.415   3.730  12.342 -0.0913  1.0958  0.0106
11753TIP3    H256751   2.470   3.605  12.408  0.0913  1.9200  1.4816
11754TIP3   OH256752   4.633   2.149   0.930  0.4656  0.1862  0.4496
11754TIP3    H156753   4.681   2.112   1.004 -1.4516 -1.5976  0.8942
11754TIP3    H256754   4.672   2.109   0.853 -0.4535 -1.5220  0.8258
11755TIP3   OH256755   3.863   5.767   3.345 -0.0844  0.2284  0.4278
11755TIP3    H156756   3.800   5.834   3.372 -1.2609 -0.9353  0.6730
11755TIP3    H256757   3.871   5.710   3.421 -0.8104 -1.1400 -0.4755
11756TIP3   OH256758   0.656   4.224  15.334 -0.3272 -0.5190  0.5476
11756TIP3    H156759   0.562   4.230  15.317 -0.2367 -1.5421 -0.4176
11756TIP3    H256760   0.697   4.244  15.250  0.1874 -3.6077 -0.0648
11757TIP3   OH256761   0.018   2.550   1.280  0.0532 -0.0241 -0.1880
11757TIP3    H156762   0.019   2.593   1.365  0.7598  0.0413 -0.2202
11757TIP3    H256763  -0.051   2.595   1.231  1.7858  2.2302 -0.7655
11758TIP3   OH256764   5.385   3.833  12.387  0.3776  0.3533  0.7779
11758TIP3    H156765   5.342   3.900  12.334 -0.6372 -0.3071  0.7262
11758TIP3    H256766   5.422   3.772  12.323 -1.2283 -0.6833  0.7670
11759TIP3   OH256767   5.152   1.530   2.554  0.3624  0.2695  0.0919
11759TIP3    H156768   5.155   1.611   2.605  0.2432  0.7889 -0.7180
11759TIP3    H256769   5.156   1.460   2.620 -0.1173  0.9263  0.8285
11760TIP3   OH256770   3.178   5.578   4.578  0.3016  0.1013  0.1348
11760TIP3    H156771   3.172   5.667   4.546  0.3154 -0.7900 -2.5362
11760TIP3    H256772   3.241   5.583   4.651  2.1744  1.8926 -1.4836
11761TIP3   OH256773   0.378   2.412   3.285 -0.3270  0.3126 -0.0121
11761TIP3    H156774   0.317   2.339   3.289  0.3719 -0.2682  0.2167
11761TIP3    H256775   0.323   2.489   3.269 -1.0870 -0.2293 -0.0244
11762TIP3   OH256776   2.772   0.019   4.925  0.0226 -0.0637 -0.5173
11762TIP3    H156777   2.794   0.112   4.930 -0.3420 -0.0035  0.1549
11762TIP3    H256778   2.846  -0.025   4.967 -0.5500  0.0550  0.6763
11763TIP3   OH256779   2.592   6.165   1.464 -0.4340 -0.1146  0.2678
11763TIP3    H156780   2.681   6.133   1.481 -0.5113  0.4513  1.8727
11763TIP3    H256781   2.550   6.093   1.416  0.7716 -0.5354 -0.1959
11764TIP3   OH256782   5.381   6.260   5.499 -0.3435  0.1766  0.1089
11764TIP3    H156783   5.472   6.256   5.528 -0.5533 -0.2719  0.7218
11764TIP3    H256784   5.358   6.170   5.478  0.0045  0.5588 -2.1824
11765TIP3   OH256785   3.691   4.443   0.537 -0.2547  0.4837  0.2304
11765TIP3    H156786   3.655   4.516   0.486  0.5523 -0.4754 -1.8719
11765TIP3    H256787   3.757   4.483   0.594  0.4941  1.4014 -1.2090
11766TIP3   OH256788   3.971   3.429  12.337 -0.1461 -0.5534  0.2289
11766TIP3    H156789   3.905   3.456  12.401 -0.1693 -0.8886  0.3481
11766TIP3    H256790   3.921   3.393  12.264 -0.2188  1.6746 -0.8831
11767TIP3   OH256791   6.600   4.511  14.816 -0.3288  0.1016  0.6846
11767TIP3    H156792   6.583   4.563  14.895 -0.3959 -1.6977  1.9096
11767TIP3    H256793   6.632   4.427  14.848  1.7540  0.0378 -1.3009
11768TIP3   OH256794   4.800   2.754   4.011  0.4914  0.1520  0.1034
11768TIP3    H156795   4.796   2.732   4.104  2.4220 -0.1080  0.1686
11768TIP3    H256796   4.753   2.838   4.004 -2.1845 -1.1665  0.7690
11769TIP3   OH256797   3.455   3.823  15.859  0.7134  0.0901 -0.8383
11769TIP3    H156798   3.371   3.848  15.898  1.0635 -0.7770  0.5128
11769TIP3    H256799   3.519   3.878  15.903  1.1648 -1.2086  0.1979
11770TIP3   OH256800   0.789   2.172  13.659 -0.1728  0.0254 -0.0803
11770TIP3    H156801   0.826   2.186  13.572 -0.4609  0.1960 -0.1777
11770TIP3    H256802   0.696   2.153  13.643 -0.4261  0.9576  0.2473
11771TIP3   OH256803   0.367   4.127  11.990  0.1830  0.3510  0.4059
11771TIP3    H156804   0.293   4.111  11.933  1.9443 -0.4898 -1.7933
11771TIP3    H256805   0.363   4.057  12.055 -1.3005  0.7450  0.7803
11772TIP3   OH256806   4.006   2.287   2.079 -0.1086 -0.1751 -0.2150
11772TIP3    H156807   4.091   2.326   2.060 -0.2283  1.4211  2.1491
11772TIP3    H256808   3.957   2.295   1.997  1.2002  1.1206 -0.9045
11773TIP3   OH256809   6.449   2.613   1.456 -0.2787  0.1032  0.3480
11773TIP3    H156810   6.463   2.608   1.362  0.1284 -0.9308  0.4481
11773TIP3    H256811   6.533   2.642   1.491  0.3504 -1.8630  0.5771
11774TIP3   OH256812   0.664   3.748  11.516 -0.0858 -0.2013 -0.7119
11774TIP3    H156813   0.686   3.752  11.423 -1.0679 -0.7239 -0.9772
11774TIP3    H256814   0.600   3.677  11.522 -1.9028  1.4497 -0.0133
11775TIP3   OH256815   3.706   0.491  11.123  0.2587 -0.1238 -0.1034
11775TIP3    H156816   3.625   0.536  11.100  0.7472  2.4390  2.4701
11775TIP3    H256817   3.707   0.412  11.069 -3.8773 -0.2584 -0.2802
11776TIP3   OH256818   0.156   3.518  16.095 -0.2685  0.3651  0.1795
11776TIP3    H156819   0.139   3.578  16.023 -0.6049  2.0050  1.5561
11776TIP3    H256820   0.224   3.460  16.062 -0.8802  0.6293 -1.6689
11777TIP3   OH256821   3.652   4.630   2.082 -0.3227  0.1992  0.0889
11777TIP3    H156822   3.591   4.557   2.067  0.8522 -0.9693  0.7398
11777TIP3    H256823   3.645   4.647   2.176 -0.6790  1.0363 -0.0793
11778TIP3   OH256824   6.007   2.429   5.482 -0.1569  0.2638 -0.3851
11778TIP3    H156825   6.088   2.415   5.531 -0.3435 -0.3215 -0.2343
11778TIP3    H256826   6.021   2.384   5.399 -0.7575 -0.8508  0.0961
11779TIP3   OH256827   4.371   3.883  16.059 -0.5539  0.1586 -0.1087
11779TIP3    H156828   4.376   3.866  16.153 -1.7293  0.4658  0.0261
11779TIP3    H256829   4.422   3.964  16.047  3.1968 -2.0149 -0.4248
11780TIP3   OH256830   4.811   1.257  16.601 -0.1220 -0.2062  0.5061
11780TIP3    H156831   4.818   1.162  16.607 -0.0794 -0.2606 -0.3212
11780TIP3    H256832   4.817   1.276  16.507 -0.3340  0.5951  0.6468
11781TIP3   OH256833   5.160   2.774   3.304 -0.4668 -0.2568  0.2361
11781TIP3    H156834   5.085   2.783   3.245 -1.4460 -2.5493  1.0015
11781TIP3    H256835   5.135   2.825   3.382 -0.5795  0.1630 -0.0702
11782TIP3   OH256836   1.658   1.505  11.655 -0.0117  0.2632 -0.4885
11782TIP3    H156837   1.728   1.460  11.608  0.1982 -0.3684  0.4033
11782TIP3    H256838   1.579   1.453  11.635  0.2669 -0.6620  0.7107
11783TIP3   OH256839   4.330   5.657  15.612 -0.1138 -0.1229  0.2380
11783TIP3    H156840   4.288   5.727  15.563 -2.1363 -0.3381  1.5468
11783TIP3    H256841   4.257   5.607  15.649  1.1252 -3.8787 -1.8659
11784TIP3   OH256842   2.403   6.567   1.898  0.0909 -0.6359 -0.4067
11784TIP3    H156843   2.312   6.593   1.881 -0.5557 -0.2824  2.9066
11784TIP3    H256844   2.397   6.476   1.925  0.6930 -0.5598 -0.0115
11785TIP3   OH256845   5.461   1.508   0.967 -0.1148  0.3577  0.1838
11785TIP3    H156846   5.502   1.431   0.928  1.2355  1.3825 -0.4747
11785TIP3    H256847   5.501   1.515   1.054  0.5189  0.8876 -0.1456
11786TIP3   OH256848   3.681   2.009   4.356  0.5225  0.0797 -0.1849
11786TIP3    H156849   3.689   1.915   4.373 -1.9100 -0.6429 -2.3929
11786TIP3    H256850   3.636   2.044   4.433 -0.1474 -0.9099 -0.1189
11787TIP3   OH256851   2.775   1.345  17.576  0.2347 -0.0999  0.0055
11787TIP3    H156852   2.791   1.430  17.535 -1.9480  0.2575 -0.1837
11787TIP3    H256853   2.740   1.290  17.505  2.1321 -1.3826 -0.0210
11788TIP3   OH256854   4.918   5.356  11.502 -0.0275  0.4704  0.3701
11788TIP3    H156855   4.971   5.367  11.581 -0.1546  0.0821  0.5120
11788TIP3    H256856   4.830   5.382  11.529 -0.6310 -2.0341  1.0908
11789TIP3   OH256857   5.615   5.932  11.970 -0.2397 -0.2233  0.1917
11789TIP3    H156858   5.675   5.992  12.014  1.8808 -4.0506  3.1284
11789TIP3    H256859   5.672   5.878  11.915 -1.0434 -2.9623  1.8687
11790TIP3   OH256860   2.180   5.806   4.973  0.3545 -0.2804 -0.0549
11790TIP3    H156861   2.085   5.807   4.976  0.3252 -1.1991 -0.2466
11790TIP3    H256862   2.206   5.766   5.057  0.4515 -2.3555 -0.9982
11791TIP3   OH256863   4.888   2.465   5.783  0.0305  0.1804 -0.8154
11791TIP3    H156864   4.827   2.513   5.727 -0.9452 -0.9110 -0.7318
11791TIP3    H256865   4.883   2.374   5.752  0.1947 -0.2722  0.4052
11792TIP3   OH256866   4.795   4.587  16.513  0.1567  0.3193 -0.3603
11792TIP3    H156867   4.830   4.511  16.467 -1.5420 -0.6711 -0.1122
11792TIP3    H256868   4.718   4.613  16.463 -1.8047 -0.8472  1.7962
11793TIP3   OH256869   4.233   3.156  16.279 -0.0989 -0.2341 -0.4867
11793TIP3    H156870   4.154   3.170  16.332  0.6856  0.6140  0.4995
11793TIP3    H256871   4.249   3.062  16.284 -0.9625 -0.3947 -0.5697
11794TIP3   OH256872   6.254   3.596  12.275  0.0963  0.4565 -0.4258
11794TIP3    H156873   6.235   3.506  12.298 -0.5254  0.7946  0.4149
11794TIP3    H256874   6.239   3.600  12.180 -2.5859  0.3166 -0.0772
11795TIP3   OH256875   6.132   2.666  16.173  0.5434  0.3589 -0.6146
11795TIP3    H156876   6.071   2.726  16.131 -0.7905  0.1884  0.9695
11795TIP3    H256877   6.214   2.676  16.124 -0.2301  1.9340 -1.6570
11796TIP3   OH256878   0.868   3.494  16.859  0.0404  1.0347  0.1513
11796TIP3    H156879   0.831   3.486  16.771 -0.3865  2.1230  0.2141
11796TIP3    H256880   0.819   3.566  16.898 -0.7526 -0.3077  1.7788
11797TIP3   OH256881   4.902   2.447  15.478  0.0680  0.8304  0.5370
11797TIP3    H156882   4.926   2.507  15.408 -1.0107  0.6407 -0.0252
11797TIP3    H256883   4.807   2.459  15.488 -0.1822 -0.7751  0.3930
11798TIP3   OH256884   2.647   1.077  14.768 -0.5010  0.3567 -0.0870
11798TIP3    H156885   2.725   1.022  14.772  0.3136  1.5524  2.6087
11798TIP3    H256886   2.595   1.052  14.845 -2.0217  0.7042 -0.9442
11799TIP3   OH256887   2.620   0.610   2.697  0.1575  0.3791  0.4436
11799TIP3    H156888   2.611   0.658   2.779 -1.3715  0.3915  0.2944
11799TIP3    H256889   2.686   0.543   2.715 -0.2900  0.2633  1.7373
11800TIP3   OH256890   5.530   0.105  15.385  0.5964  0.2560  0.4343
11800TIP3    H156891   5.496   0.127  15.298  0.2460 -1.4739  0.1027
11800TIP3    H256892   5.452   0.092  15.439  0.7903  0.0336  0.6665
11801TIP3   OH256893   4.373   2.099   2.346 -0.0878 -0.0062 -0.0469
11801TIP3    H156894   4.318   2.023   2.326 -0.6678 -0.9044  4.0729
11801TIP3    H256895   4.314   2.160   2.390  1.4898  0.3236  1.7607
11802TIP3   OH256896   1.342   0.581  13.032  0.4088  0.3448 -0.4312
11802TIP3    H156897   1.323   0.513  12.968 -0.7478  0.8696 -0.6683
11802TIP3    H256898   1.436   0.599  13.022 -0.0553  1.5988 -3.1515
11803TIP3   OH256899   1.402   5.250   5.128  0.2563 -0.3648 -0.0896
11803TIP3    H156900   1.481   5.273   5.079 -0.0291 -1.5523 -1.1840
11803TIP3    H256901   1.348   5.202   5.065 -1.5902  0.8741  0.4842
11804TIP3   OH256902   3.958   2.950   6.322  0.4383  0.2600  0.1023
11804TIP3    H156903   4.009   3.028   6.342 -0.0168  0.6978 -0.3807
11804TIP3    H256904   3.974   2.934   6.229  3.0083 -2.0915  0.8280
11805TIP3   OH256905   1.334   5.144  12.551 -0.1410  0.1501 -0.1758
11805TIP3    H156906   1.378   5.061  12.570 -0.5028  0.1205  0.5697
11805TIP3    H256907   1.399   5.211  12.572  0.2979  0.0545 -1.1798
11806TIP3   OH256908   4.175   0.656   2.307 -0.9575 -0.1510 -0.0020
11806TIP3    H156909   4.219   0.681   2.388 -1.5308  0.5207  0.1112
11806TIP3    H256910   4.244   0.619   2.253  0.0954  2.1313 -0.3606
11807TIP3   OH256911   1.814   1.545   5.489  0.2404 -0.1613 -0.2185
11807TIP3    H156912   1.768   1.545   5.406  1.6186  2.4510 -1.1142
11807TIP3    H256913   1.746   1.559   5.555 -0.5834  0.5214 -1.1903
11808TIP3   OH256914   3.328   6.494   3.303 -0.5077 -0.1361  0.2563
11808TIP3    H156915   3.280   6.516   3.383 -3.3079 -0.1304 -1.2782
11808TIP3    H256916   3.418   6.517   3.322 -1.4200  1.9189  2.6610
11809TIP3   OH256917   4.993   3.116   2.003 -0.1519 -0.0637  0.5259
11809TIP3    H156918   5.059   3.167   1.956  0.2596 -1.0202  0.0225
11809TIP3    H256919   4.915   3.120   1.948 -0.1073 -0.0192  0.4657
11810TIP3   OH256920   5.161   3.785  15.435 -0.1143 -0.4533  0.4987
11810TIP3    H156921   5.218   3.756  15.364  0.1178  0.4665  0.3068
11810TIP3    H256922   5.106   3.853  15.396  0.5039  0.5799  1.3692
11811TIP3   OH256923   6.055   6.543   2.827 -0.4780 -0.1970 -0.2445
11811TIP3    H156924   6.033   6.620   2.775 -0.1589 -0.7501 -1.2268
11811TIP3    H256925   5.974   6.494   2.835 -0.8298  0.5227  0.9173
11812TIP3   OH256926   5.442   0.105   1.433 -0.7982  0.2568 -0.2678
11812TIP3    H156927   5.492   0.033   1.472 -1.2237  0.3690  0.5118
11812TIP3    H256928   5.467   0.104   1.341 -3.0050 -2.8258 -0.9931
11813TIP3   OH256929   6.160   0.153   1.496  0.7859  0.3536 -0.2449
11813TIP3    H156930   6.250   0.170   1.524  0.4379  3.3453 -0.6788
11813TIP3    H256931   6.111   0.231   1.522 -1.6568 -1.0557 -0.2939
11814TIP3   OH256932   5.288   6.080   6.002 -0.0053  0.5387  0.5411
11814TIP3    H156933   5.373   6.038   6.011 -0.7504 -0.6801  2.3179
11814TIP3    H256934   5.235   6.016   5.955  0.6614  2.3203 -3.0315
11815TIP3   OH256935   6.167   6.495  16.563  0.0345  0.1900 -0.3131
11815TIP3    H156936   6.132   6.423  16.511 -1.0379  1.4047 -1.3254
11815TIP3    H256937   6.151   6.468  16.654  0.3994 -1.1931 -0.6354
11816TIP3   OH256938   2.109   1.493   1.822 -0.1394 -0.1741  0.4191
11816TIP3    H156939   2.094   1.457   1.735 -1.2929 -1.7759  1.2447
11816TIP3    H256940   2.185   1.445   1.856 -0.4976 -0.4852  0.7893
11817TIP3   OH256941   0.219   0.268  17.164  0.2068  0.2291 -0.0504
11817TIP3    H156942   0.267   0.336  17.210 -1.2633  1.0208  0.4075
11817TIP3    H256943   0.278   0.239  17.094  0.9244  1.8973 -0.1819
11818TIP3   OH256944   0.068   5.271  14.662  0.1498  0.0384  1.4171
11818TIP3    H156945   0.034   5.292  14.749 -1.4360  1.5355  0.4878
11818TIP3    H256946   0.090   5.356  14.624  0.5924 -0.5826  0.2508
11819TIP3   OH256947   6.382   3.472   6.535 -0.1835 -0.2500 -0.1042
11819TIP3    H156948   6.358   3.422   6.613 -0.3243  0.3108  0.2206
11819TIP3    H256949   6.413   3.406   6.472 -0.6481 -0.7680  0.2027
11820TIP3   OH256950   5.091   2.390  15.673 -0.6844  0.5716 -0.6055
11820TIP3    H156951   5.005   2.370  15.635  0.4695 -0.9948 -2.6862
11820TIP3    H256952   5.077   2.467  15.727 -3.1565  1.0647 -1.8083
11821TIP3   OH256953   3.810   2.702  13.237 -0.5025  0.1174 -0.0353
11821TIP3    H156954   3.750   2.657  13.178  0.4960  0.5711 -1.4756
11821TIP3    H256955   3.765   2.783  13.259 -1.9086 -1.0899  1.8215
11822TIP3   OH256956   4.905   4.953   4.949 -0.3498 -0.1859  0.2462
11822TIP3    H156957   4.832   4.904   4.986  0.8275 -2.4794 -0.2406
11822TIP3    H256958   4.884   4.961   4.856 -0.0938 -0.7071  0.1360
11823TIP3   OH256959   5.397   5.685  11.782  0.3469 -0.1871 -0.0707
11823TIP3    H156960   5.492   5.680  11.791  0.4329  0.9911 -0.1058
11823TIP3    H256961   5.380   5.657  11.692  0.5233 -1.6209  0.3224
11824TIP3   OH256962   0.667   2.794   4.787 -0.0092 -0.3567  0.0587
11824TIP3    H156963   0.700   2.728   4.849  1.4534 -0.9242 -1.2707
11824TIP3    H256964   0.745   2.836   4.752 -0.8740  1.1400 -0.1768
11825TIP3   OH256965   3.704   3.954  12.775  0.3247  0.0957  0.2947
11825TIP3    H156966   3.751   3.959  12.859  2.1953  2.0747 -0.7553
11825TIP3    H256967   3.682   4.044  12.755 -0.4642 -0.3973 -1.1719
11826TIP3   OH256968   0.820   1.418   5.176  0.2639 -0.2003 -0.2978
11826TIP3    H156969   0.867   1.495   5.205  0.0010 -0.3665  0.6110
11826TIP3    H256970   0.887   1.361   5.139  0.6960 -0.2019  0.4774
11827TIP3   OH256971   0.084   1.705   5.492 -0.5077 -0.5179 -0.5089
11827TIP3    H156972   0.060   1.752   5.412  0.8786 -0.6168 -1.0115
11827TIP3    H256973   0.105   1.773   5.555  1.6654 -0.3805 -1.2889
11828TIP3   OH256974   1.082   0.418  13.555  0.2781 -0.3224 -0.0252
11828TIP3    H156975   1.082   0.376  13.640  1.9875 -0.3680 -0.0157
11828TIP3    H256976   0.991   0.412  13.525  0.1093 -2.4059  0.7448
11829TIP3   OH256977   3.295   5.021   1.163 -0.0806  0.5736 -0.1243
11829TIP3    H156978   3.274   4.985   1.249  1.6984 -0.3049 -0.0102
11829TIP3    H256979   3.212   5.056   1.131 -1.5711 -2.1990  0.4295
11830TIP3   OH256980   1.214   5.090   1.889 -0.4543 -0.0137 -0.3151
11830TIP3    H156981   1.145   5.101   1.824 -0.4072 -1.1218 -0.5847
11830TIP3    H256982   1.294   5.120   1.845 -0.3322 -1.2396 -0.9925
11831TIP3   OH256983   4.045   4.906  17.144 -0.5059 -0.3649  0.2587
11831TIP3    H156984   3.968   4.850  17.142 -0.6420 -0.2843  2.0336
11831TIP3    H256985   4.119   4.846  17.132 -0.7461 -0.6483  0.1820
11832TIP3   OH256986   0.978   1.660   4.689 -0.2611 -0.1815  0.3920
11832TIP3    H156987   0.902   1.648   4.632 -0.1940 -1.5689  0.5471
11832TIP3    H256988   1.042   1.705   4.635 -0.5028 -0.7395 -0.3805
11833TIP3   OH256989   4.861   0.450   6.138  0.6403  0.0641  0.1883
11833TIP3    H156990   4.778   0.419   6.173 -0.5833  1.8979 -0.9365
11833TIP3    H256991   4.914   0.468   6.216  0.3587 -1.9496  0.9059
11834TIP3   OH256992   1.926   3.061  14.682 -0.1169 -0.2305  0.4098
11834TIP3    H156993   1.944   3.154  14.669 -0.5655 -0.2411 -0.3405
11834TIP3    H256994   1.853   3.042  14.624  0.0209 -1.0747  0.4925
11835TIP3   OH256995   2.767   2.553   1.358  0.8052  0.5131 -0.2613
11835TIP3    H156996   2.693   2.511   1.402  0.7013 -1.6110 -2.2785
11835TIP3    H256997   2.772   2.640   1.398 -2.1879  0.4154  0.6062
11836TIP3   OH256998   4.026   0.880   2.511 -0.2535 -0.2298  0.1864
11836TIP3    H156999   4.117   0.850   2.508  0.2912  1.1016  1.7144
11836TIP3    H257000   3.991   0.844   2.593 -0.5256  0.7056  0.4987
11837TIP3   OH257001   1.467   4.914  12.592 -0.3476 -0.5009 -0.4186
11837TIP3    H157002   1.469   4.825  12.557  1.5961 -0.2822 -0.9643
11837TIP3    H257003   1.434   4.904  12.681  1.5284 -2.0368  0.1537
11838TIP3   OH257004   5.379   4.429   4.482 -0.1774 -0.1692  0.0938
11838TIP3    H157005   5.419   4.355   4.528  1.3189 -0.2178 -1.1888
11838TIP3    H257006   5.409   4.506   4.530 -1.2344 -0.3546  1.0683
11839TIP3   OH257007   2.948   4.144   0.230  0.4826  0.0743 -0.0380
11839TIP3    H157008   2.884   4.073   0.242  0.6822 -0.1652 -0.3962
11839TIP3    H257009   3.016   4.107   0.174 -0.0757  0.9514 -1.3501
11840TIP3   OH257010   4.665   6.137  15.037 -0.7316  0.5732  0.0470
11840TIP3    H157011   4.607   6.203  15.077 -1.6477  0.1997 -0.6254
11840TIP3    H257012   4.703   6.180  14.962  1.6909  1.5721  1.7329
11841TIP3   OH257013   2.522   1.164  13.049 -0.1905  0.0863  0.2660
11841TIP3    H157014   2.617   1.161  13.060 -0.1107 -2.7461 -0.4140
11841TIP3    H257015   2.487   1.133  13.132 -0.4798  0.0889  0.1478
11842TIP3   OH257016   0.264   5.078   3.655  0.3348  0.4461  0.3444
11842TIP3    H157017   0.337   5.129   3.689  0.1280  0.5451  0.6415
11842TIP3    H257018   0.210   5.059   3.731 -0.0844  0.5936  0.0866
11843TIP3   OH257019   3.625   2.405   2.754  0.0314  0.2378 -0.2136
11843TIP3    H157020   3.571   2.450   2.819  0.3748  0.5425 -0.1333
11843TIP3    H257021   3.714   2.440   2.768  0.1673  0.0705 -0.6301
11844TIP3   OH257022   3.844   6.178  13.023  0.4218 -0.2342 -0.3439
11844TIP3    H157023   3.815   6.268  13.011  0.6796  0.0078  0.7586
11844TIP3    H257024   3.766   6.126  13.006 -0.0618  0.2778  0.2481
11845TIP3   OH257025   0.412   6.731  15.982  0.5433 -0.0955 -0.0910
11845TIP3    H157026   0.491   6.775  15.952  0.4511 -0.6565 -1.2227
11845TIP3    H257027   0.415   6.738  16.077  0.8005  1.8551 -0.1992
11846TIP3   OH257028   1.347   2.460  15.864  0.0551  0.1779  0.0270
11846TIP3    H157029   1.431   2.473  15.819  0.6795  0.3284  1.1945
11846TIP3    H257030   1.353   2.514  15.943 -0.9885 -0.1145  0.3222
11847TIP3   OH257031   5.927   2.384   5.795 -0.1140 -0.2217 -0.2985
11847TIP3    H157032   5.927   2.308   5.737 -0.0388 -0.6449  0.2512
11847TIP3    H257033   5.891   2.455   5.742  2.6988  0.1896 -1.8821
11848TIP3   OH257034   6.140   5.691  16.717  0.0527 -0.1673 -0.4277
11848TIP3    H157035   6.063   5.685  16.775 -0.4673 -1.0073 -1.1728
11848TIP3    H257036   6.214   5.671  16.774 -0.4512 -0.9847 -0.0431
11849TIP3   OH257037   0.275   1.307  15.546  0.1978  0.0146  0.2758
11849TIP3    H157038   0.212   1.255  15.596  0.8567 -1.2108 -0.1504
11849TIP3    H257039   0.355   1.305  15.598 -0.7896  4.1188  2.4386
11850TIP3   OH257040   6.702   2.715  13.349 -0.0710  0.3085  0.2620
11850TIP3    H157041   6.783   2.672  13.377 -1.0326 -1.2624  0.7947
11850TIP3    H257042   6.672   2.762  13.426 -0.0483  0.2605  0.3003
11851TIP3   OH257043   5.914   1.508  14.630  0.1072 -0.0458 -0.0083
11851TIP3    H157044   6.003   1.518  14.596  0.5694  2.4855  1.6903
11851TIP3    H257045   5.863   1.572  14.581 -0.1654  0.4738  0.9441
11852TIP3   OH257046   1.185   4.214  16.437 -0.5066 -0.0856 -0.0043
11852TIP3    H157047   1.238   4.155  16.492 -0.3441  0.3992  0.3655
11852TIP3    H257048   1.123   4.253  16.498 -2.4979 -1.9647 -0.7098
11853TIP3   OH257049   3.647   0.476   1.215 -0.9933 -0.1948 -0.4394
11853TIP3    H157050   3.703   0.553   1.204 -1.4032 -0.1055 -2.1632
11853TIP3    H257051   3.686   0.411   1.157  0.4345 -1.9955  2.3005
11854TIP3   OH257052   0.772   4.954   4.625  0.2113  0.4075  0.3140
11854TIP3    H157053   0.804   4.878   4.577  0.1021  0.3288  0.3667
11854TIP3    H257054   0.822   4.953   4.707 -0.2991 -0.0168  0.6265
11855TIP3   OH257055   1.903   1.386   1.972  0.1268  0.1157 -0.1474
11855TIP3    H157056   1.986   1.386   1.924  0.6486  0.4751  0.7241
11855TIP3    H257057   1.886   1.479   1.989  1.0173 -0.0744  2.1102
11856TIP3   OH257058   4.723   4.582   5.969  0.0970  0.2254 -0.4392
11856TIP3    H157059   4.783   4.578   6.043 -0.0806 -0.1096 -0.3111
11856TIP3    H257060   4.779   4.575   5.892  0.0778 -3.0785 -0.3253
11857TIP3   OH257061   1.939   5.557   5.636  0.3335  0.0946  0.6787
11857TIP3    H157062   1.965   5.528   5.724  2.1264 -0.2426  0.0707
11857TIP3    H257063   1.858   5.509   5.618  0.0626 -0.0018  2.0434
11858TIP3   OH257064   6.205   4.058   3.677 -0.0401 -0.0604 -0.4272
11858TIP3    H157065   6.177   4.147   3.656 -2.7875 -0.9239 -0.8753
11858TIP3    H257066   6.186   4.008   3.598  0.0201 -1.3380  0.3419
11859TIP3   OH257067   5.929   2.693   2.956  0.2097 -0.0635 -0.2473
11859TIP3    H157068   5.965   2.749   3.024  0.2427  1.8532 -1.7591
11859TIP3    H257069   6.006   2.654   2.913  0.2918  0.4653 -0.5847
11860TIP3   OH257070   5.450   4.720   3.292 -0.2558  0.5040  0.6641
11860TIP3    H157071   5.431   4.626   3.289 -1.0878  0.6735  0.3090
11860TIP3    H257072   5.491   4.734   3.377 -2.2169  0.1703  1.7359
11861TIP3   OH257073   0.109   4.090  11.874 -0.4730  0.0152  0.1102
11861TIP3    H157074   0.136   4.139  11.796  0.4405 -0.9538 -0.2054
11861TIP3    H257075   0.055   4.019  11.840 -1.2331  0.3973  0.5025
11862TIP3   OH257076   6.205   3.494   0.491 -0.5321 -0.1374 -0.0300
11862TIP3    H157077   6.156   3.447   0.558  0.5628  0.5324  1.2870
11862TIP3    H257078   6.228   3.428   0.426 -2.2965 -0.6457 -0.1803
11863TIP3   OH257079   2.245   1.111   4.494  0.0453  0.0757  0.5183
11863TIP3    H157080   2.191   1.190   4.491  1.1228  0.8016 -1.1293
11863TIP3    H257081   2.332   1.143   4.518  0.7562 -0.4067 -1.2774
11864TIP3   OH257082   4.386   5.760  15.995  0.3030 -0.3892  0.8390
11864TIP3    H157083   4.317   5.776  15.930  0.7620 -0.0517  0.4296
11864TIP3    H257084   4.467   5.760  15.944  0.5930 -0.9744  1.2896
11865TIP3   OH257085   3.924   4.075  16.003  0.0749  0.4515 -0.2384
11865TIP3    H157086   3.841   4.082  15.955 -0.0227  1.4861  0.0562
11865TIP3    H257087   3.902   4.103  16.092  0.2361 -1.5317  0.4668
11866TIP3   OH257088   4.135   4.648  16.068  0.1340 -0.4326 -0.2331
11866TIP3    H157089   4.225   4.664  16.043  0.4746 -0.4123  0.9317
11866TIP3    H257090   4.098   4.598  15.995  1.2974 -1.0874 -0.3920
11867TIP3   OH257091   3.943   6.180   1.836 -0.0230 -0.4931  0.4128
11867TIP3    H157092   3.884   6.105   1.830  2.0792 -2.1502 -1.1091
11867TIP3    H257093   3.978   6.176   1.925 -1.9353  0.3795  1.2576
11868TIP3   OH257094   1.835   0.899   1.977  0.2027  0.2227 -0.4206
11868TIP3    H157095   1.785   0.944   2.045  2.1345 -0.1385  1.3652
11868TIP3    H257096   1.788   0.917   1.896 -2.9700 -0.4581  1.1338
11869TIP3   OH257097   3.019   3.086   0.115 -0.2762 -0.0275  0.7215
11869TIP3    H157098   3.072   3.091   0.035 -0.6393 -0.1750  0.4693
11869TIP3    H257099   3.079   3.053   0.182 -0.2069 -0.8098  0.2863
11870TIP3   OH257100   3.107   5.871  14.285 -0.6301  0.4773 -0.4860
11870TIP3    H157101   3.195   5.834  14.285  0.5681  3.0438  1.8660
11870TIP3    H257102   3.055   5.808  14.335  1.0036  1.1093  2.1705
11871TIP3   OH257103   4.177   0.866   4.712  0.1875 -0.2008 -0.3273
11871TIP3    H157104   4.218   0.780   4.724 -0.1724 -0.3300 -0.0065
11871TIP3    H257105   4.136   0.884   4.796 -0.1974  0.0423 -0.5665
11872TIP3   OH257106   0.881   5.913  13.308  0.0624 -0.0184  0.2620
11872TIP3    H157107   0.795   5.896  13.271  0.7446 -1.4024 -0.7897
11872TIP3    H257108   0.931   5.832  13.291  1.8362  1.0711  0.0132
11873TIP3   OH257109   2.174   5.214   5.806  0.0804  0.3285  0.1603
11873TIP3    H157110   2.178   5.167   5.723 -2.5429 -1.1917  0.7602
11873TIP3    H257111   2.145   5.302   5.782 -2.6414 -0.6532 -0.4954
11874TIP3   OH257112   5.358   0.883   3.495 -0.1299  0.6267 -0.4769
11874TIP3    H157113   5.413   0.864   3.419 -0.1952 -0.4214 -0.2786
11874TIP3    H257114   5.293   0.812   3.496 -0.5790  1.0354  0.1394
11875TIP3   OH257115   4.547   5.871  11.935 -0.3163 -0.0975 -0.5266
11875TIP3    H157116   4.525   5.829  11.852 -0.8688 -1.2877  0.1952
11875TIP3    H257117   4.589   5.801  11.986 -0.2036  0.5514  0.2811
11876TIP3   OH257118   4.576   2.046   6.846  0.0541 -0.2961 -0.1076
11876TIP3    H157119   4.590   2.073   6.937 -1.0825 -0.2401  0.0735
11876TIP3    H257120   4.491   2.002   6.848 -0.0658 -0.1337 -1.1779
11877TIP3   OH257121   0.581   0.662  11.597  0.3055 -0.4340  0.0001
11877TIP3    H157122   0.610   0.580  11.636 -0.0613 -0.3319  0.4985
11877TIP3    H257123   0.637   0.729  11.637 -1.4656 -0.0612  2.0280
11878TIP3   OH257124   4.802   0.530  14.434  0.0015  0.3668  0.7190
11878TIP3    H157125   4.864   0.520  14.362  0.6809 -1.2664  1.4816
11878TIP3    H257126   4.857   0.550  14.510 -0.5928  0.8333  1.0340
11879TIP3   OH257127   2.766   4.984  13.155  0.5461 -0.1522 -0.2239
11879TIP3    H157128   2.753   5.045  13.082  0.7976 -1.4377 -1.3803
11879TIP3    H257129   2.777   4.899  13.113 -0.1367 -1.0590  1.3655
11880TIP3   OH257130   2.875   5.977  12.377  0.3689  0.0686 -0.2805
11880TIP3    H157131   2.794   5.977  12.427  0.8174  0.7155  0.4775
11880TIP3    H257132   2.847   5.977  12.285 -0.4803  0.4958 -0.0303
11881TIP3   OH257133   5.069   1.238  13.998 -0.1151 -0.0989 -0.4192
11881TIP3    H157134   5.031   1.158  14.033  0.9313 -0.4877 -0.1337
11881TIP3    H257135   5.134   1.208  13.934  1.5408  0.4324  0.9351
11882TIP3   OH257136   2.350   4.719   3.292 -0.1111  0.1766  0.2593
11882TIP3    H157137   2.327   4.787   3.355 -0.0720  0.0565  0.4039
11882TIP3    H257138   2.446   4.717   3.293 -0.1098  0.2066  0.1625
11883TIP3   OH257139   1.621   1.630  16.138  0.0797 -0.1067 -0.6073
11883TIP3    H157140   1.568   1.566  16.091 -0.0901 -1.8084  1.7693
11883TIP3    H257141   1.687   1.578  16.184 -1.3204  1.0485  3.0797
11884TIP3   OH257142   6.139   3.149  14.818 -0.2384 -0.0820  0.3795
11884TIP3    H157143   6.186   3.077  14.774  0.2909 -2.1184  3.8191
11884TIP3    H257144   6.209   3.201  14.858 -0.6492  2.2782 -1.7497
11885TIP3   OH257145   5.292   3.192   4.772  0.0755 -0.0105 -0.3500
11885TIP3    H157146   5.320   3.259   4.709 -0.2123 -0.6495 -1.1746
11885TIP3    H257147   5.329   3.221   4.856 -0.4024  1.4126 -0.6024
11886TIP3   OH257148   5.370   1.068   4.147  0.0769 -0.6988  0.1597
11886TIP3    H157149   5.383   0.979   4.180  3.8096 -0.4131 -0.1323
11886TIP3    H257150   5.369   1.057   4.051  1.1620 -0.4378  0.1004
11887TIP3   OH257151   4.563   6.158   0.336 -0.1899  0.3535  0.6417
11887TIP3    H157152   4.591   6.101   0.408  1.2861  0.4258  0.1521
11887TIP3    H257153   4.512   6.101   0.278  0.9947 -0.4081  0.3231
11888TIP3   OH257154   4.861   2.541  13.379 -0.3204  1.0436 -0.3517
11888TIP3    H157155   4.939   2.595  13.383  0.3213  0.0771  0.7966
11888TIP3    H257156   4.862   2.490  13.460 -2.4435  1.4023 -0.0324
11889TIP3   OH257157   2.846   4.633  17.062  0.2893  0.5350 -0.2952
11889TIP3    H157158   2.912   4.572  17.096  0.3782 -0.7130 -2.4569
11889TIP3    H257159   2.869   4.717  17.101  1.8686 -0.2764  0.6643
11890TIP3   OH257160   3.068   2.544   3.090  0.0795 -0.3577 -0.1985
11890TIP3    H157161   3.036   2.602   3.159 -2.7485 -3.3760  1.3008
11890TIP3    H257162   3.146   2.503   3.127  0.0560 -0.1063  0.1345
11891TIP3   OH257163   6.549   0.872   1.299 -0.0873  0.1921  0.3431
11891TIP3    H157164   6.463   0.838   1.325 -0.6982  1.1190 -0.3772
11891TIP3    H257165   6.537   0.967   1.297  0.1438  0.2445 -2.4112
11892TIP3   OH257166   6.077   5.054   1.401 -0.0996 -0.4497 -0.4439
11892TIP3    H157167   6.044   4.999   1.472  1.7165 -0.4806  0.4529
11892TIP3    H257168   6.098   5.137   1.443  0.1801 -0.1691 -1.1255
11893TIP3   OH257169   1.560   5.948   3.872  0.6365  0.3507 -0.3080
11893TIP3    H157170   1.559   5.863   3.829  0.8132 -0.0627  0.4911
11893TIP3    H257171   1.614   6.003   3.815  1.7341 -0.4706 -0.1041
11894TIP3   OH257172   2.953   1.944   4.385  0.4274  0.2153  0.2280
11894TIP3    H157173   2.958   1.856   4.421  0.7072 -0.8291 -2.2053
11894TIP3    H257174   2.993   2.000   4.452  2.5727 -1.8217  0.7444
11895TIP3   OH257175   5.362   6.083  12.351  0.0537 -0.3004  0.0370
11895TIP3    H157176   5.371   5.988  12.352  0.8934 -0.3854 -3.1051
11895TIP3    H257177   5.274   6.100  12.384 -1.0959 -2.4176 -1.6352
11896TIP3   OH257178   1.509   5.889   2.171 -0.2050 -0.3184 -0.3645
11896TIP3    H157179   1.502   5.857   2.261  1.3517  1.4985  0.4747
11896TIP3    H257180   1.601   5.878   2.149 -0.6853 -1.3294 -2.0192
11897TIP3   OH257181   1.362   0.854   6.170 -0.8106  0.2174  0.4421
11897TIP3    H157182   1.271   0.830   6.155 -0.4058 -0.6318 -0.8275
11897TIP3    H257183   1.393   0.789   6.234 -1.1113  0.5911  0.9813
11898TIP3   OH257184   1.547   0.809   2.331 -0.0679  0.3357  0.1007
11898TIP3    H157185   1.601   0.755   2.390 -1.7369  0.4954  1.8617
11898TIP3    H257186   1.485   0.748   2.292 -0.8433  0.6827  0.7681
11899TIP3   OH257187   2.334   3.533   5.217 -0.0009 -0.0402  0.7289
11899TIP3    H157188   2.311   3.440   5.215 -2.2273  0.4164  1.6092
11899TIP3    H257189   2.428   3.534   5.235  0.3274 -2.1082 -0.5137
11900TIP3   OH257190   4.885   4.071   4.417 -0.6041  0.3491 -0.0445
11900TIP3    H157191   4.958   4.031   4.370 -1.0317 -0.6224  0.0915
11900TIP3    H257192   4.818   4.084   4.349 -0.2891  1.3161 -0.1860
11901TIP3   OH257193   6.468   2.860   4.693  0.0478 -0.1212  0.4233
11901TIP3    H157194   6.380   2.892   4.714  0.3087 -0.4571  2.1939
11901TIP3    H257195   6.471   2.859   4.597 -1.6437  0.5047  0.3284
11902TIP3   OH257196   0.922   6.688  13.834  0.0454 -0.0609 -0.3433
11902TIP3    H157197   0.966   6.637  13.766 -0.4683 -0.2647 -0.5299
11902TIP3    H257198   0.975   6.674  13.912 -0.5689 -1.6275 -0.1675
11903TIP3   OH257199   4.578   3.705   5.873  0.1951 -0.4742  0.2340
11903TIP3    H157200   4.579   3.702   5.778 -1.6074 -2.7230  0.2152
11903TIP3    H257201   4.523   3.780   5.895 -0.5228 -0.7679 -0.5295
11904TIP3   OH257202   3.621   0.109  16.486 -0.2420  0.3661  0.0045
11904TIP3    H157203   3.701   0.093  16.435 -0.1923 -3.1733  0.9387
11904TIP3    H257204   3.550   0.099  16.422 -0.0680  1.8628 -0.4774
11905TIP3   OH257205   1.144   3.997  15.783  0.8378  0.2743  0.2983
11905TIP3    H157206   1.185   3.977  15.867  1.5215  0.8739  0.1276
11905TIP3    H257207   1.122   4.090  15.789  2.5827  0.8260 -0.8274
11906TIP3   OH257208   5.660   3.036  15.598  0.2280 -0.3910  0.2660
11906TIP3    H157209   5.689   3.028  15.689 -0.4293 -2.6459  0.3403
11906TIP3    H257210   5.733   3.004  15.546 -0.4472 -1.9662  0.2189
11907TIP3   OH257211   6.702   5.191   2.066  0.2534  0.1166  0.1268
11907TIP3    H157212   6.636   5.231   2.010  0.8172 -1.2091 -1.5885
11907TIP3    H257213   6.784   5.235   2.042  0.2710  0.5824  1.0160
11908TIP3   OH257214   4.768   0.610  11.902 -0.2425 -0.2793 -0.0320
11908TIP3    H157215   4.827   0.595  11.976 -0.7564  0.0021  0.4413
11908TIP3    H257216   4.819   0.662  11.841 -0.2854  0.7411  0.7699
11909TIP3   OH257217   3.740   1.723   0.357 -0.2432  0.0619  0.7615
11909TIP3    H157218   3.685   1.800   0.348 -0.3008  0.0105  0.6723
11909TIP3    H257219   3.707   1.662   0.290 -0.2829 -0.0889  0.9181
11910TIP3   OH257220   3.771   1.937   0.917  0.2360 -0.1981  0.3566
11910TIP3    H157221   3.768   1.942   1.013  0.3935 -1.8534  0.4879
11910TIP3    H257222   3.769   1.843   0.899 -2.3779  0.0714 -1.3603
11911TIP3   OH257223   2.680   0.747   2.467  0.4434 -0.2023  0.0904
11911TIP3    H157224   2.605   0.754   2.407  1.2341 -0.4017 -0.9533
11911TIP3    H257225   2.641   0.723   2.551 -0.6458 -0.5524 -0.4883
11912TIP3   OH257226   5.884   0.310  13.498  0.5898 -0.3934 -0.0356
11912TIP3    H157227   5.975   0.342  13.501  0.0256  1.7337 -2.3552
11912TIP3    H257228   5.841   0.355  13.571  1.3694 -1.5802  1.2188
11913TIP3   OH257229   2.622   3.869   5.659  0.3024  0.0606  0.1324
11913TIP3    H157230   2.619   3.860   5.754  2.6941  1.1457  0.3802
11913TIP3    H257231   2.577   3.952   5.642 -2.6571 -1.4644 -0.0456
11914TIP3   OH257232   1.720   2.185   2.937  0.5315 -0.6420 -0.3733
11914TIP3    H157233   1.672   2.157   2.859  1.3329 -0.6418 -0.8813
11914TIP3    H257234   1.653   2.218   2.997 -0.2514 -2.0292 -0.4576
11915TIP3   OH257235   3.902   2.534   1.513 -0.0779  0.1054  0.1918
11915TIP3    H157236   3.952   2.614   1.528  2.6352 -1.8559  3.0558
11915TIP3    H257237   3.886   2.499   1.601  0.3474 -3.3017 -0.9492
11916TIP3   OH257238   4.493   2.905   5.925 -0.4518 -0.5593 -0.5269
11916TIP3    H157239   4.418   2.876   5.977 -0.1543 -1.4224 -0.5587
11916TIP3    H257240   4.549   2.952   5.987 -0.1354 -1.5173 -0.0617
11917TIP3   OH257241   2.996   1.698   2.679 -0.5166 -0.8752 -0.3428
11917TIP3    H157242   3.011   1.647   2.599  1.5200  0.7702 -1.1137
11917TIP3    H257243   3.046   1.651   2.747  0.5585 -0.4606 -0.8278
11918TIP3   OH257244   0.952   5.601   1.106  0.2780 -0.1925  0.4924
11918TIP3    H157245   1.045   5.604   1.129  0.5418 -1.8086 -0.2107
11918TIP3    H257246   0.915   5.534   1.164  0.4769 -2.6241 -1.9638
11919TIP3   OH257247   6.724   1.976   4.873 -0.2663  0.3796  0.0446
11919TIP3    H157248   6.770   1.895   4.852  0.2408  1.2341 -2.4169
11919TIP3    H257249   6.789   2.045   4.859 -1.2735  1.3642  0.0819
11920TIP3   OH257250   1.980   3.626   1.040  0.4399 -0.5700  0.4697
11920TIP3    H157251   2.009   3.717   1.049  1.6657 -0.5394 -2.5078
11920TIP3    H257252   1.999   3.586   1.124  0.2030  1.8105  1.7440
11921TIP3   OH257253   0.967   3.071   0.091  0.0347  0.3869  0.1126
11921TIP3    H157254   0.943   2.986   0.054  0.9591 -0.0116  0.3796
11921TIP3    H257255   0.902   3.132   0.057  1.5139  0.2980 -3.2698
11922TIP3   OH257256   2.776   0.417   5.764 -0.2276 -0.5069  0.2975
11922TIP3    H157257   2.829   0.361   5.707  0.1078 -1.3141  1.3735
11922TIP3    H257258   2.835   0.440   5.836 -0.3696  1.2288 -0.1022
11923TIP3   OH257259   0.306   4.991  14.938  0.4853  0.2658 -0.0115
11923TIP3    H157260   0.250   5.016  15.011  1.2737  2.3862 -0.0706
11923TIP3    H257261   0.309   4.895  14.942 -1.5004  0.2034  1.1769
11924TIP3   OH257262   1.921   2.365  17.213 -0.8667 -0.6354  0.8601
11924TIP3    H157263   1.905   2.324  17.128 -2.4064  1.2334  0.1747
11924TIP3    H257264   1.837   2.360  17.258 -0.4575 -0.2728  1.6854
11925TIP3   OH257265   0.159   5.981  17.374 -0.4891  0.6141  0.2465
11925TIP3    H157266   0.247   6.014  17.361 -0.1945 -0.2543 -0.0418
11925TIP3    H257267   0.128   6.025  17.453  0.4973  0.3317  0.8093
11926TIP3   OH257268   0.529   2.484  16.987  0.3728 -0.4651  0.6417
11926TIP3    H157269   0.575   2.553  16.939 -0.5146  0.6875  1.4068
11926TIP3    H257270   0.514   2.415  16.921  1.4406 -0.0322 -0.0797
11927TIP3   OH257271   0.155   5.770   0.691 -0.8307  0.5577 -0.0536
11927TIP3    H157272   0.232   5.819   0.719 -0.5300  0.1841 -0.2176
11927TIP3    H257273   0.189   5.705   0.629 -0.9123 -1.1879  1.6540
11928TIP3   OH257274   3.265   4.838  12.877 -0.3850 -0.0773  0.3150
11928TIP3    H157275   3.210   4.759  12.876 -0.6124  0.0784  0.3025
11928TIP3    H257276   3.219   4.898  12.936  0.1070 -0.1744  0.8031
11929TIP3   OH257277   1.491   3.016   1.390  0.6301 -0.2098 -0.2440
11929TIP3    H157278   1.537   2.992   1.310  1.0959  0.3838 -0.1648
11929TIP3    H257279   1.430   3.085   1.364  1.3111  0.5239  0.0248
11930TIP3   OH257280   3.850   6.135   5.791 -0.0184  1.2453 -0.3611
11930TIP3    H157281   3.803   6.054   5.810  1.2155  0.5234 -0.2486
11930TIP3    H257282   3.854   6.140   5.696  0.4381  0.8344 -0.3686
11931TIP3   OH257283   5.863   3.251   2.655 -0.0246 -0.4313  0.2872
11931TIP3    H157284   5.778   3.286   2.626 -0.6253 -1.3229  0.9154
11931TIP3    H257285   5.846   3.218   2.743  0.6666 -1.6947 -0.0254
11932TIP3   OH257286   3.225   4.606   2.195 -0.1692 -0.2920 -0.7154
11932TIP3    H157287   3.204   4.518   2.164  0.0430 -0.6192  0.0391
11932TIP3    H257288   3.286   4.640   2.131  0.6190 -1.1263 -0.4290
11933TIP3   OH257289   4.971   0.879  15.909 -0.0821 -0.3179 -0.2772
11933TIP3    H157290   4.988   0.972  15.923 -0.5537 -0.4088  0.9826
11933TIP3    H257291   4.882   0.875  15.875  0.5660 -0.2064 -2.1268
11934TIP3   OH257292   3.479   3.299   2.956 -0.1421 -0.1543 -0.6589
11934TIP3    H157293   3.384   3.303   2.962 -0.3437 -2.0712 -1.7219
11934TIP3    H257294   3.510   3.298   3.047 -0.8810  3.4107 -0.2344
11935TIP3   OH257295   1.946   6.138   3.251  0.0016  0.3199  0.2603
11935TIP3    H157296   1.900   6.182   3.322  0.8028 -0.6347  1.4165
11935TIP3    H257297   1.882   6.135   3.179 -2.0810 -1.6470  2.0412
11936TIP3   OH257298   0.251   6.305  14.965  0.3236  0.1323  0.0564
11936TIP3    H157299   0.335   6.299  14.920 -0.8484  0.1727 -2.2909
11936TIP3    H257300   0.269   6.274  15.054  2.8623  0.4758 -0.2683
11937TIP3   OH257301   5.135   2.286  17.470  0.6459  0.1408  0.1145
11937TIP3    H157302   5.102   2.279  17.380  0.4326 -0.4307  0.2352
11937TIP3    H257303   5.061   2.259  17.525  0.8148  0.3756  0.4551
11938TIP3   OH257304   3.273   6.307  12.867  0.1089 -0.2719  0.1167
11938TIP3    H157305   3.257   6.401  12.871  2.1048  0.0865  1.3464
11938TIP3    H257306   3.317   6.293  12.783  1.4664  0.2255  0.7216
11939TIP3   OH257307   0.141   5.406   0.698  0.1735 -0.2065  0.1913
11939TIP3    H157308   0.165   5.385   0.788 -0.0723  0.3353  0.3863
11939TIP3    H257309   0.046   5.415   0.699 -0.0622 -2.1586 -0.5430
11940TIP3   OH257310   3.620   4.751   1.292  0.0840  0.5550  0.1447
11940TIP3    H157311   3.707   4.746   1.332 -0.0233 -0.0615  0.3113
11940TIP3    H257312   3.560   4.759   1.367 -0.0606  0.1695  0.0714
11941TIP3   OH257313   5.251   0.450  14.863  0.2085  0.0753 -0.1829
11941TIP3    H157314   5.174   0.394  14.864  1.3714 -1.6326 -0.9536
11941TIP3    H257315   5.242   0.505  14.941 -1.0979 -1.0238  0.4795
11942TIP3   OH257316   6.726   5.125  15.379 -0.1170  0.0174 -0.0027
11942TIP3    H157317   6.669   5.069  15.432 -0.6131  0.5434  0.0231
11942TIP3    H257318   6.797   5.150  15.437 -0.1689 -0.1596  0.1371
11943TIP3   OH257319   3.336   6.305  16.834 -0.5269 -0.1588 -0.1923
11943TIP3    H157320   3.357   6.346  16.750 -0.7767  0.1781 -0.0920
11943TIP3    H257321   3.288   6.225  16.810 -0.2317 -0.2822 -0.3778
11944TIP3   OH257322   0.930   0.059   2.413  0.3333 -0.1432 -0.1044
11944TIP3    H157323   0.867   0.066   2.342  0.6054 -0.8728 -0.4261
11944TIP3    H257324   0.913  -0.027   2.451  0.3413  0.1500  0.5738
11945TIP3   OH257325   4.667   3.159   2.896 -0.1485 -0.2959 -0.1235
11945TIP3    H157326   4.654   3.088   2.834  1.8814 -1.4693  0.6947
11945TIP3    H257327   4.688   3.235   2.841 -0.1697 -0.8586 -0.9267
11946TIP3   OH257328   1.812   3.278  12.090  0.2065 -0.2399 -0.3921
11946TIP3    H157329   1.831   3.338  12.018 -1.0337  0.8120  0.1218
11946TIP3    H257330   1.793   3.194  12.046 -3.7741  1.1090 -1.6809
11947TIP3   OH257331   6.471   3.270   6.699 -0.0847 -0.2025 -0.2044
11947TIP3    H157332   6.559   3.281   6.664 -0.5892 -0.3403 -1.6200
11947TIP3    H257333   6.434   3.198   6.647 -0.7411 -0.7204  0.9506
11948TIP3   OH257334   0.183   5.805  12.734  0.4425  0.1569 -0.5325
11948TIP3    H157335   0.098   5.844  12.752  0.2584  0.0513 -1.1692
11948TIP3    H257336   0.177   5.716  12.769  0.5980  0.4319  0.2143
11949TIP3   OH257337   0.356   3.216  14.354  0.0593 -0.4514 -0.0207
11949TIP3    H157338   0.306   3.141  14.321  2.0746 -1.3489 -1.2443
11949TIP3    H257339   0.432   3.177  14.398 -0.2321  0.8543  1.7392
11950TIP3   OH257340   3.475   5.016   2.707  0.7338 -0.1421 -0.4702
11950TIP3    H157341   3.460   5.097   2.659  3.2207  0.9521  0.4798
11950TIP3    H257342   3.530   4.963   2.648  0.2135 -0.6138 -0.5447
11951TIP3   OH257343   6.030   5.892  11.168  0.4209  0.1315  0.9891
11951TIP3    H157344   6.070   5.900  11.081  0.6718 -3.6768  0.6073
11951TIP3    H257345   6.069   5.813  11.205 -2.3296 -0.3744  3.0941
11952TIP3   OH257346   5.264   0.418  11.712  0.0313 -0.1135  0.3495
11952TIP3    H157347   5.207   0.410  11.789  0.8582 -0.9690  0.8891
11952TIP3    H257348   5.204   0.442  11.641 -0.8345  0.0972  1.1252
11953TIP3   OH257349   5.361   4.537   6.281 -0.2043 -0.2625  0.2960
11953TIP3    H157350   5.351   4.630   6.262 -2.1092 -0.1863  1.3502
11953TIP3    H257351   5.271   4.505   6.292  0.2312 -2.7232 -2.1076
11954TIP3   OH257352   3.381   2.169   3.816 -0.2173  0.0424 -0.1205
11954TIP3    H157353   3.392   2.111   3.741 -0.3647  0.6337 -0.6071
11954TIP3    H257354   3.302   2.219   3.797 -0.5928 -0.2154  0.7094
11955TIP3   OH257355   5.432   3.357   5.794  0.1568 -0.4813 -0.4737
11955TIP3    H157356   5.388   3.361   5.709 -0.2037 -1.9025 -0.3846
11955TIP3    H257357   5.525   3.369   5.774 -0.0413  0.3971 -0.9138
11956TIP3   OH257358   3.490   1.816   0.381  0.2331  0.0909  0.4579
11956TIP3    H157359   3.457   1.726   0.374  1.1861 -0.1637 -1.6257
11956TIP3    H257360   3.413   1.870   0.363 -0.1553 -0.3384  0.8054
11957TIP3   OH257361   4.361   6.586  16.986  0.2728  0.4130 -0.0828
11957TIP3    H157362   4.309   6.659  17.019 -0.4409  1.4563 -3.2115
11957TIP3    H257363   4.309   6.550  16.914  2.6326 -0.2382 -1.5786
11958TIP3   OH257364   4.041   1.097   4.078 -0.2623  0.2452  0.2831
11958TIP3    H157365   4.038   1.116   3.984 -1.0541 -0.0556  0.2392
11958TIP3    H257366   4.083   1.174   4.117 -0.6128  0.7111 -0.2385
11959TIP3   OH257367   4.812   5.420   5.991 -0.2523  0.2076 -0.1056
11959TIP3    H157368   4.844   5.354   6.051  1.1599 -1.1952 -2.2543
11959TIP3    H257369   4.753   5.475   6.044  2.0377  0.0246  2.8746
11960TIP3   OH257370   1.258   0.879   4.143 -0.2500  0.2202  0.2831
11960TIP3    H157371   1.215   0.824   4.209 -0.3448  0.2366  0.2359
11960TIP3    H257372   1.286   0.957   4.192 -3.7043  2.0553 -0.3465
11961TIP3   OH257373   0.827   0.326   2.377  0.3717  0.0910  0.4628
11961TIP3    H157374   0.872   0.257   2.426  1.0181 -1.0367 -1.5862
11961TIP3    H257375   0.891   0.355   2.312 -1.0628  0.1383 -0.9950
11962TIP3   OH257376   4.055   5.344   1.136 -0.7070 -0.3392 -0.0060
11962TIP3    H157377   4.127   5.384   1.088  0.7477 -0.2956  2.0829
11962TIP3    H257378   4.059   5.251   1.112  0.1195 -0.3529  0.1419
11963TIP3   OH257379   5.640   4.864   0.489  0.1622 -0.0688  0.2789
11963TIP3    H157380   5.572   4.799   0.471 -0.0779  0.7536 -2.0039
11963TIP3    H257381   5.720   4.812   0.498 -0.5267 -0.9463  1.9351
11964TIP3   OH257382   2.301   3.726  13.775 -0.1124  0.5865 -0.1230
11964TIP3    H157383   2.393   3.729  13.750 -0.3463  0.1836 -1.0683
11964TIP3    H257384   2.268   3.815  13.762 -0.1688  0.4408 -1.0587
11965TIP3   OH257385   0.595   6.091  12.334  0.3748 -0.5010  0.3230
11965TIP3    H157386   0.549   6.021  12.288  1.5421 -0.4018 -1.0606
11965TIP3    H257387   0.662   6.046  12.386  1.0744 -0.4351 -0.5054
11966TIP3   OH257388   3.639   1.688   4.816  0.8468  0.4717 -0.3007
11966TIP3    H157389   3.672   1.676   4.727  0.7705  0.0867 -0.2832
11966TIP3    H257390   3.582   1.612   4.829  1.5062  0.0817  0.3734
11967TIP3   OH257391   1.548   4.058   1.846 -0.7605 -0.0950 -0.0588
11967TIP3    H157392   1.627   4.112   1.840 -0.2638 -0.3252  2.9047
11967TIP3    H257393   1.569   3.979   1.798 -0.9649  1.5910 -3.2243
11968TIP3   OH257394   1.275   0.635   5.439  0.1264 -0.3155  0.1178
11968TIP3    H157395   1.244   0.721   5.465 -1.8373 -1.2489  1.0955
11968TIP3    H257396   1.370   0.638   5.453 -0.0608  1.2717  1.3062
11969TIP3   OH257397   4.269   2.343   0.032 -0.4904 -0.3969  0.1461
11969TIP3    H157398   4.194   2.284   0.022 -1.1563  0.4383  0.0439
11969TIP3    H257399   4.326   2.299   0.095 -2.3043  0.0886  2.2785
11970TIP3   OH257400   5.972   3.214  11.097 -0.6751  0.2311 -0.2515
11970TIP3    H157401   5.938   3.270  11.167  0.2216 -1.4741  1.6573
11970TIP3    H257402   5.910   3.224  11.026 -1.5490  2.1858  0.7183
11971TIP3   OH257403   0.004   4.550   0.540  0.2474  0.8302 -0.5058
11971TIP3    H157404   0.007   4.478   0.477 -0.8531 -1.0886  1.4679
11971TIP3    H257405   0.094   4.582   0.544  0.6719 -0.0941 -1.8191
11972TIP3   OH257406   0.570   2.533  14.527  0.7697  0.0897 -0.4691
11972TIP3    H157407   0.662   2.548  14.506  0.1726  1.3864 -2.4682
11972TIP3    H257408   0.537   2.620  14.550  0.4489 -0.6709  2.3176
11973TIP3   OH257409   2.107   4.261   2.420 -0.1808  0.1463 -0.1167
11973TIP3    H157410   2.068   4.314   2.350  0.0971  0.3688 -0.1067
11973TIP3    H257411   2.173   4.319   2.460  2.6703 -1.2786 -2.3470
11974TIP3   OH257412   2.482   5.706   1.590  0.5399 -0.1992 -0.0103
11974TIP3    H157413   2.419   5.754   1.643  1.3704  1.6154 -0.5696
11974TIP3    H257414   2.429   5.653   1.531 -0.5740  2.1912 -1.2900
11975TIP3   OH257415   5.277   2.613  13.103  0.6525  0.8232 -0.2045
11975TIP3    H157416   5.364   2.646  13.082  1.4781 -1.2606 -0.3659
11975TIP3    H257417   5.276   2.606  13.199  0.7559  0.6242 -0.2179
11976TIP3   OH257418   1.006   0.788   3.124  0.0501 -0.1621 -0.3098
11976TIP3    H157419   0.933   0.837   3.086  0.3232 -0.9979 -2.0000
11976TIP3    H257420   0.976   0.763   3.211 -0.7448  1.5118 -0.0670
11977TIP3   OH257421   0.356   2.102  11.913  0.0832 -0.0726 -0.3541
11977TIP3    H157422   0.333   2.099  11.821  1.3119 -0.6057 -0.6663
11977TIP3    H257423   0.434   2.159  11.916  0.0694 -0.0817  0.3454
11978TIP3   OH257424   2.753   5.147  15.413  1.1235 -0.0461  0.4067
11978TIP3    H157425   2.801   5.080  15.364  0.3088 -2.1228  2.2480
11978TIP3    H257426   2.739   5.218  15.350  2.6510 -1.2827 -1.4488
11979TIP3   OH257427   4.728   6.073   5.961  0.3583 -0.2795 -0.2763
11979TIP3    H157428   4.783   6.139   5.920  0.4512 -0.7464 -0.9082
11979TIP3    H257429   4.673   6.122   6.022  0.2716  0.4041 -0.9006
11980TIP3   OH257430   1.160   5.669   0.465 -0.0900 -0.0961 -0.6695
11980TIP3    H157431   1.096   5.686   0.534  0.6065  0.6205 -0.1880
11980TIP3    H257432   1.201   5.586   0.491  0.8957  0.6775  0.3679
11981TIP3   OH257433   5.829   6.378  11.698 -0.2352 -0.1735 -0.2684
11981TIP3    H157434   5.779   6.380  11.780  0.3828 -1.2536  0.1528
11981TIP3    H257435   5.838   6.285  11.677  1.6829 -0.0346 -0.2567
11982TIP3   OH257436   4.144   2.176   0.880  0.4575  0.2544  0.1834
11982TIP3    H157437   4.190   2.180   0.964  0.7828 -0.8061  0.0618
11982TIP3    H257438   4.100   2.092   0.881  1.3667 -0.2651 -1.1766
11983TIP3   OH257439   4.197   5.710   4.289  0.0017 -0.1964 -0.4115
11983TIP3    H157440   4.191   5.679   4.379  0.0323  2.9745  0.7838
11983TIP3    H257441   4.286   5.686   4.262  0.1831 -0.6979  0.5786
11984TIP3   OH257442   2.667   6.467  15.893  0.4399  0.5118 -0.1248
11984TIP3    H157443   2.680   6.382  15.936  1.4987  0.0256 -1.3350
11984TIP3    H257444   2.736   6.523  15.929  0.7723  0.3648 -0.5252
11985TIP3   OH257445   5.950   1.578   1.879  0.1701 -0.8950  0.4357
11985TIP3    H157446   6.013   1.634   1.925 -0.6426  0.5545 -0.1630
11985TIP3    H257447   6.000   1.538   1.809  0.5488 -0.1412  0.2681
11986TIP3   OH257448   6.379   4.431   2.989 -0.2791  0.1123 -0.0134
11986TIP3    H157449   6.288   4.427   3.019  0.2317  1.9892  2.0212
11986TIP3    H257450   6.417   4.348   3.016 -1.6018 -1.1932 -1.8935
11987TIP3   OH257451   3.198   4.166   2.736  0.8395 -0.3888  0.7195
11987TIP3    H157452   3.102   4.159   2.739  0.6214  0.4990 -1.6946
11987TIP3    H257453   3.229   4.096   2.794 -1.2409  0.0929  2.5564
11988TIP3   OH257454   4.710   3.544  16.564 -0.1345 -0.0558 -0.1133
11988TIP3    H157455   4.656   3.473  16.598 -1.6685  0.6242 -1.0093
11988TIP3    H257456   4.672   3.564  16.478  0.5748  1.4846 -0.1108
11989TIP3   OH257457   5.469   5.238  16.816  0.5221 -0.3127  0.1274
11989TIP3    H157458   5.528   5.286  16.875  2.4725  0.9781 -2.6287
11989TIP3    H257459   5.431   5.170  16.871  0.3769  2.1536  3.4012
11990TIP3   OH257460   3.397   3.520   4.284  0.3634  0.0699  0.6857
11990TIP3    H157461   3.488   3.505   4.258  1.2307  2.1463  2.2275
11990TIP3    H257462   3.351   3.532   4.202  1.5429 -0.5925 -0.1195
11991TIP3   OH257463   4.167   6.665  11.131 -0.4052  0.1445 -0.2320
11991TIP3    H157464   4.194   6.599  11.068 -1.2342 -0.6188  0.1934
11991TIP3    H257465   4.183   6.749  11.087  1.9101 -0.2557 -0.2792
11992TIP3   OH257466   2.053   4.226  16.315  0.0694  0.2053 -0.5454
11992TIP3    H157467   1.991   4.243  16.386  2.2367  0.3010  1.4789
11992TIP3    H257468   2.090   4.140  16.336  1.4487  0.6606 -0.9745
11993TIP3   OH257469   0.779   1.872  16.921 -0.0620 -0.3306 -0.3677
11993TIP3    H157470   0.798   1.883  16.828 -0.0092  0.4199 -0.2758
11993TIP3    H257471   0.714   1.941  16.941  0.4953  0.0117  0.3165
11994TIP3   OH257472   4.656   5.213  15.419 -0.1461  0.6743  0.0134
11994TIP3    H157473   4.682   5.129  15.380 -1.7559  1.0857 -2.1400
11994TIP3    H257474   4.703   5.278  15.368 -1.8559  1.2070 -0.9733
11995TIP3   OH257475   0.661   0.411   4.988 -0.2816 -0.2834 -0.8986
11995TIP3    H157476   0.698   0.375   5.068 -1.1917  0.3326 -0.1924
11995TIP3    H257477   0.713   0.490   4.971 -2.4203  1.7370  1.2108
11996TIP3   OH257478   2.933   0.016   1.800 -0.6636  0.1786 -0.1928
11996TIP3    H157479   2.976   0.060   1.873 -1.8892  1.9165 -0.4292
11996TIP3    H257480   2.842   0.007   1.827 -1.0299  0.3800 -1.2858
11997TIP3   OH257481   5.273   0.357  12.124  0.1470  0.5087 -0.1535
11997TIP3    H157482   5.248   0.377  12.215 -2.2344 -0.3997 -0.5404
11997TIP3    H257483   5.298   0.265  12.126 -1.5042  0.0202 -0.6708
11998TIP3   OH257484   4.367   0.127  12.143 -0.3084 -0.0717  0.1281
11998TIP3    H157485   4.450   0.162  12.109 -0.6398  1.3482  0.6977
11998TIP3    H257486   4.302   0.154  12.077 -0.4783 -0.2054  0.2417
11999TIP3   OH257487   5.675   6.077   3.370  0.4675 -0.4272 -0.2009
11999TIP3    H157488   5.744   6.028   3.414  1.6311  0.8794 -0.5279
11999TIP3    H257489   5.596   6.058   3.422  1.5235 -0.0346  1.6351
12000TIP3   OH257490   5.408   3.454   2.301  0.0861 -0.8716 -0.5726
12000TIP3    H157491   5.493   3.418   2.326  0.5353  0.8615  0.5833
12000TIP3    H257492   5.353   3.440   2.379 -0.0854 -0.2148 -0.5690
12001TIP3   OH257493   5.385   3.737   5.932 -0.1148 -0.3827 -0.4549
12001TIP3    H157494   5.321   3.701   5.870  0.0279  0.1522 -0.9309
12001TIP3    H257495   5.354   3.827   5.948 -0.0413 -0.4572  0.1020
12002TIP3   OH257496   5.069   0.778  17.324  0.2879  0.0978  0.1597
12002TIP3    H157497   5.144   0.813  17.276  0.6463  1.1990  1.4644
12002TIP3    H257498   5.069   0.685  17.303  1.4389  0.2475 -0.6252
12003TIP3   OH257499   5.457   4.996   3.097 -0.6389 -0.4928 -1.1069
12003TIP3    H157500   5.413   5.066   3.145  0.8217 -1.0805  1.2718
12003TIP3    H257501   5.387   4.954   3.046 -2.0959  0.8269 -0.2742
12004TIP3   OH257502   0.226   1.564   1.965 -0.3470  0.2426 -0.0198
12004TIP3    H157503   0.197   1.494   2.024 -1.4482 -0.2479 -1.1036
12004TIP3    H257504   0.152   1.624   1.962  0.9203  1.9836  1.6097
12005TIP3   OH257505   2.942   1.334   2.283 -0.4568 -0.1824  0.4449
12005TIP3    H157506   2.846   1.327   2.281 -0.4774  0.0899  0.4660
12005TIP3    H257507   2.962   1.408   2.225 -0.2870  0.0248  0.7682
12006TIP3   OH257508   1.394   5.647  12.832  0.5021  0.4496 -0.2768
12006TIP3    H157509   1.370   5.625  12.921  1.0950  1.6398  0.1963
12006TIP3    H257510   1.426   5.737  12.836  0.7429  0.4620 -1.6470
12007TIP3   OH257511   4.409   4.044  15.449 -0.3675 -0.1362 -0.0581
12007TIP3    H157512   4.395   4.003  15.364  0.1901 -2.3592  0.8438
12007TIP3    H257513   4.491   4.006  15.480  0.0823  1.5831  0.9544
12008TIP3   OH257514   1.848   3.984   1.888 -0.1106 -0.6302  0.1712
12008TIP3    H157515   1.775   3.950   1.939  0.1555  1.1856  1.8744
12008TIP3    H257516   1.923   3.931   1.915 -0.5585 -1.8649 -0.8772
12009TIP3   OH257517   2.670   5.494  13.073 -0.1678  0.1550  0.5463
12009TIP3    H157518   2.622   5.567  13.035 -1.0256 -0.6858 -0.0336
12009TIP3    H257519   2.698   5.442  12.997  0.3092 -0.1915  0.9520
12010TIP3   OH257520   4.182   4.321  11.480 -0.4948  0.0255 -0.6472
12010TIP3    H157521   4.259   4.374  11.501 -1.8567  1.7019  0.4176
12010TIP3    H257522   4.161   4.276  11.562 -0.6947 -0.3799 -0.9166
12011TIP3   OH257523   4.116   4.341   6.802 -0.3750 -0.3018 -0.1620
12011TIP3    H157524   4.146   4.369   6.888 -3.0418  1.3273  0.3315
12011TIP3    H257525   4.028   4.378   6.793  0.1355  0.4974 -3.9795
12012TIP3   OH257526   3.099   1.121  13.099  0.3528 -0.4176  0.2438
12012TIP3    H157527   3.047   1.188  13.143 -0.8752  0.2432 -2.0059
12012TIP3    H257528   3.186   1.161  13.089  0.1194  0.1576  0.4596
12013TIP3   OH257529   5.412   1.569  17.127 -0.5436  0.3511  0.2059
12013TIP3    H157530   5.361   1.491  17.147 -1.7569  1.4172  1.4700
12013TIP3    H257531   5.459   1.589  17.208 -0.3314  0.9942 -0.0670
12014TIP3   OH257532   2.519   1.953   2.759  0.1320 -0.3018  0.2495
12014TIP3    H157533   2.476   1.923   2.679  0.9058  0.1033 -0.3265
12014TIP3    H257534   2.483   1.896   2.828  0.2895 -1.3925 -0.5497
12015TIP3   OH257535   4.026   5.476  15.096 -0.5081 -0.2602  0.2896
12015TIP3    H157536   3.996   5.396  15.138 -0.0787 -0.9151 -0.6239
12015TIP3    H257537   4.121   5.468  15.094 -0.4117  0.6109  0.8276
12016TIP3   OH257538   0.369   1.407  13.469  0.0693  0.2323  0.0543
12016TIP3    H157539   0.277   1.380  13.472 -0.4414  1.7477 -0.7845
12016TIP3    H257540   0.418   1.327  13.486 -1.4056 -0.4534  1.4106
12017TIP3   OH257541   6.031   3.733  17.019  0.1829 -0.3271 -0.3295
12017TIP3    H157542   6.114   3.705  16.981  0.8023 -0.0441  0.7934
12017TIP3    H257543   6.053   3.766  17.106 -1.0773 -0.0703 -0.0788
12018TIP3   OH257544   5.611   2.777  15.317  0.0799 -0.3400 -0.1189
12018TIP3    H157545   5.582   2.866  15.297  1.4446 -0.0101 -0.7545
12018TIP3    H257546   5.651   2.746  15.236  1.3685 -0.8014  0.6603
12019TIP3   OH257547   2.231   1.430  16.468  0.0122  0.2181 -0.3610
12019TIP3    H157548   2.188   1.410  16.551 -0.1281  0.5002 -0.3660
12019TIP3    H257549   2.189   1.510  16.437  0.2575  0.2688 -0.5669
12020TIP3   OH257550   3.915   6.055   1.543 -0.5168 -0.2989 -0.4216
12020TIP3    H157551   3.976   6.029   1.612 -1.0343  2.3163  1.1657
12020TIP3    H257552   3.856   5.980   1.533  1.3657 -1.8858 -0.2011
12021TIP3   OH257553   3.830   5.271   4.528 -0.0284 -0.4614  0.1924
12021TIP3    H157554   3.736   5.268   4.514 -0.4994  0.0251  2.8077
12021TIP3    H257555   3.857   5.355   4.492 -0.7827 -0.1524  0.3290
12022TIP3   OH257556   2.564   0.551  12.113  0.4192 -0.1891 -0.0148
12022TIP3    H157557   2.604   0.465  12.100 -2.2699 -1.7284  0.9734
12022TIP3    H257558   2.604   0.606  12.046  1.9403 -2.3002 -0.9764
12023TIP3   OH257559   0.032   0.085  12.087 -0.4235 -0.0384  0.1494
12023TIP3    H157560   0.010   0.177  12.074  0.6650  0.5847  2.2429
12023TIP3    H257561  -0.028   0.055  12.156 -1.7476 -1.3720 -1.4768
12024TIP3   OH257562   4.056   4.002   5.767  0.3713  0.1371  0.1261
12024TIP3    H157563   4.025   3.930   5.821 -0.7879  0.9808  0.6117
12024TIP3    H257564   3.985   4.018   5.704  0.4558  1.0842  0.2521
12025TIP3   OH257565   4.367   4.133  14.859  0.0624  0.6099  0.2348
12025TIP3    H157566   4.402   4.120  14.947  0.7312  1.7381  0.1508
12025TIP3    H257567   4.307   4.207  14.868 -0.6278  0.1038 -0.0746
12026TIP3   OH257568   1.402   0.110  11.457  0.1082 -0.2141 -0.1418
12026TIP3    H157569   1.406   0.189  11.510  0.7495 -0.1046 -0.3526
12026TIP3    H257570   1.420   0.139  11.368 -0.5902 -0.4564 -0.3673
12027TIP3   OH257571   4.523   4.402  16.877  0.3670 -0.4382  0.3455
12027TIP3    H157572   4.438   4.417  16.834  0.3836 -1.5981 -0.1269
12027TIP3    H257573   4.544   4.311  16.856  0.6162 -0.8967  2.4350
12028TIP3   OH257574   1.673   3.680  17.054  0.0324 -0.4294  0.3448
12028TIP3    H157575   1.686   3.678  17.148 -0.6050  0.3476  0.4549
12028TIP3    H257576   1.578   3.677  17.042  0.1102 -0.6859 -0.2776
12029TIP3   OH257577   6.361   2.600  13.447  0.1835 -0.5668  0.2439
12029TIP3    H157578   6.278   2.564  13.478 -0.4613  0.2108 -0.5325
12029TIP3    H257579   6.416   2.524  13.430  0.6093 -1.0751  3.2723
12030TIP3   OH257580   2.308   6.541  11.660 -0.0024 -0.3397 -0.7030
12030TIP3    H157581   2.399   6.571  11.662 -0.4828  1.3258  1.8060
12030TIP3    H257582   2.312   6.447  11.678  1.2125  0.2441  2.9334
12031TIP3   OH257583   3.346   5.722   0.619  0.1329 -0.5753  0.1046
12031TIP3    H157584   3.414   5.752   0.559 -0.7696 -1.6127 -1.5262
12031TIP3    H257585   3.280   5.791   0.618  0.7066 -0.0046  0.9381
12032TIP3   OH257586   4.344   5.766  17.596  0.3137 -0.3990 -0.7345
12032TIP3    H157587   4.370   5.720  17.516 -0.4730 -1.5448 -0.3422
12032TIP3    H257588   4.404   5.734  17.663  1.4798  1.1288 -0.9765
12033TIP3   OH257589   6.561   2.673   6.398  0.6654 -0.4085 -0.0865
12033TIP3    H157590   6.651   2.661   6.366  1.4930  0.0188  1.9513
12033TIP3    H257591   6.569   2.671   6.493 -1.7510 -2.1945  0.1634
12034TIP3   OH257592   5.452   5.370   0.408 -0.5711 -0.3952  0.1512
12034TIP3    H157593   5.512   5.304   0.441 -2.0299 -2.6291 -1.3177
12034TIP3    H257594   5.365   5.330   0.417 -1.3562  0.4148 -2.6378
12035TIP3   OH257595   5.549   3.972   5.542 -0.5866  0.8247  0.1388
12035TIP3    H157596   5.557   4.066   5.562 -0.0714  0.6192  0.9616
12035TIP3    H257597   5.584   3.929   5.620  0.3211 -0.0428 -0.7256
12036TIP3   OH257598   1.514   3.773  14.092  0.5081 -0.1804 -0.1979
12036TIP3    H157599   1.430   3.769  14.047  0.3773  2.1101 -0.2785
12036TIP3    H257600   1.542   3.682  14.100  0.0573 -0.8037 -3.9902
12037TIP3   OH257601   2.574   2.768  16.530 -0.1395 -1.0384  0.3700
12037TIP3    H157602   2.513   2.766  16.457  2.2057  0.2351 -1.8068
12037TIP3    H257603   2.563   2.856  16.568 -1.3084 -1.6746  1.5677
12038TIP3   OH257604   6.529   2.463   3.271  0.1327  0.5268 -0.6384
12038TIP3    H157605   6.475   2.384   3.275 -0.7116  1.0679 -1.0152
12038TIP3    H257606   6.493   2.520   3.339  2.0775 -0.1918  1.0931
12039TIP3   OH257607   4.299   5.105   5.216 -0.1706 -0.4973  0.1545
12039TIP3    H157608   4.288   5.110   5.311 -1.0273  0.7004  0.0127
12039TIP3    H257609   4.390   5.080   5.203  0.9545  2.5734  1.2807
12040TIP3   OH257610   4.043   3.864  13.024 -0.1772 -0.0235  0.0648
12040TIP3    H157611   3.958   3.909  13.019 -0.2605 -0.0593  1.0250
12040TIP3    H257612   4.035   3.806  13.099  0.5703 -0.3122 -0.0724
12041TIP3   OH257613   3.294   5.929   4.897  0.0787 -0.2727  0.4103
12041TIP3    H157614   3.303   5.834   4.906 -2.0417 -0.5639 -0.0702
12041TIP3    H257615   3.265   5.958   4.984 -3.0982 -0.6784 -0.3803
12042TIP3   OH257616   4.155   2.320  15.613 -0.1431  0.5390 -0.2051
12042TIP3    H157617   4.165   2.225  15.611  0.1240  0.5299  1.0392
12042TIP3    H257618   4.062   2.333  15.631 -0.0803  0.5056  0.1479
12043TIP3   OH257619   0.275   2.805  17.019  0.1049  0.0826  0.8094
12043TIP3    H157620   0.307   2.842  17.101 -0.3579 -1.5551  1.7599
12043TIP3    H257621   0.243   2.718  17.042  1.0547 -0.9066 -1.3076
12044TIP3   OH257622   2.216   5.573   5.153  0.1283 -0.0792 -0.0086
12044TIP3    H157623   2.141   5.564   5.212 -0.8463  0.1224 -1.1597
12044TIP3    H257624   2.292   5.551   5.206 -0.6959  0.2333  1.3482
12045TIP3   OH257625   5.497   4.718  10.922 -0.1427  0.3559 -0.2188
12045TIP3    H157626   5.416   4.765  10.906  0.3762  1.3727  0.0507
12045TIP3    H257627   5.566   4.780  10.898  0.5603 -0.1857  0.3414
12046TIP3   OH257628   5.493   2.291  12.786 -0.1530 -0.4697  0.2073
12046TIP3    H157629   5.547   2.225  12.742 -1.2122 -0.3133 -1.4256
12046TIP3    H257630   5.428   2.240  12.835 -0.0022 -0.6541  0.2149
12047TIP3   OH257631   2.248   3.527   6.781  0.3795 -0.3859  0.6226
12047TIP3    H157632   2.261   3.616   6.813 -0.0998  0.4982 -1.4668
12047TIP3    H257633   2.293   3.471   6.845  3.7267  1.5828  0.2033
12048TIP3   OH257634   5.421   1.009  13.134  0.4416  0.0728  0.0438
12048TIP3    H157635   5.461   0.922  13.132 -0.0116 -0.1671  0.9672
12048TIP3    H257636   5.329   0.993  13.114  0.7164  0.5952 -1.8353
12049TIP3   OH257637   5.959   4.773   1.628  0.6355  0.5463  0.1089
12049TIP3    H157638   5.941   4.862   1.657  1.3111  0.7661 -0.1271
12049TIP3    H257639   6.039   4.780   1.575  0.3517 -0.1027 -0.4244
12050TIP3   OH257640   0.286   3.819  12.838 -0.0904  0.0656  0.4960
12050TIP3    H157641   0.281   3.901  12.789  0.9678  0.6545  1.3344
12050TIP3    H257642   0.205   3.774  12.816 -0.4534  1.0917 -0.4013
12051TIP3   OH257643   4.261   4.258   3.952 -0.0663 -0.0387 -0.0156
12051TIP3    H157644   4.185   4.208   3.923 -0.2311 -0.0789  0.4715
12051TIP3    H257645   4.335   4.219   3.905 -0.0747 -1.2811  0.9430
12052TIP3   OH257646   3.899   4.333  16.972 -0.0471  0.3511  0.0493
12052TIP3    H157647   3.876   4.240  16.976 -1.3212  0.4919 -2.2639
12052TIP3    H257648   3.994   4.335  16.980 -0.0556 -1.0882  0.7274
12053TIP3   OH257649   4.842   1.263  16.343  0.8626 -0.0669 -0.3022
12053TIP3    H157650   4.848   1.169  16.326  1.4912 -0.1688  0.4010
12053TIP3    H257651   4.924   1.299  16.310  0.8821  0.1459 -0.0279
12054TIP3   OH257652   2.952   3.127  11.044  0.1083  0.4061 -0.1686
12054TIP3    H157653   2.889   3.056  11.034  0.9537 -0.0911 -2.4631
12054TIP3    H257654   3.032   3.095  11.003  0.7339  2.4276 -0.6480
12055TIP3   OH257655   4.268   0.955   5.375  0.4681  0.2211 -0.1457
12055TIP3    H157656   4.294   0.874   5.419 -0.2061  1.4330  2.7178
12055TIP3    H257657   4.292   1.024   5.437  1.5704  2.3147 -2.7553
12056TIP3   OH257658   0.035   3.243   0.066  0.6442 -0.0316 -0.0051
12056TIP3    H157659   0.120   3.200   0.056  0.7352  0.0266  0.4774
12056TIP3    H257660  -0.026   3.190   0.015  1.3821  1.2481 -2.3744
12057TIP3   OH257661   3.917   1.374  16.245 -0.4965  0.1464 -0.2749
12057TIP3    H157662   3.833   1.396  16.204 -0.4989 -0.9450 -0.9120
12057TIP3    H257663   3.896   1.298  16.300 -0.5903  1.8418  2.1687
12058TIP3   OH257664   5.101   3.331  17.047  0.0795 -0.4101  0.3107
12058TIP3    H157665   5.126   3.257  17.102  0.3543 -0.3703  0.2373
12058TIP3    H257666   5.182   3.380  17.034 -0.3204  0.5794  1.3549
12059TIP3   OH257667   2.470   6.094  14.916  0.4434 -0.7980  0.2490
12059TIP3    H157668   2.529   6.106  14.991 -0.7803  0.1556  1.1015
12059TIP3    H257669   2.492   6.008  14.882  1.7651 -0.8026  1.0427
12060TIP3   OH257670   2.181   3.574  12.540  0.4576  0.8851  0.6986
12060TIP3    H157671   2.212   3.637  12.606 -0.2732  2.2578 -0.2256
12060TIP3    H257672   2.239   3.587  12.465  0.8063 -0.1392  0.7702
12061TIP3   OH257673   6.012   0.410   0.996 -0.1949  0.4599  0.1608
12061TIP3    H157674   6.081   0.345   0.985 -0.7121  0.3092 -3.3414
12061TIP3    H257675   5.946   0.368   1.051  0.2546 -1.3442 -0.6253
12062TIP3   OH257676   2.479   6.386   0.248  0.9360 -1.0391 -0.2198
12062TIP3    H157677   2.549   6.445   0.221  1.6146 -2.9394 -3.0035
12062TIP3    H257678   2.522   6.301   0.262 -0.3294 -1.4651  1.5842
12063TIP3   OH257679   4.977   5.616   1.727 -0.1838  0.5552 -0.1565
12063TIP3    H157680   5.067   5.605   1.760 -0.6595 -0.8238  0.7504
12063TIP3    H257681   4.926   5.550   1.774 -1.6938  1.3434 -0.6359
12064TIP3   OH257682   3.609   0.886   0.693 -0.2459  0.3047  0.1134
12064TIP3    H157683   3.622   0.906   0.786 -0.9922  0.3643  0.2146
12064TIP3    H257684   3.695   0.859   0.662  0.1507  0.8692  0.6763
12065TIP3   OH257685   0.163   5.780  13.060 -0.1993 -0.5990 -0.0438
12065TIP3    H157686   0.174   5.686  13.077  0.3787 -0.5997 -0.3791
12065TIP3    H257687   0.167   5.821  13.146 -0.4976 -0.8829  0.1068
12066TIP3   OH257688   4.509   0.732   2.183 -0.5339 -0.6567  0.1494
12066TIP3    H157689   4.560   0.812   2.168 -1.8324  0.2983  0.5629
12066TIP3    H257690   4.546   0.696   2.264 -0.8734  0.3421  0.7726
12067TIP3   OH257691   1.868   6.387  15.484  0.9170  0.3803 -0.2653
12067TIP3    H157692   1.929   6.432  15.427  0.5561  0.1859 -0.8102
12067TIP3    H257693   1.909   6.390  15.571  1.7010  0.2309 -0.6251
12068TIP3   OH257694   5.889   5.697   0.021  0.2290  0.2339 -0.2423
12068TIP3    H157695   5.866   5.779   0.065  1.4031  1.4750 -1.8199
12068TIP3    H257696   5.808   5.646   0.020 -0.5379  1.3831  0.7372
12069TIP3   OH257697   1.404   4.333  17.420  0.0418  0.1296  0.1736
12069TIP3    H157698   1.337   4.304  17.483  0.3314 -0.7324  0.1019
12069TIP3    H257699   1.406   4.428  17.429 -0.2493  0.0570  1.1402
12070TIP3   OH257700   2.627   6.039  11.901  0.3149  0.5085  0.3175
12070TIP3    H157701   2.537   6.047  11.931  0.5776 -1.6955  1.9434
12070TIP3    H257702   2.680   6.049  11.980  1.5078  1.6464 -0.5887
12071TIP3   OH257703   3.289   2.848   0.043 -0.0995  0.0246  0.1825
12071TIP3    H157704   3.225   2.779   0.022  1.2025 -1.4087  0.7295
12071TIP3    H257705   3.256   2.887   0.124 -1.4692  0.8795 -0.7482
12072TIP3   OH257706   5.391   3.497   6.090  0.7017 -0.5336  0.1772
12072TIP3    H157707   5.356   3.529   6.173 -0.2920 -0.4078 -0.2675
12072TIP3    H257708   5.394   3.576   6.035  1.4563 -0.5961  0.1321
12073TIP3   OH257709   2.071   6.567   2.023  0.2295 -0.4481 -0.1433
12073TIP3    H157710   2.105   6.571   1.934  1.6581 -0.6457  0.3640
12073TIP3    H257711   2.071   6.474   2.044 -1.2597 -0.5081 -0.3453
12074TIP3   OH257712   6.620   1.760  14.111 -0.1233  0.6248 -0.0173
12074TIP3    H157713   6.630   1.690  14.047 -0.8461  0.4202  0.0768
12074TIP3    H257714   6.662   1.836  14.071 -0.1953  0.3900 -0.5483
12075TIP3   OH257715   3.210   6.149   0.481  0.0092 -0.3575 -0.1333
12075TIP3    H157716   3.226   6.069   0.531  0.1504 -0.8506 -0.9459
12075TIP3    H257717   3.178   6.118   0.397 -1.1543  0.4891 -0.0257
12076TIP3   OH257718   4.231   2.644  15.141 -0.2634 -0.3857  0.6961
12076TIP3    H157719   4.312   2.624  15.093  0.0492  0.6068  0.7960
12076TIP3    H257720   4.219   2.568  15.198  0.3767 -0.7340  0.3901
12077TIP3   OH257721   4.906   6.123   3.830  0.1553 -0.2108  0.2299
12077TIP3    H157722   4.974   6.081   3.882  1.5022 -0.6436 -1.7611
12077TIP3    H257723   4.890   6.063   3.757  1.2710  2.0387 -2.0485
12078TIP3   OH257724   1.044   6.060   3.269  0.0665  0.3316  0.0219
12078TIP3    H157725   0.964   6.105   3.296  0.4125  0.3746  1.0312
12078TIP3    H257726   1.105   6.131   3.247 -0.1084  0.3035 -0.5555
12079TIP3   OH257727   2.412   1.708  12.412 -0.1450  0.2330  0.1852
12079TIP3    H157728   2.395   1.802  12.408  1.8397  0.7316  1.7634
12079TIP3    H257729   2.334   1.668  12.373 -2.0279  2.4447  1.3814
12080TIP3   OH257730   4.435   3.601   3.393 -0.2091  0.4470  0.1715
12080TIP3    H157731   4.418   3.627   3.302  1.9591 -0.2524 -0.5147
12080TIP3    H257732   4.448   3.684   3.440 -0.1496  0.7935 -0.4416
12081TIP3   OH257733   3.241   0.338   4.929 -0.0713  0.0114 -0.6105
12081TIP3    H157734   3.208   0.310   5.015 -0.2233  0.7202 -0.4307
12081TIP3    H257735   3.278   0.258   4.891  2.1251  0.1240  1.0776
12082TIP3   OH257736   0.791   1.522  12.096  0.0145  0.1713  0.5162
12082TIP3    H157737   0.789   1.484  12.008 -0.7039  1.0907  0.1168
12082TIP3    H257738   0.862   1.476  12.140  0.4544 -0.2368 -0.5754
12083TIP3   OH257739   6.230   3.212   4.985 -0.8311  0.2339 -0.9240
12083TIP3    H157740   6.224   3.295   5.033  1.7988  0.9363 -1.6554
12083TIP3    H257741   6.156   3.215   4.924 -0.7720  2.0924 -0.9723
12084TIP3   OH257742   0.873   1.406   2.530  0.3517 -0.1352 -0.2211
12084TIP3    H157743   0.947   1.377   2.584  0.3102  0.0131 -0.0836
12084TIP3    H257744   0.904   1.398   2.440  1.1117  1.4403 -0.1420
12085TIP3   OH257745   4.334   6.585   6.075  0.0238  0.0802  0.0591
12085TIP3    H157746   4.368   6.662   6.122 -2.7271  0.4527  1.6362
12085TIP3    H257747   4.356   6.511   6.131  0.5252 -0.0066 -0.2460
12086TIP3   OH257748   0.760   3.888   4.879  0.2559 -0.3787 -0.3579
12086TIP3    H157749   0.846   3.919   4.911  2.3570 -2.7462 -3.1789
12086TIP3    H257750   0.759   3.912   4.787 -1.5599 -1.5499 -0.6883
12087TIP3   OH257751   4.627   5.707   1.954  0.5403 -0.2211  0.1457
12087TIP3    H157752   4.574   5.787   1.951 -2.6802 -2.1463  0.6450
12087TIP3    H257753   4.615   5.667   1.868  3.2931  0.4091 -0.6194
12088TIP3   OH257754   0.475   2.118  17.464  0.5593 -0.3055 -0.0688
12088TIP3    H157755   0.539   2.183  17.435  0.4548  0.5516  1.4752
12088TIP3    H257756   0.390   2.159  17.446  0.4877  0.5137  1.8512
12089TIP3   OH257757   5.076   2.541  12.474  0.0469  0.4516  0.0385
12089TIP3    H157758   5.043   2.616  12.523  0.5889 -0.3941  1.7513
12089TIP3    H257759   5.057   2.465  12.528  1.7050 -0.4080 -0.4949
12090TIP3   OH257760   1.203   0.067   1.168  0.2488 -0.9494 -0.3233
12090TIP3    H157761   1.225   0.001   1.103  2.8075 -0.2515 -0.2745
12090TIP3    H257762   1.257   0.046   1.244 -0.3298  0.0922  0.4165
12091TIP3   OH257763   1.376   3.292   5.794  0.3116 -0.1435  0.5055
12091TIP3    H157764   1.335   3.232   5.857 -1.4932 -1.9831 -2.2126
12091TIP3    H257765   1.454   3.246   5.763  0.4481  0.1479  0.4073
12092TIP3   OH257766   1.081   1.211  11.844  0.2457 -0.0260 -0.5964
12092TIP3    H157767   1.099   1.241  11.754  0.6289 -0.6340 -0.7235
12092TIP3    H257768   1.032   1.130  11.833 -0.5378  0.3831 -0.2462
12093TIP3   OH257769   1.466   4.855   1.318 -0.5723 -0.0766 -0.5371
12093TIP3    H157770   1.561   4.849   1.307 -0.6545 -0.7734 -0.9756
12093TIP3    H257771   1.442   4.770   1.356 -1.1376 -0.3093 -1.3866
12094TIP3   OH257772   1.813   2.003   1.298 -0.1202  0.1170 -0.1931
12094TIP3    H157773   1.802   2.080   1.242  3.9474  1.3429  0.3521
12094TIP3    H257774   1.901   1.971   1.278  0.2047 -1.4441  3.0668
12095TIP3   OH257775   5.211   3.627  12.579 -0.2353 -0.1213 -0.6777
12095TIP3    H157776   5.156   3.702  12.558 -0.3062  0.0943  0.2274
12095TIP3    H257777   5.240   3.594  12.494 -1.1512  0.2116 -1.1313
12096TIP3   OH257778   4.694   2.531  12.122  0.7121  0.2269  0.2387
12096TIP3    H157779   4.610   2.575  12.113 -0.6282 -1.9906  1.3543
12096TIP3    H257780   4.735   2.541  12.035 -1.4805 -0.2178 -0.9199
12097TIP3   OH257781   0.957   2.688  17.091 -0.1222 -0.4339  0.2949
12097TIP3    H157782   0.987   2.775  17.117  0.1787 -0.7124  0.8888
12097TIP3    H257783   1.038   2.641  17.069 -0.1264 -1.0715  1.5449
12098TIP3   OH257784   0.762   6.487   0.763  0.3901 -0.0020  0.3472
12098TIP3    H157785   0.811   6.489   0.845 -0.5967  2.4244  0.9590
12098TIP3    H257786   0.744   6.579   0.744 -2.7746 -0.6860 -0.5035
12099TIP3   OH257787   6.588   3.784  14.099 -0.2591 -0.1042 -0.4599
12099TIP3    H157788   6.603   3.743  14.183 -1.1533  1.3561  0.4692
12099TIP3    H257789   6.643   3.735  14.037  1.8870 -0.0336  1.2805
12100TIP3   OH257790   1.022   4.351   2.518 -0.6249 -0.0025  0.1354
12100TIP3    H157791   0.994   4.397   2.439 -1.1909 -1.1012 -0.3397
12100TIP3    H257792   0.971   4.269   2.517  1.7659 -1.5728 -0.1278
12101TIP3   OH257793   3.544   6.706  16.693  0.2993  0.2803  0.0946
12101TIP3    H157794   3.533   6.778  16.631  1.6315  1.6959  1.4185
12101TIP3    H257795   3.634   6.714  16.723  0.3270 -1.6735  0.6585
12102TIP3   OH257796   0.119   0.595  14.149  0.0356  0.1697  0.2564
12102TIP3    H157797   0.113   0.668  14.212 -0.2587  0.8843 -0.5824
12102TIP3    H257798   0.072   0.523  14.191 -0.4343  0.7361  0.7189
12103TIP3   OH257799   0.298   4.034  16.156 -0.4376  0.3696 -0.2001
12103TIP3    H157800   0.301   4.067  16.066  0.4038 -3.0320 -1.5661
12103TIP3    H257801   0.208   4.004  16.167 -0.2935 -0.0968 -0.2775
12104TIP3   OH257802   3.175   3.150   5.234 -0.8422  0.7411 -0.1030
12104TIP3    H157803   3.157   3.056   5.241  1.6408  0.2375  0.6145
12104TIP3    H257804   3.183   3.167   5.140  1.8294 -0.5235 -0.1869
12105TIP3   OH257805   5.569   5.838   3.160 -0.1834  0.1119 -0.4420
12105TIP3    H157806   5.486   5.881   3.138  0.0625  0.9759  0.2755
12105TIP3    H257807   5.571   5.836   3.255  1.3918  1.6857 -0.3871
12106TIP3   OH257808   2.288   3.097   1.079 -0.3313  0.1709 -0.4502
12106TIP3    H157809   2.335   3.069   1.001  1.6127 -0.0178  0.7164
12106TIP3    H257810   2.249   3.182   1.055  0.2917  0.1562 -1.5758
12107TIP3   OH257811   6.692   4.413   5.933 -0.3192  0.2285 -0.2330
12107TIP3    H157812   6.771   4.450   5.974  0.0880  0.1710 -0.9528
12107TIP3    H257813   6.719   4.327   5.902 -0.2201  0.7821 -1.8004
12108TIP3   OH257814   6.554   3.114   0.260  0.2651  0.4916  0.2058
12108TIP3    H157815   6.482   3.066   0.220 -0.0656  0.6699  0.5914
12108TIP3    H257816   6.549   3.201   0.221  0.5456  0.3757 -0.0984
12109TIP3   OH257817   2.356   2.145  17.573  0.0991 -0.3812 -0.4103
12109TIP3    H157818   2.375   2.182  17.486 -0.9422  1.0703 -0.0534
12109TIP3    H257819   2.261   2.144  17.578  0.1464 -0.9790  0.5187
12110TIP3   OH257820   4.568   3.134  16.004  0.1997 -0.1488  0.3897
12110TIP3    H157821   4.512   3.183  15.944  1.9039  1.5325  0.0943
12110TIP3    H257822   4.533   3.044  16.001 -0.1869 -0.0083 -2.6175
12111TIP3   OH257823   2.660   0.790   0.464  0.2857 -0.3771  0.1180
12111TIP3    H157824   2.592   0.851   0.435 -0.5914 -0.9283  0.9447
12111TIP3    H257825   2.725   0.846   0.507  0.4628  0.1758 -0.8511
12112TIP3   OH257826   3.800   5.813  17.159 -0.1299 -0.2084  0.2778
12112TIP3    H157827   3.746   5.889  17.135  1.8475  1.4643  0.7923
12112TIP3    H257828   3.795   5.810  17.255 -1.9193 -2.1603  0.2087
12113TIP3   OH257829   5.570   5.498   4.421  0.6122  0.4379  0.2724
12113TIP3    H157830   5.565   5.456   4.335  2.4884 -0.9487  0.7727
12113TIP3    H257831   5.501   5.565   4.420 -0.8295 -0.9942 -1.4953
12114TIP3   OH257832   6.357   1.706   2.616 -0.3155  0.2370  0.1385
12114TIP3    H157833   6.401   1.790   2.607 -0.4137  0.4125  1.2280
12114TIP3    H257834   6.394   1.667   2.695  0.6460 -1.3216 -1.0030
12115TIP3   OH257835   0.066   4.769  12.325 -0.2580 -1.1113  0.5681
12115TIP3    H157836   0.007   4.797  12.255 -0.5203 -2.2103  0.3382
12115TIP3    H257837   0.068   4.844  12.386 -1.5277 -0.8777  0.3516
12116TIP3   OH257838   6.048   0.538  12.916 -0.0629 -0.0890  0.1534
12116TIP3    H157839   6.032   0.464  12.857 -0.7691 -0.3441  0.6588
12116TIP3    H257840   6.132   0.573  12.887  1.0874 -2.0536  0.8793
12117TIP3   OH257841   0.314   3.010  17.230 -0.0077  0.0297 -0.4031
12117TIP3    H157842   0.227   2.991  17.266  0.2130 -1.4182 -0.5630
12117TIP3    H257843   0.372   2.949  17.275  0.7370  0.1885 -1.1308
12118TIP3   OH257844   5.111   4.248   0.247  0.1609 -0.0413  0.2107
12118TIP3    H157845   5.141   4.337   0.265  2.3667 -0.4026 -1.2718
12118TIP3    H257846   5.047   4.230   0.316 -0.5180  2.7326  0.4279
12119TIP3   OH257847   2.348   5.985  17.307  0.0809 -0.2184  0.0404
12119TIP3    H157848   2.375   6.070  17.272 -0.6638  0.0339  0.0647
12119TIP3    H257849   2.374   5.988  17.399  1.9750 -0.8542 -0.4289
12120TIP3   OH257850   5.250   1.542   5.070 -0.0489  0.3626 -0.1284
12120TIP3    H157851   5.297   1.460   5.084 -0.0904  0.5168  1.0179
12120TIP3    H257852   5.316   1.602   5.035  0.1897  0.0816 -0.1606
12121TIP3   OH257853   5.492   5.895  16.954 -0.1753 -0.1366  0.5057
12121TIP3    H157854   5.415   5.950  16.940  0.4038  0.3055 -1.0326
12121TIP3    H257855   5.535   5.890  16.869  0.8552 -1.3759  1.0568
12122TIP3   OH257856   6.677   2.025  13.526 -0.0266  0.5600  0.2977
12122TIP3    H157857   6.614   1.956  13.548 -0.5264  0.8518 -0.1877
12122TIP3    H257858   6.642   2.104  13.567 -1.1719  1.1962 -1.7381
12123TIP3   OH257859   3.126   2.708  16.529  0.0999 -0.1830  0.6230
12123TIP3    H157860   3.032   2.726  16.537 -0.2295 -1.2129 -0.6449
12123TIP3    H257861   3.144   2.646  16.600 -0.6203 -1.4938 -0.3060
12124TIP3   OH257862   1.988   4.054   5.972  0.9964  0.3864  0.3334
12124TIP3    H157863   1.899   4.056   5.938  2.0668  1.1202 -2.7675
12124TIP3    H257864   1.979   4.072   6.065 -1.8979  3.2166 -0.3311
12125TIP3   OH257865   3.274   1.182  13.784 -0.0385  0.1415  0.4945
12125TIP3    H157866   3.320   1.126  13.722 -0.2610 -2.1275  2.2349
12125TIP3    H257867   3.186   1.146  13.789  0.5553 -1.1936  3.6442
12126TIP3   OH257868   1.615   1.891  11.916 -0.4621  0.2394 -0.6260
12126TIP3    H157869   1.612   1.856  11.827  0.8922  1.8305 -1.3396
12126TIP3    H257870   1.704   1.870  11.947 -0.1958  1.5635 -0.4616
12127TIP3   OH257871   1.403   2.797   5.349 -0.1362 -0.8680 -0.4719
12127TIP3    H157872   1.490   2.769   5.321 -0.2858 -0.9145 -0.8970
12127TIP3    H257873   1.380   2.738   5.420 -0.3520 -1.6764 -1.2046
12128TIP3   OH257874   5.235   6.371   4.691 -0.1068  0.7742 -0.1824
12128TIP3    H157875   5.317   6.407   4.659  0.0593  1.0959  0.5867
12128TIP3    H257876   5.167   6.417   4.642  0.1744 -0.0432 -1.3788
12129TIP3   OH257877   2.317   6.031  15.440 -0.3665 -0.6171  0.2990
12129TIP3    H157878   2.224   6.052  15.446 -0.1442  0.9591 -0.9350
12129TIP3    H257879   2.325   5.977  15.362 -0.0613  0.8166 -0.7096
12130TIP3   OH257880   1.415   2.343  12.200 -0.1485 -0.4491  0.0411
12130TIP3    H157881   1.467   2.297  12.266 -0.0259  0.6128  0.7192
12130TIP3    H257882   1.447   2.433  12.203 -0.7561 -0.1880 -0.8546
12131TIP3   OH257883   5.233   0.925   5.436 -0.0034 -0.3917 -0.2004
12131TIP3    H157884   5.213   0.997   5.496  1.0503 -0.5724  0.3771
12131TIP3    H257885   5.256   0.851   5.493  0.4195 -0.7403 -0.8102
12132TIP3   OH257886   4.809   4.110  13.593  0.1051  0.1700  0.2331
12132TIP3    H157887   4.901   4.113  13.618 -0.0795  0.0822  0.9391
12132TIP3    H257888   4.809   4.128  13.499  0.7182  1.6362  0.4852
12133TIP3   OH257889   3.073   3.063  16.924  0.7560  0.2502 -0.1818
12133TIP3    H157890   3.060   3.051  17.018  0.7961 -0.1626 -0.2258
12133TIP3    H257891   3.162   3.097  16.916 -0.0467  2.5937  0.0825
12134TIP3   OH257892   1.430   0.642   2.127 -0.4253  0.3979 -0.3052
12134TIP3    H157893   1.353   0.600   2.167 -0.4359 -0.1530 -0.8992
12134TIP3    H257894   1.395   0.689   2.051 -0.1805  0.1654 -0.5631
12135TIP3   OH257895   5.811   3.250  12.767  0.0208  0.1443 -0.3361
12135TIP3    H157896   5.762   3.274  12.846 -0.6106 -0.3904 -0.5644
12135TIP3    H257897   5.746   3.248  12.697  0.0672 -2.0662 -0.3573
12136TIP3   OH257898   2.839   2.725   1.813  0.1419  0.3062  0.2086
12136TIP3    H157899   2.815   2.818   1.816 -0.9726  0.0416 -0.0738
12136TIP3    H257900   2.927   2.722   1.851 -0.4960  1.2617  1.9106
12137TIP3   OH257901   2.254   1.666   3.553  0.1106 -0.2852  0.3521
12137TIP3    H157902   2.303   1.720   3.615 -1.1092 -1.0263  2.0288
12137TIP3    H257903   2.165   1.703   3.554 -0.6228 -1.9672  1.1638
12138TIP3   OH257904   0.913   1.586  14.213 -0.6717  0.0748  0.0263
12138TIP3    H157905   1.007   1.589  14.231 -0.7946  1.2643  0.5419
12138TIP3    H257906   0.890   1.493  14.221  0.5505 -0.3127 -0.6664
12139TIP3   OH257907   4.764   2.827   5.525  0.4437  0.3638  0.7622
12139TIP3    H157908   4.839   2.772   5.504  0.0531 -0.0142  0.3152
12139TIP3    H257909   4.764   2.833   5.620  0.1323 -0.9525  0.8729
12140TIP3   OH257910   1.366   1.552   2.342 -0.2496  0.5005 -0.1794
12140TIP3    H157911   1.294   1.517   2.395  0.4253 -0.7530 -0.0606
12140TIP3    H257912   1.344   1.527   2.253  0.5699 -0.8717 -0.0186
12141TIP3   OH257913   1.887   1.610  15.212 -0.1709 -0.0394 -0.0155
12141TIP3    H157914   1.830   1.683  15.187  0.5225  0.5188  0.0244
12141TIP3    H257915   1.968   1.625  15.164 -0.7974 -2.0393 -1.8343
12142TIP3   OH257916   6.162   5.816  13.875 -0.2185  0.2801  0.0372
12142TIP3    H157917   6.141   5.787  13.964  0.5351 -0.4757 -0.0131
12142TIP3    H257918   6.225   5.750  13.843 -2.3727 -0.9429 -1.9812
12143TIP3   OH257919   5.576   0.748  15.904  0.1831 -0.2282  0.1030
12143TIP3    H157920   5.577   0.844  15.903  1.5154 -0.2176  0.1716
12143TIP3    H257921   5.507   0.725  15.966  0.3868  0.6977  0.6873
12144TIP3   OH257922   5.226   1.799  12.947 -0.2072  0.5072 -0.5863
12144TIP3    H157923   5.229   1.858  13.023 -0.4658  1.0418 -0.9810
12144TIP3    H257924   5.301   1.742  12.958  0.4289  1.3374 -0.5291
12145TIP3   OH257925   4.401   3.201  14.922 -0.1513 -0.0705 -0.7200
12145TIP3    H157926   4.372   3.115  14.952 -0.4672  0.1586 -0.3560
12145TIP3    H257927   4.342   3.223  14.850  0.2426 -0.3726 -1.1353
12146TIP3   OH257928   3.703   4.677  16.380 -0.2084 -0.2162  0.1888
12146TIP3    H157929   3.636   4.728  16.334  0.2204  1.3798  1.2683
12146TIP3    H257930   3.680   4.586  16.362 -2.3923  0.2888  0.1430
12147TIP3   OH257931   5.741   2.661   0.632  0.0739  0.0894 -0.1419
12147TIP3    H157932   5.706   2.577   0.660  2.3851 -0.8159  0.3244
12147TIP3    H257933   5.697   2.680   0.549  1.1544 -2.7979 -1.5147
12148TIP3   OH257934   1.305   4.674   6.230  0.7876 -0.1356 -0.0484
12148TIP3    H157935   1.354   4.647   6.308  0.9638 -1.5627 -0.6012
12148TIP3    H257936   1.332   4.764   6.214  0.2631  0.3991  1.8840
12149TIP3   OH257937   4.506   6.703   1.188  0.2943 -0.1974 -0.1525
12149TIP3    H157938   4.475   6.708   1.278  1.2342 -0.5988  0.2077
12149TIP3    H257939   4.588   6.654   1.194 -0.2613 -1.3264 -1.3850
12150TIP3   OH257940   2.421   4.494  16.669  0.2551  0.2380  0.1281
12150TIP3    H157941   2.447   4.448  16.749  1.2363 -1.5263 -1.1380
12150TIP3    H257942   2.337   4.535  16.691 -1.0945 -2.8180  1.1701
12151TIP3   OH257943   5.519   3.642   2.620 -0.3385  0.0398  0.2096
12151TIP3    H157944   5.426   3.644   2.596  0.1718  1.5255 -1.9231
12151TIP3    H257945   5.547   3.553   2.599 -1.5838 -1.0153  2.5459
12152TIP3   OH257946   0.331   4.041  12.432  0.0409  0.5552  0.3994
12152TIP3    H157947   0.409   4.070  12.387  0.7068 -0.2210  1.0212
12152TIP3    H257948   0.282   3.991  12.367 -0.9334  2.6212 -0.5737
12153TIP3   OH257949   2.646   5.511   6.177  0.2519  0.5177 -0.0830
12153TIP3    H157950   2.611   5.434   6.131 -0.8644  0.7862  0.2894
12153TIP3    H257951   2.725   5.534   6.128 -0.3683  0.2037 -1.2786
12154TIP3   OH257952   2.292   4.665  14.327 -1.2433  0.3352  0.2363
12154TIP3    H157953   2.199   4.641  14.320 -1.0020 -1.3914  2.1129
12154TIP3    H257954   2.339   4.590  14.290 -0.5726  1.3021 -0.9262
12155TIP3   OH257955   6.235   1.086  17.615  0.0435 -0.2922 -0.1107
12155TIP3    H157956   6.157   1.080  17.560  0.5265 -1.4152 -0.7155
12155TIP3    H257957   6.279   1.002  17.603  1.4725  0.4001  0.0327
12156TIP3   OH257958   0.198   4.532   5.955  0.1752  0.1998 -0.0514
12156TIP3    H157959   0.224   4.545   6.046  1.1329 -0.2414 -0.2549
12156TIP3    H257960   0.270   4.483   5.916 -0.0795  0.6548 -1.1265
12157TIP3   OH257961   4.930   4.302   5.627  0.7233 -0.0678  0.2233
12157TIP3    H157962   4.916   4.260   5.711  0.7137 -0.9879 -0.2175
12157TIP3    H257963   4.945   4.229   5.566 -0.1781  0.5238 -0.7415
12158TIP3   OH257964   5.376   5.032  10.895 -0.3603  0.0419  0.4047
12158TIP3    H157965   5.341   4.988  10.818  1.0607  1.6903 -1.2460
12158TIP3    H257966   5.324   5.112  10.904  0.2732  0.4621  0.4058
12159TIP3   OH257967   0.472   5.366   1.488 -0.2050 -0.3394  0.4741
12159TIP3    H157968   0.474   5.404   1.400  0.1561 -0.6699  0.3328
12159TIP3    H257969   0.555   5.392   1.528  0.1332 -1.1214  0.3056
12160TIP3   OH257970   2.097   0.912   5.560 -0.1351 -0.3189  0.0321
12160TIP3    H157971   2.138   0.883   5.642  0.9337 -0.6723 -0.5985
12160TIP3    H257972   2.011   0.945   5.586  0.1228 -0.5701  1.2714
12161TIP3   OH257973   1.221   4.610  13.292 -0.0605  0.7112 -0.0588
12161TIP3    H157974   1.316   4.594  13.296 -0.1943  0.0205  0.4764
12161TIP3    H257975   1.188   4.540  13.236 -0.3090  0.7204  0.0786
12162TIP3   OH257976   1.764   0.701  11.826 -0.7083  0.2605 -0.3545
12162TIP3    H157977   1.758   0.648  11.746 -0.6928  0.5950 -0.5813
12162TIP3    H257978   1.772   0.791  11.794  1.4946  0.2241 -0.0252
12163TIP3   OH257979   5.544   2.705  12.921 -0.4020 -0.2464 -0.2607
12163TIP3    H157980   5.502   2.790  12.908 -0.6446 -0.1701  0.8800
12163TIP3    H257981   5.522   2.655  12.843 -1.1130  0.4067 -0.4940
12164TIP3   OH257982   0.052   4.789  17.166 -0.3749 -0.2931 -0.2905
12164TIP3    H157983  -0.026   4.759  17.213 -1.3951  2.1408 -0.2686
12164TIP3    H257984   0.024   4.794  17.075 -0.6267  1.4635 -0.1663
12165TIP3   OH257985   1.198   0.286   0.526  0.5160 -0.3621 -0.1994
12165TIP3    H157986   1.184   0.220   0.595  0.9807  0.8303  1.0796
12165TIP3    H257987   1.137   0.261   0.457 -0.7674 -0.9947  1.0983
12166TIP3   OH257988   5.411   5.607   3.136  0.1387  0.0991 -0.2320
12166TIP3    H157989   5.482   5.667   3.113  0.3111  0.5096  1.2797
12166TIP3    H257990   5.331   5.657   3.118  0.2509  1.6880  2.9029
12167TIP3   OH257991   5.535   2.751  16.014  0.3547 -0.4163 -0.1732
12167TIP3    H157992   5.556   2.727  16.105  0.0037 -2.0819 -0.4949
12167TIP3    H257993   5.507   2.842  16.019 -0.8427 -0.8355  1.5835
12168TIP3   OH257994   2.302   4.584   2.611  0.0603 -0.1253 -0.1791
12168TIP3    H157995   2.342   4.512   2.563 -1.4045 -1.5882  0.7160
12168TIP3    H257996   2.376   4.635   2.644  1.1244 -1.1638 -0.9013
12169TIP3   OH257997   5.381   1.193  14.572  0.2114 -0.1548 -0.1315
12169TIP3    H157998   5.442   1.133  14.615  0.6124 -0.1617 -0.7037
12169TIP3    H257999   5.299   1.145  14.568  0.6810 -0.8909 -1.1087
12170TIP3   OH258000   3.461   2.055  14.330 -0.1786 -0.3768 -0.5673
12170TIP3    H158001   3.456   2.098  14.244  0.0132 -2.0552 -1.4597
12170TIP3    H258002   3.372   2.058  14.363 -0.0705  1.1913 -0.3268
12171TIP3   OH258003   1.459   5.186   6.065  0.8400  0.5577 -0.1474
12171TIP3    H158004   1.457   5.279   6.087  0.4559  1.0176 -1.9270
12171TIP3    H258005   1.375   5.171   6.020  0.6485 -0.7926  0.6120
12172TIP3   OH258006   2.591   3.358   5.365  0.0226 -0.7656 -0.2131
12172TIP3    H158007   2.650   3.434   5.366  0.2442 -0.9051 -1.3262
12172TIP3    H258008   2.589   3.328   5.455  1.2212 -0.4148 -0.0552
12173TIP3   OH258009   2.213   5.748   3.217  0.2621 -0.1503  0.2952
12173TIP3    H158010   2.201   5.653   3.214  0.8495 -0.2870  1.6377
12173TIP3    H258011   2.137   5.783   3.171 -0.3078 -1.2456  0.3650
12174TIP3   OH258012   0.313   1.938   1.453  0.4608 -0.0549  0.6477
12174TIP3    H158013   0.243   1.992   1.489 -1.7882 -1.7854 -0.8862
12174TIP3    H258014   0.338   1.880   1.524  0.2404  0.4580  1.1567
12175TIP3   OH258015   5.487   1.418  15.423  0.4337  0.3741  0.1363
12175TIP3    H158016   5.422   1.486  15.442  1.2340  1.7420 -1.6821
12175TIP3    H258017   5.510   1.432  15.331  1.6612 -1.5141  0.0910
12176TIP3   OH258018   1.102   6.144  13.556  0.4297 -0.1376  0.5032
12176TIP3    H158019   1.027   6.203  13.568 -0.7714 -1.5065  0.0175
12176TIP3    H258020   1.178   6.200  13.568 -0.6274  1.7981 -1.2438
12177TIP3   OH258021   3.164   3.389  14.210 -0.4688 -0.1007  0.3136
12177TIP3    H158022   3.159   3.401  14.305  0.2711 -0.1364  0.3640
12177TIP3    H258023   3.200   3.301  14.199 -0.4612 -0.0575  0.0029
12178TIP3   OH258024   6.627   1.528  16.905  0.2416  0.5999  0.3890
12178TIP3    H158025   6.665   1.534  16.817 -0.7287  1.5473  0.0066
12178TIP3    H258026   6.566   1.455  16.900  1.3009 -0.3302  0.7363
12179TIP3   OH258027   0.259   3.432  17.399  0.1399 -0.2311 -0.0635
12179TIP3    H158028   0.222   3.518  17.424 -2.0791 -0.5801 -1.8151
12179TIP3    H258029   0.230   3.419  17.309  2.1603 -1.9680 -0.5293
12180TIP3   OH258030   5.620   3.033   0.973  0.5534  0.3596  0.9154
12180TIP3    H158031   5.694   2.975   0.958 -0.1644 -1.0765  2.5270
12180TIP3    H258032   5.545   2.984   0.939  0.3299  1.9720 -1.1027
12181TIP3   OH258033   6.093   3.832   3.827  0.7114 -0.1048 -0.2786
12181TIP3    H158034   6.103   3.774   3.751  0.4465  0.7036 -0.9480
12181TIP3    H258035   6.100   3.920   3.791 -1.7141  0.3777  0.2244
12182TIP3   OH258036   1.090   4.899  16.735 -0.8114 -0.4152  0.1340
12182TIP3    H158037   1.016   4.921  16.679 -2.4355 -2.2170  1.4307
12182TIP3    H258038   1.166   4.898  16.676 -2.3557 -1.7673 -1.9774
12183TIP3   OH258039   4.275   1.022  11.950  0.2880  0.2971 -0.1394
12183TIP3    H158040   4.281   1.109  11.910 -0.5890  0.7204  0.6253
12183TIP3    H258041   4.182   1.009  11.967  0.6464  0.4075  2.3021
12184TIP3   OH258042   3.327   0.228  12.024 -0.0206 -0.7267 -0.2817
12184TIP3    H158043   3.246   0.190  12.058  0.5822 -1.3559  0.4919
12184TIP3    H258044   3.390   0.215  12.094  0.4071  1.0336 -0.3050
12185TIP3   OH258045   5.185   3.046  17.006  0.1340  0.0559  0.3910
12185TIP3    H158046   5.245   3.085  16.942  1.2845 -1.6138  0.3803
12185TIP3    H258047   5.137   2.980  16.956 -0.9835  0.6451  0.6505
12186TIP3   OH258048   4.621   3.178   0.225 -0.7776  0.3569 -0.1139
12186TIP3    H158049   4.558   3.250   0.222 -0.9594  0.1991 -0.0419
12186TIP3    H258050   4.598   3.123   0.150  0.6182  1.4294 -1.4279
12187TIP3   OH258051   0.024   4.404   3.207 -0.2649 -0.0771 -0.1855
12187TIP3    H158052   0.112   4.382   3.237 -0.7851 -0.0870  1.4530
12187TIP3    H258053   0.001   4.483   3.256 -1.7366 -0.9702  0.6575
12188TIP3   OH258054   1.075   1.060  10.737  0.3978  0.1733  0.0871
12188TIP3    H158055   1.017   1.108  10.795 -0.8867 -1.8550  0.5588
12188TIP3    H258056   1.024   1.046  10.657  0.3103 -1.3604  0.3849
12189TIP3   OH258057   3.989   2.075  12.090 -0.4432  0.0821 -0.3736
12189TIP3    H158058   3.974   1.981  12.100 -2.0786  0.4061  0.6256
12189TIP3    H258059   4.010   2.086  11.998  1.0121 -1.3943 -0.2656
12190TIP3   OH258060   1.261   6.678   0.256  0.2033  0.5244  0.1325
12190TIP3    H158061   1.320   6.738   0.211 -0.2880  2.0975  1.4773
12190TIP3    H258062   1.298   6.591   0.240  1.6434  1.2724 -0.8315
12191TIP3   OH258063   0.755   0.102  17.145  0.5010  0.3513 -0.3484
12191TIP3    H158064   0.761   0.152  17.227  1.2332 -0.0735 -0.1327
12191TIP3    H258065   0.827   0.136  17.091  0.0761  0.5671 -0.7844
12192TIP3   OH258066   3.658   5.727  11.557  0.3904 -0.4804  0.3422
12192TIP3    H158067   3.637   5.661  11.491  1.8787 -1.1543  0.5049
12192TIP3    H258068   3.750   5.711  11.579  0.4965  1.0054  1.1293
12193TIP3   OH258069   4.218   6.293   3.532  0.5804 -0.4140 -0.5966
12193TIP3    H158070   4.135   6.255   3.562 -0.3526  0.4925 -1.9196
12193TIP3    H258071   4.206   6.304   3.438  1.8058  0.7164 -0.6412
12194TIP3   OH258072   4.548   1.463  12.005  0.0874 -0.2651 -0.2499
12194TIP3    H158073   4.529   1.477  11.912  0.1639 -1.3897 -0.4509
12194TIP3    H258074   4.498   1.385  12.028  0.9375 -0.6457  0.3625
12195TIP3   OH258075   4.087   5.533  15.431  0.2521  0.0683  0.6356
12195TIP3    H158076   4.101   5.565  15.342 -1.2771 -1.5085 -0.2218
12195TIP3    H258077   4.057   5.609  15.480  0.6186  0.8412 -0.3226
12196TIP3   OH258078   1.984   3.990   6.265  0.4086  1.0881 -0.1375
12196TIP3    H158079   1.939   3.952   6.340  0.7026  0.7702 -0.1163
12196TIP3    H258080   1.999   3.916   6.206 -0.8907  1.5374 -1.0754
12197TIP3   OH258081   5.273   5.580  10.507 -0.3327  0.0843 -0.0391
12197TIP3    H158082   5.250   5.488  10.499 -1.1940  0.3138 -0.2854
12197TIP3    H258083   5.191   5.627  10.495 -0.0407  0.8601  0.8515
12198TIP3   OH258084   0.654   3.663  17.400 -0.0033  0.0174 -0.0374
12198TIP3    H158085   0.591   3.643  17.470  0.9345 -0.7783  0.6052
12198TIP3    H258086   0.733   3.689  17.446  0.2759  0.6047 -0.8307
12199TIP3   OH258087   2.098   4.503   2.910  0.1217  0.2802  0.0306
12199TIP3    H158088   2.190   4.519   2.929  0.0477  0.5638  0.1613
12199TIP3    H258089   2.052   4.535   2.988 -0.0922  0.2057 -0.0644
12200TIP3   OH258090   4.466   6.157  12.745  0.1372  0.2584  0.3743
12200TIP3    H158091   4.434   6.094  12.809 -2.0298  2.5504  1.7318
12200TIP3    H258092   4.530   6.209  12.793 -0.6396  1.2559  0.3486
12201TIP3   OH258093   4.459   6.407   0.950  0.2307 -1.0387 -0.5125
12201TIP3    H158094   4.387   6.408   0.887 -0.0743  0.1453 -0.1673
12201TIP3    H258095   4.416   6.393   1.035  0.5700 -1.8789 -0.4643
12202TIP3   OH258096   0.936   2.161  12.629 -0.3229 -0.2404 -0.1379
12202TIP3    H158097   0.919   2.188  12.539 -0.0837  1.7314  0.3552
12202TIP3    H258098   0.917   2.239  12.681  2.7652 -0.2028  1.1872
12203TIP3   OH258099   5.001   6.248   0.697  0.4281 -0.8000  0.1685
12203TIP3    H158100   4.930   6.187   0.716  0.3417 -1.6158 -2.4003
12203TIP3    H258101   5.076   6.214   0.745 -0.1565 -1.7061  0.4622
12204TIP3   OH258102   4.358   5.545  12.089  0.3392 -0.0854  0.4046
12204TIP3    H158103   4.331   5.627  12.131  3.2363  1.2212 -0.0429
12204TIP3    H258104   4.318   5.549  12.002  1.1861  1.3482  0.0530
12205TIP3   OH258105   2.992   1.963   4.077  0.1215 -0.3676 -0.4766
12205TIP3    H158106   2.906   1.957   4.037 -0.3150  0.7974  0.2200
12205TIP3    H258107   2.976   1.946   4.170  0.6678 -0.3256 -0.3707
12206TIP3   OH258108   4.006   0.845  13.608 -0.2418  0.3332 -0.5501
12206TIP3    H158109   4.093   0.819  13.578 -1.3736 -4.3372 -0.5332
12206TIP3    H258110   3.956   0.860  13.527 -0.2303 -0.2196 -0.6609
12207TIP3   OH258111   3.458   0.991  14.992 -0.8182  0.0400 -0.2104
12207TIP3    H158112   3.478   1.058  15.057 -1.4691  1.1272 -1.0876
12207TIP3    H258113   3.497   0.911  15.027  2.0574  1.3205 -0.2298
12208TIP3   OH258114   2.067   5.052  16.667  0.3775  0.9080 -0.7815
12208TIP3    H158115   1.996   5.109  16.638 -3.4291 -2.9015 -0.0924
12208TIP3    H258116   2.071   5.065  16.762 -1.5625 -0.7480 -0.3897
12209TIP3   OH258117   5.756   1.631   2.546  0.2137  0.9124 -0.1528
12209TIP3    H158118   5.729   1.644   2.455  0.9738  0.4166 -0.4661
12209TIP3    H258119   5.795   1.543   2.547 -1.3021  0.1994  1.0282
12210TIP3   OH258120   3.313   5.696  11.908  0.1564 -0.0386 -0.0276
12210TIP3    H158121   3.403   5.726  11.898  0.0006  0.9221  1.1668
12210TIP3    H258122   3.269   5.768  11.955 -0.8925 -1.0504  0.5866
12211TIP3   OH258123   5.350   5.668  13.501  0.2886 -0.1664  0.1480
12211TIP3    H158124   5.306   5.747  13.470 -0.0849 -1.3958 -2.8194
12211TIP3    H258125   5.414   5.648  13.432 -0.3777 -2.9900  0.2254
12212TIP3   OH258126   3.702   6.227   6.344 -0.0198 -0.0832 -0.0687
12212TIP3    H158127   3.694   6.294   6.276 -3.4391 -0.0948  0.1469
12212TIP3    H258128   3.694   6.144   6.297 -1.6978 -0.1057  0.1736
12213TIP3   OH258129   5.736   6.252   1.432 -0.3309  0.0622  0.3545
12213TIP3    H158130   5.671   6.187   1.404  1.0066 -0.8664 -0.7155
12213TIP3    H258131   5.770   6.289   1.351  0.8966  0.1021  0.8705
12214TIP3   OH258132   4.381   5.516  12.753  0.5662  0.7157  0.0117
12214TIP3    H158133   4.460   5.569  12.740  1.2118 -0.0611  0.6601
12214TIP3    H258134   4.333   5.522  12.670  1.2250  1.3276 -0.3272
12215TIP3   OH258135   2.441   4.377  13.972  0.3905  0.5451  0.3114
12215TIP3    H158136   2.396   4.292  13.978 -0.5079  0.8484 -1.4364
12215TIP3    H258137   2.380   4.432  13.922  1.1937  2.0672  0.9578
12216TIP3   OH258138   2.919   6.176   5.646  0.7232 -0.0689 -0.3982
12216TIP3    H158139   2.979   6.187   5.720  1.8553 -3.2469 -0.6720
12216TIP3    H258140   2.870   6.096   5.667 -0.7023  0.3466 -1.9632
12217TIP3   OH258141   6.078   0.509  14.787  0.0315  1.0874  0.1904
12217TIP3    H158142   6.027   0.455  14.847 -0.5332  2.6591  1.2106
12217TIP3    H258143   6.168   0.501  14.818 -0.0055  0.4767  0.1340
12218TIP3   OH258144   4.025   5.033   2.345  0.1434  0.0913  0.4031
12218TIP3    H158145   4.084   5.019   2.419  0.5969  0.7809  0.1839
12218TIP3    H258146   3.962   5.098   2.376  0.7009  0.8430  0.0017
12219TIP3   OH258147   3.055   4.500  11.073  0.1597 -0.3121 -0.4109
12219TIP3    H158148   3.025   4.518  10.984  0.6356  0.5653 -0.4047
12219TIP3    H258149   3.097   4.581  11.101  1.2954 -1.0443  0.0888
12220TIP3   OH258150   1.571   4.495  16.541 -0.0607 -0.3741  0.1251
12220TIP3    H158151   1.602   4.511  16.451 -1.4212  0.1787 -0.2778
12220TIP3    H258152   1.651   4.486  16.593  0.7561 -0.3756 -1.0871
12221TIP3   OH258153   5.707   4.363  16.255  0.3101 -0.5624 -0.2480
12221TIP3    H158154   5.783   4.336  16.203  0.5925 -0.7144  0.2342
12221TIP3    H258155   5.682   4.448  16.219  0.5147 -0.6570 -0.6162
12222TIP3   OH258156   0.994   4.979   2.853  0.4521  0.1806 -0.3487
12222TIP3    H158157   0.909   4.939   2.834 -0.5186  2.0935 -0.3020
12222TIP3    H258158   1.001   5.051   2.790  1.5945  0.6407  0.2764
12223TIP3   OH258159   2.978   5.236  16.702  0.4491 -0.6041  0.3999
12223TIP3    H158160   3.044   5.303  16.717  0.2013 -0.4016  0.6025
12223TIP3    H258161   2.900   5.269  16.747 -0.3920  0.1073 -1.4582
12224TIP3   OH258162   6.648   4.981   2.204  0.3301  0.0809  0.0386
12224TIP3    H158163   6.668   5.073   2.186  1.9833 -0.5428 -1.6404
12224TIP3    H258164   6.733   4.941   2.224 -0.1274 -1.4083 -0.8506
12225TIP3   OH258165   5.053   4.155  12.275  0.1915  0.0205  0.1608
12225TIP3    H158166   5.013   4.203  12.347  0.1500  0.0443  0.1219
12225TIP3    H258167   5.121   4.102  12.316  0.9418  0.8951  0.0772
12226TIP3   OH258168   3.201   1.516   3.624 -0.1693 -0.0269  0.1688
12226TIP3    H158169   3.121   1.467   3.641  0.4556 -0.2926  2.6819
12226TIP3    H258170   3.207   1.519   3.528 -1.2259 -3.2437 -0.1255
12227TIP3   OH258171   5.601   2.410   3.561  0.1484 -0.6347  0.1914
12227TIP3    H158172   5.644   2.384   3.479 -0.4528 -0.9621 -0.0258
12227TIP3    H258173   5.605   2.331   3.615 -2.5508 -1.5829 -0.8290
12228TIP3   OH258174   2.254   1.076  14.212 -0.1455 -0.1987 -0.0831
12228TIP3    H158175   2.208   1.160  14.203  1.0484  0.5856  0.8299
12228TIP3    H258176   2.186   1.015  14.241 -0.5398  1.0627  1.8167
12229TIP3   OH258177   0.968   1.120  16.543  0.1296 -0.2777 -0.1028
12229TIP3    H158178   0.884   1.074  16.543 -0.7385  1.2308  0.6555
12229TIP3    H258179   0.986   1.137  16.635  0.0245  1.5561 -0.3873
12230TIP3   OH258180   0.114   6.628   4.263  0.0292  0.0207 -0.3489
12230TIP3    H158181   0.032   6.665   4.231  1.3522  2.2955 -1.3914
12230TIP3    H258182   0.182   6.674   4.213  1.9406 -2.2592 -0.0342
12231TIP3   OH258183   5.976   2.732  12.371 -0.4731  0.6082 -0.4986
12231TIP3    H158184   6.002   2.815  12.331 -1.2517  0.7346 -0.7596
12231TIP3    H258185   5.910   2.696  12.312  0.7354 -0.8111 -1.0517
12232TIP3   OH258186   2.073   3.687  11.901  0.0458  0.7138  0.5211
12232TIP3    H158187   2.123   3.637  11.965 -1.3447 -0.2844  0.8850
12232TIP3    H258188   1.983   3.685  11.935 -0.3856  1.7826 -0.4992
12233TIP3   OH258189   5.408   3.814   4.173  0.1592 -0.4411 -0.1273
12233TIP3    H158190   5.317   3.838   4.156  0.2124 -0.8754 -1.1099
12233TIP3    H258191   5.420   3.829   4.267 -0.3865  1.3408 -0.3135
12234TIP3   OH258192   4.342   2.086   5.398 -0.2050  0.2083  0.1094
12234TIP3    H158193   4.282   2.100   5.325 -0.8279 -1.2280  0.3190
12234TIP3    H258194   4.287   2.094   5.476  0.1656  0.2922  0.3661
12235TIP3   OH258195   0.871   0.692   5.944  0.2677  0.2750  0.1782
12235TIP3    H158196   0.841   0.766   5.890  0.3078 -0.6196 -1.1188
12235TIP3    H258197   0.794   0.635   5.951  1.0010 -0.9406 -1.2688
12236TIP3   OH258198   4.725   1.113  13.387 -0.5353 -0.1857  0.0950
12236TIP3    H158199   4.677   1.033  13.368  0.5146 -0.8947  0.2981
12236TIP3    H258200   4.688   1.145  13.470  0.2638 -1.4951  0.9937
12237TIP3   OH258201   4.165   0.181   3.563 -0.8535 -0.3665  0.0343
12237TIP3    H158202   4.109   0.110   3.532 -2.3971  1.7146 -2.4231
12237TIP3    H258203   4.104   0.252   3.584  0.6657  0.5446  1.5779
12238TIP3   OH258204   2.440   0.298  16.399 -0.0493  0.0182 -0.6079
12238TIP3    H158205   2.520   0.349  16.416 -2.1314  3.4937 -0.2603
12238TIP3    H258206   2.415   0.321  16.310 -1.1379 -0.2667 -0.3925
12239TIP3   OH258207   2.403   4.166  12.706 -0.2055  0.4481 -0.1405
12239TIP3    H158208   2.364   4.201  12.786 -1.6013  0.7052 -0.8976
12239TIP3    H258209   2.350   4.203  12.636  1.0172  0.2446 -1.1891
12240TIP3   OH258210   6.538   2.705   0.101  0.0921 -0.3508 -0.0817
12240TIP3    H158211   6.584   2.738   0.178  1.8293 -1.5654 -0.5545
12240TIP3    H258212   6.449   2.688   0.132  0.4464  0.2396  1.3478
12241TIP3   OH258213   4.688   1.830   3.779  0.2456  0.0532  0.0972
12241TIP3    H158214   4.647   1.745   3.795 -0.2390  0.4836  1.2813
12241TIP3    H258215   4.761   1.811   3.720  0.1972 -1.1922  0.4091
12242TIP3   OH258216   1.282   1.797  10.758 -0.0284  0.5450 -0.1816
12242TIP3    H158217   1.269   1.720  10.814 -0.1633  0.8880  0.2615
12242TIP3    H258218   1.342   1.766  10.689  1.0069  0.4092  0.7545
12243TIP3   OH258219   5.276   0.748   5.141 -0.1255  0.0924  0.2757
12243TIP3    H158220   5.259   0.821   5.199  2.2772 -0.6583  2.1372
12243TIP3    H258221   5.362   0.767   5.103 -2.1196  1.1743 -4.2299
12244TIP3   OH258222   5.697   5.062   1.912 -0.1917  0.3217 -0.3919
12244TIP3    H158223   5.615   5.014   1.925  0.3890 -0.2019  1.6885
12244TIP3    H258224   5.677   5.151   1.943  0.8411 -0.6204  3.5515
12245TIP3   OH258225   6.047   4.570   4.586 -0.5521 -0.0021 -0.4097
12245TIP3    H158226   6.078   4.659   4.602 -0.4469 -0.2635  0.9386
12245TIP3    H258227   6.001   4.546   4.666 -2.4589 -0.3954 -1.5664
12246TIP3   OH258228   5.884   3.497   5.982  0.6092 -0.6471 -0.2401
12246TIP3    H158229   5.896   3.406   5.955 -0.8394  0.1185 -4.1631
12246TIP3    H258230   5.790   3.513   5.970  0.9074  1.5011 -0.0851
12247TIP3   OH258231   1.241   2.397  15.480  0.0765  0.3939 -0.0723
12247TIP3    H158232   1.181   2.458  15.523 -0.9255  0.3974 -1.4137
12247TIP3    H258233   1.255   2.328  15.546 -1.6563  0.2403  0.1996
12248TIP3   OH258234   0.299   5.336  11.480  0.0255  0.4387  0.3658
12248TIP3    H158235   0.255   5.307  11.400 -0.2079  1.4806  0.0974
12248TIP3    H258236   0.238   5.397  11.521  0.5193  0.6052  0.8767
12249TIP3   OH258237   1.105   1.790  15.024  0.5810 -0.4718 -0.0050
12249TIP3    H158238   1.147   1.826  14.946 -0.4059 -1.0121 -0.8002
12249TIP3    H258239   1.163   1.816  15.096  0.9516  0.9358 -0.7809
12250TIP3   OH258240   5.679   5.275   0.017  0.0594  0.2252 -0.2214
12250TIP3    H158241   5.708   5.303  -0.070 -0.5969 -0.4733 -0.6819
12250TIP3    H258242   5.663   5.181   0.008  0.7075 -0.0074  0.8672
12251TIP3   OH258243   1.130   3.232   6.456  0.2349 -0.3746  0.3838
12251TIP3    H158244   1.064   3.196   6.516 -1.0038 -0.1864 -0.8160
12251TIP3    H258245   1.197   3.269   6.514 -0.7655 -0.4625  1.6524
12252TIP3   OH258246   0.365   3.331   4.260  0.1369  0.1619 -0.2319
12252TIP3    H158247   0.434   3.300   4.318 -0.3352  0.7877  0.6961
12252TIP3    H258248   0.359   3.264   4.192  2.4991  0.6955 -1.0561
12253TIP3   OH258249   2.382   1.798   1.667  0.8391  0.0428  0.2012
12253TIP3    H158250   2.330   1.829   1.741  0.7584  0.1789  0.0880
12253TIP3    H258251   2.325   1.811   1.591  0.6931 -0.6283  0.1830
12254TIP3   OH258252   5.217   6.402  15.000 -0.1983  0.1944 -0.4316
12254TIP3    H158253   5.268   6.322  14.992 -0.4237  0.0902 -0.8450
12254TIP3    H258254   5.215   6.420  15.094 -0.8517 -0.7562 -0.2454
12255TIP3   OH258255   6.079   1.862  13.343 -0.3471 -0.8017  0.6169
12255TIP3    H158256   6.082   1.923  13.416 -1.3429  0.8728 -0.6577
12255TIP3    H258257   6.134   1.904  13.276  1.3232 -2.7543  0.6794
12256TIP3   OH258258   5.439   3.333   0.727  0.3477 -0.6614  1.1081
12256TIP3    H158259   5.434   3.305   0.819  0.9521  0.8447  1.6372
12256TIP3    H258260   5.347   3.346   0.702  0.1643 -1.2573  1.4301
12257TIP3   OH258261   3.490   1.764  12.193 -0.5807 -0.6337  0.2243
12257TIP3    H158262   3.404   1.752  12.153 -0.0367 -1.2786 -0.7983
12257TIP3    H258263   3.537   1.682  12.174 -0.1048 -0.7254  1.6956
12258TIP3   OH258264   5.829   1.928  11.534 -0.2409 -0.8638 -0.2356
12258TIP3    H158265   5.823   1.878  11.452  0.1295 -0.7456 -0.3325
12258TIP3    H258266   5.824   1.862  11.602  1.0949 -1.1262 -0.3697
12259TIP3   OH258267   2.673   2.331  15.082 -0.1558  0.1902 -0.2889
12259TIP3    H158268   2.663   2.381  15.164 -1.5901 -1.0865  0.3649
12259TIP3    H258269   2.629   2.248  15.099  1.8549 -1.1946 -1.4656
12260TIP3   OH258270   1.735   3.965   2.701  0.4096  0.2518 -0.3823
12260TIP3    H158271   1.799   3.924   2.643  0.0429  1.4879 -1.7212
12260TIP3    H258272   1.778   4.045   2.731 -0.3481  0.9091 -1.0085
12261TIP3   OH258273   2.221   6.514  13.871 -0.0334  0.0131  0.2353
12261TIP3    H158274   2.228   6.479  13.960 -0.3015 -2.6897 -0.7125
12261TIP3    H258275   2.312   6.520  13.841  0.0504  0.8054  0.6126
12262TIP3   OH258276   1.324   2.844  12.517 -0.8961 -0.1394  0.0473
12262TIP3    H158277   1.297   2.754  12.497 -0.2534 -0.2768 -0.2069
12262TIP3    H258278   1.419   2.842  12.515 -0.8738  0.9916 -1.9550
12263TIP3   OH258279   6.420   2.230  13.764  0.2843 -0.2321  0.1322
12263TIP3    H158280   6.451   2.261  13.850 -0.3541 -0.4223  0.4389
12263TIP3    H258281   6.394   2.139  13.780  1.3705 -0.6823 -0.5679
12264TIP3   OH258282   2.359   3.225   1.334  0.2492  0.0102 -0.0160
12264TIP3    H158283   2.414   3.187   1.403  3.9220  0.3457 -2.5055
12264TIP3    H258284   2.347   3.154   1.271  0.8265  0.8983 -1.1559
12265TIP3   OH258285   5.053   0.777  14.370  0.1246 -0.1497  0.2891
12265TIP3    H158286   5.129   0.821  14.332 -0.4285  1.1271  0.5940
12265TIP3    H258287   5.082   0.748  14.456  0.0896  0.9730  0.6988
12266TIP3   OH258288   2.833   1.458  12.755  0.7447 -0.0394 -0.3470
12266TIP3    H158289   2.807   1.520  12.686  1.3614 -1.7829 -2.2688
12266TIP3    H258290   2.758   1.454  12.813 -0.2184  0.7764 -1.4853
12267TIP3   OH258291   5.802   6.677   5.002 -0.4150  0.0800 -0.5334
12267TIP3    H158292   5.824   6.770   5.001 -0.0977  0.0090 -1.9374
12267TIP3    H258293   5.708   6.674   4.985 -0.8609  0.2005  1.5803
12268TIP3   OH258294   4.819   0.886  14.257 -0.0003 -0.1967 -0.3751
12268TIP3    H158295   4.765   0.812  14.232 -0.6201 -0.3247  1.2454
12268TIP3    H258296   4.894   0.848  14.302 -0.0596  0.1268  0.0050
12269TIP3   OH258297   6.311   1.244   5.567  0.1838 -0.4567 -0.4805
12269TIP3    H158298   6.342   1.332   5.590  0.2008 -0.5632 -0.1013
12269TIP3    H258299   6.222   1.240   5.602 -0.3399 -0.0951 -1.7039
12270TIP3   OH258300   6.714   2.633   3.138 -0.1604  0.2121  0.4573
12270TIP3    H158301   6.647   2.566   3.151 -1.3375  1.2696  0.0083
12270TIP3    H258302   6.760   2.606   3.059 -1.2843  0.4366 -0.2944
12271TIP3   OH258303   6.501   4.866  16.384  0.0898  0.2896  0.2746
12271TIP3    H158304   6.434   4.841  16.320  1.5497  2.0548 -2.0827
12271TIP3    H258305   6.564   4.793  16.382  0.5219  0.6710 -0.9492
12272TIP3   OH258306   5.986   4.001   6.139  0.2415 -0.2422 -0.0255
12272TIP3    H158307   5.894   4.029   6.138 -0.3902 -2.0549  1.8387
12272TIP3    H258308   6.027   4.052   6.069 -2.0792  0.9256 -0.6272
12273TIP3   OH258309   3.320   6.119  13.054  0.4729  0.1645  0.0539
12273TIP3    H158310   3.316   6.159  13.141 -0.4728 -1.2595  0.6918
12273TIP3    H258311   3.326   6.194  12.994  1.1317  1.1756  1.3203
12274TIP3   OH258312   4.186   3.874   2.562  0.2806 -0.2279 -0.1989
12274TIP3    H158313   4.141   3.791   2.573 -1.0836  0.3359 -1.1751
12274TIP3    H258314   4.239   3.863   2.483  3.4138 -1.4786  1.8738
12275TIP3   OH258315   5.816   6.353  14.874 -0.2962 -0.4849  0.1022
12275TIP3    H158316   5.862   6.281  14.831  1.8232  0.4933  0.5591
12275TIP3    H258317   5.836   6.342  14.967 -2.8702 -1.2298  0.6574
12276TIP3   OH258318   2.805   3.246  13.583 -0.0954 -0.0099  0.1077
12276TIP3    H158319   2.884   3.241  13.530  0.2217 -0.4741  0.6103
12276TIP3    H258320   2.802   3.337  13.613 -1.1739  0.7061 -2.0159
12277TIP3   OH258321   1.292   2.908  13.741  0.1388 -0.0520  0.3121
12277TIP3    H158322   1.379   2.929  13.774  0.1003 -0.8267  0.9591
12277TIP3    H258323   1.294   2.813  13.729 -1.3512 -0.4766  2.6899
12278TIP3   OH258324   6.523   2.697  17.498  0.3416 -0.4300  0.2897
12278TIP3    H158325   6.554   2.773  17.450 -0.0910 -0.3316  0.1626
12278TIP3    H258326   6.530   2.721  17.590 -1.0482  0.2719  0.2294
12279TIP3   OH258327   5.823   1.767  13.277 -0.0492  0.0081  0.7606
12279TIP3    H158328   5.815   1.808  13.191 -1.4057 -0.8228  0.4732
12279TIP3    H258329   5.901   1.807  13.315  0.2071  0.8517 -0.5954
12280TIP3   OH258330   0.685   1.892  13.774  0.2983 -0.4048  0.0118
12280TIP3    H158331   0.626   1.964  13.753 -0.7178 -1.1185  0.3233
12280TIP3    H258332   0.705   1.902  13.867  1.2245  0.2147 -0.2395
12281TIP3   OH258333   2.345   5.309  15.222 -0.3705  0.2974 -0.0151
12281TIP3    H158334   2.330   5.401  15.201  1.6661  1.2714  2.3096
12281TIP3    H258335   2.289   5.292  15.297 -0.3533 -0.2069 -0.1108
12282TIP3   OH258336   1.553   3.896  16.159  0.1083 -0.1144  0.0006
12282TIP3    H158337   1.647   3.911  16.168  0.0409  0.1156  0.3333
12282TIP3    H258338   1.546   3.839  16.082  0.5319 -0.3037  0.0949
12283TIP3   OH258339   3.138   2.785   3.508  0.6376 -0.2137  0.2851
12283TIP3    H158340   3.088   2.704   3.517  0.3814  0.0311  1.1304
12283TIP3    H258341   3.211   2.775   3.569  0.7680  0.0707  0.1776
12284TIP3   OH258342   0.912   2.858   3.720 -0.0587  0.4247 -0.0122
12284TIP3    H158343   0.918   2.792   3.789 -3.2647  0.2034  0.2238
12284TIP3    H258344   0.974   2.926   3.746  3.1344 -2.2292 -0.1045
12285TIP3   OH258345   3.586   5.838   5.122  0.2852  0.0012  0.2232
12285TIP3    H158346   3.498   5.871   5.107  0.6430  1.3891  0.9853
12285TIP3    H258347   3.577   5.770   5.188 -0.5612 -2.0279 -1.8640
12286TIP3   OH258348   5.806   4.529  11.162 -0.4676 -0.2988  0.2826
12286TIP3    H158349   5.731   4.496  11.113 -0.3471 -0.3544  0.1371
12286TIP3    H258350   5.799   4.624  11.157 -0.8581 -0.2941  0.7642
12287TIP3   OH258351   2.855   2.609   3.704 -0.1690 -0.2411  0.1641
12287TIP3    H158352   2.837   2.521   3.737  0.2624 -0.7236 -0.8413
12287TIP3    H258353   2.917   2.596   3.633 -1.3065  0.7087 -1.0627
12288TIP3   OH258354   2.877   0.003   0.662 -0.0844  0.1954 -0.2216
12288TIP3    H158355   2.847  -0.025   0.576  0.9036  0.3865 -0.6486
12288TIP3    H258356   2.822   0.079   0.684 -0.7571 -0.2397 -0.3937
12289TIP3   OH258357   4.994   1.250   5.104 -0.1000  0.7422  0.6200
12289TIP3    H158358   4.982   1.238   5.009  0.1482  1.4304  0.4994
12289TIP3    H258359   5.069   1.194   5.126 -1.1402 -0.6864  0.7134
12290TIP3   OH258360   4.153   4.505  15.263 -0.0584  0.0184  0.3358
12290TIP3    H158361   4.135   4.592  15.228 -1.9352 -1.0705 -1.6119
12290TIP3    H258362   4.228   4.519  15.322 -1.2027  3.1608  1.2755
12291TIP3   OH258363   6.205   4.920   2.197  0.2889  0.0482 -0.2860
12291TIP3    H158364   6.132   4.864   2.225 -0.0001  0.5195 -0.0780
12291TIP3    H258365   6.270   4.911   2.267  0.1457  0.1449 -0.1385
12292TIP3   OH258366   1.649   2.790  12.708  0.2732 -0.0041  0.1304
12292TIP3    H158367   1.627   2.698  12.698  0.9147 -0.0846 -0.5608
12292TIP3    H258368   1.733   2.790  12.755  1.7193  0.1143 -2.2932
12293TIP3   OH258369   0.762   1.540  12.503  0.1267 -0.5053  0.1404
12293TIP3    H158370   0.730   1.614  12.451  1.3701 -0.6299 -0.8479
12293TIP3    H258371   0.787   1.579  12.586 -3.2806 -0.5273  1.3347
12294TIP3   OH258372   5.701   3.392   5.749 -0.1346  0.1212  0.4136
12294TIP3    H158373   5.774   3.358   5.800 -2.1331 -1.9745  2.0724
12294TIP3    H258374   5.732   3.389   5.658  1.9848 -0.2073  1.1000
12295TIP3   OH258375   5.204   4.192   3.245  0.4457  0.3000  0.9233
12295TIP3    H158376   5.182   4.178   3.337 -0.4299  0.2478  0.7132
12295TIP3    H258377   5.162   4.120   3.199  0.7577  0.4068  0.4662
12296TIP3   OH258378   3.401   2.336   0.606  0.7141  0.4903  0.1449
12296TIP3    H158379   3.478   2.284   0.627  1.6109 -0.1939 -3.9323
12296TIP3    H258380   3.432   2.426   0.602  0.5155  0.6398  1.4930
12297TIP3   OH258381   4.838   0.355  11.055 -0.1314  0.3679  0.4443
12297TIP3    H158382   4.810   0.316  10.973 -0.0683 -0.8104  0.9640
12297TIP3    H258383   4.765   0.338  11.115  0.8581 -1.0694  1.3079
12298TIP3   OH258384   4.819   3.900  14.483 -0.0407  0.5001  0.7034
12298TIP3    H158385   4.892   3.925  14.540  1.3700  2.2338 -1.6546
12298TIP3    H258386   4.784   3.984  14.451 -0.1176 -0.3573 -1.6600
12299TIP3   OH258387   4.696   2.555   1.999  0.2434 -0.8070  0.1305
12299TIP3    H158388   4.733   2.583   1.915  1.6446 -1.8200  0.3686
12299TIP3    H258389   4.601   2.552   1.984  0.5218 -1.8256 -1.7050
12300TIP3   OH258390   6.016   2.223  17.302  1.2072 -0.1240 -0.5587
12300TIP3    H158391   5.940   2.249  17.353  2.2707  2.7679 -0.2624
12300TIP3    H258392   5.987   2.226  17.211  0.6532 -0.2851 -0.3891
12301TIP3   OH258393   5.596   5.845  16.186  0.2009 -0.0225 -0.1530
12301TIP3    H158394   5.668   5.806  16.235 -0.0299  2.1061  2.0514
12301TIP3    H258395   5.543   5.771  16.159  2.1337 -1.4991 -0.1275
12302TIP3   OH258396   3.645   3.406   4.238  0.2496  0.1714  0.0706
12302TIP3    H158397   3.642   3.319   4.200  1.4202 -0.3903  1.2022
12302TIP3    H258398   3.722   3.405   4.295  0.2763  1.9338  0.1222
12303TIP3   OH258399   6.564   6.275  12.720 -0.1912 -0.3094 -0.3957
12303TIP3    H158400   6.581   6.351  12.665  0.6399 -0.2852 -0.1148
12303TIP3    H258401   6.649   6.254  12.759 -0.5941 -0.8420  0.2154
12304TIP3   OH258402   1.488   6.406  17.593  0.4516 -0.3240  0.6232
12304TIP3    H158403   1.451   6.373  17.675 -2.0111 -1.9607 -0.9976
12304TIP3    H258404   1.424   6.470  17.562 -0.8625 -2.6203 -1.8676
12305TIP3   OH258405   5.881   4.985  11.906 -0.2056  0.3626  0.0833
12305TIP3    H158406   5.911   5.024  11.988 -1.3474  0.7567  0.3239
12305TIP3    H258407   5.873   5.059  11.846  1.6298 -0.0464 -0.7261
12306TIP3   OH258408   0.343   0.934  15.408  0.6288  0.1023  0.0214
12306TIP3    H158409   0.283   0.900  15.341 -1.7753  0.3340  1.9647
12306TIP3    H258410   0.352   1.027  15.387 -0.0274  0.1555 -0.0441
12307TIP3   OH258411   5.894   2.063  10.979  0.0753  0.1311 -0.2171
12307TIP3    H158412   5.822   2.047  10.918  0.8213 -0.3354 -1.0029
12307TIP3    H258413   5.933   1.977  10.993 -1.4878 -0.1957  2.7770
12308TIP3   OH258414   5.048   2.605   3.835 -0.4154  0.3131  0.0248
12308TIP3    H158415   5.127   2.596   3.888  0.2667  1.3951 -0.7644
12308TIP3    H258416   5.081   2.618   3.746 -1.4165  2.2968 -0.1095
12309TIP3   OH258417   6.206   5.186   6.459 -0.0850  0.0783  0.8170
12309TIP3    H158418   6.229   5.095   6.478  0.9959  0.5651  1.9546
12309TIP3    H258419   6.121   5.199   6.501 -1.8196 -1.2409 -1.9741
12310TIP3   OH258420   5.787   2.162   5.372  0.4826 -0.1249 -0.0729
12310TIP3    H158421   5.786   2.212   5.291 -1.0466  1.0520  0.6081
12310TIP3    H258422   5.703   2.117   5.373 -0.1888  1.0865  1.5350
12311TIP3   OH258423   3.189   5.742  12.851  0.3028 -0.1719 -0.2150
12311TIP3    H158424   3.237   5.807  12.798 -1.0761 -0.3886 -1.7914
12311TIP3    H258425   3.131   5.795  12.906  2.0151  0.0752  1.4635
12312TIP3   OH258426   6.651   5.255   6.013  0.0272 -0.9103  0.1994
12312TIP3    H158427   6.731   5.303   5.992  0.2585 -1.9407 -1.4083
12312TIP3    H258428   6.681   5.175   6.056 -0.1368 -1.2300 -0.2717
12313TIP3   OH258429   1.703   0.929  16.912  0.1333 -0.1323  0.0286
12313TIP3    H158430   1.716   0.957  17.003 -0.7247 -0.7157  0.3557
12313TIP3    H258431   1.724   1.006  16.859 -1.5674  0.9602  0.8580
12314TIP3   OH258432   1.617   3.501   5.474 -0.0962  0.1517 -0.3172
12314TIP3    H158433   1.700   3.539   5.502 -0.9127  0.6991  1.5930
12314TIP3    H258434   1.565   3.576   5.445 -0.0684 -0.1338 -1.1171
12315TIP3   OH258435   6.345   2.754  16.010 -0.5232 -0.5231  0.2074
12315TIP3    H158436   6.438   2.774  16.019 -0.9419  1.8012  0.1693
12315TIP3    H258437   6.315   2.812  15.940 -1.6946 -2.4604 -0.9992
12316TIP3   OH258438   3.397   3.517   0.260 -0.6625 -0.0122  0.3315
12316TIP3    H158439   3.482   3.553   0.235 -0.0249 -0.8138  1.2876
12316TIP3    H258440   3.411   3.477   0.346 -1.8807 -0.6172  0.2830
12317TIP3   OH258441   1.587   0.541  15.901 -0.2622 -0.4414 -0.3183
12317TIP3    H158442   1.675   0.565  15.872 -0.0335 -0.5232  0.2996
12317TIP3    H258443   1.545   0.625  15.922 -0.0249 -0.4567  0.2412
12318TIP3   OH258444   3.886   6.722   5.496  0.0169  0.3328  0.2868
12318TIP3    H158445   3.851   6.641   5.532  0.2534  0.5585  1.0342
12318TIP3    H258446   3.907   6.701   5.405 -1.2075 -0.0626  0.0722
12319TIP3   OH258447   2.973   3.075  11.593 -0.2219 -0.1435  0.2165
12319TIP3    H158448   3.063   3.055  11.566 -0.0012 -0.9228  1.5041
12319TIP3    H258449   2.928   3.091  11.510  1.0322  0.0241 -0.4752
12320TIP3   OH258450   6.533   5.857  13.260  0.7271  0.0294  0.4157
12320TIP3    H158451   6.600   5.811  13.209 -1.2606 -2.3617 -0.2754
12320TIP3    H258452   6.450   5.817  13.232 -0.9836  2.5444  1.5187
12321TIP3   OH258453   4.111   1.980   5.904 -0.6962 -0.5103 -0.3517
12321TIP3    H158454   4.110   1.884   5.906  0.8657 -0.5463  0.5453
12321TIP3    H258455   4.029   2.006   5.946 -1.4172 -1.4284 -1.1320
12322TIP3   OH258456   5.266   6.024  13.509 -0.1263 -0.2320 -0.1855
12322TIP3    H158457   5.347   6.030  13.559  0.8378 -0.5491 -1.6400
12322TIP3    H258458   5.294   6.025  13.417 -1.6998 -1.2052 -0.7240
12323TIP3   OH258459   4.588   2.839   2.190 -0.0636  0.4380  0.4484
12323TIP3    H158460   4.643   2.761   2.194 -1.9044 -0.9572 -0.1330
12323TIP3    H258461   4.528   2.823   2.117 -0.6673  2.2927  0.4781
12324TIP3   OH258462   3.288   6.203  16.156  0.2827 -0.1561  0.6615
12324TIP3    H158463   3.309   6.289  16.191 -0.3591  0.4155 -0.3124
12324TIP3    H258464   3.331   6.141  16.215  2.5222  0.8642  0.1828
12325TIP3   OH258465   1.002   5.686  16.012  0.1047 -0.1300  0.5819
12325TIP3    H158466   0.997   5.600  16.053  2.2768 -0.5284  0.1104
12325TIP3    H258467   0.910   5.714  16.004 -0.7746 -2.9952 -0.5900
12326TIP3   OH258468   1.057   0.693   0.903  0.1350 -0.1975 -0.2088
12326TIP3    H158469   0.984   0.634   0.886  1.3523 -1.6650 -0.5838
12326TIP3    H258470   1.018   0.767   0.949 -2.0605  0.4697 -2.9319
12327TIP3   OH258471   6.538   6.576  14.690  0.0506  0.0263 -0.3592
12327TIP3    H158472   6.632   6.593  14.687 -0.0063  0.2741 -0.7566
12327TIP3    H258473   6.509   6.619  14.771  0.3589 -0.4841  0.0318
12328TIP3   OH258474   5.306   0.694   5.940 -0.0216  0.4359  0.0855
12328TIP3    H158475   5.301   0.787   5.960 -0.5250  0.6346 -0.9180
12328TIP3    H258476   5.226   0.657   5.976  0.2537  0.3558  0.6260
12329TIP3   OH258477   2.621   2.275  16.773  0.3239  0.1598 -0.9147
12329TIP3    H158478   2.700   2.314  16.735  1.2180  0.6932  1.3042
12329TIP3    H258479   2.559   2.348  16.776  1.2240  0.9245  1.1378
12330TIP3   OH258480   2.080   1.843  12.987 -0.6840  0.1002  0.0222
12330TIP3    H158481   2.130   1.924  12.990  0.8780 -0.8579  2.5082
12330TIP3    H258482   2.032   1.842  13.069 -1.5626 -1.0021 -0.4773
12331TIP3   OH258483   5.205   5.129   5.481  0.4907 -0.1666 -0.2769
12331TIP3    H158484   5.136   5.066   5.461  0.1765  0.7201 -2.1043
12331TIP3    H258485   5.165   5.191   5.541 -0.2473  0.2076 -1.1418
12332TIP3   OH258486   0.931   2.382  13.766  0.3349  0.7744 -0.1569
12332TIP3    H158487   0.950   2.376  13.860 -0.5545 -0.7489 -0.0490
12332TIP3    H258488   0.865   2.315  13.750 -1.0074  2.3394 -1.5173
12333TIP3   OH258489   5.933   5.386  14.132  0.3962 -0.3714  0.2037
12333TIP3    H158490   5.843   5.361  14.114  0.6957 -0.0836 -1.8658
12333TIP3    H258491   5.986   5.320  14.089  1.2199 -0.7257  1.6698
12334TIP3   OH258492   4.851   6.057  17.659  0.0863  0.5427 -0.2783
12334TIP3    H158493   4.884   6.067  17.569 -1.2120 -2.1319 -1.1444
12334TIP3    H258494   4.925   6.081  17.714  1.0557  1.8689 -2.0403
12335TIP3   OH258495   5.306   6.629  15.672  0.2090  0.2545  0.3590
12335TIP3    H158496   5.310   6.723  15.655 -1.5041  0.3955  0.4631
12335TIP3    H258497   5.221   6.617  15.715  1.0459 -1.1414  1.7129
12336TIP3   OH258498   1.156   4.924  15.062  0.6865 -0.0984  0.4913
12336TIP3    H158499   1.181   4.964  14.979  0.2814  2.0970  1.3347
12336TIP3    H258500   1.234   4.878  15.092  0.8663 -0.8187 -1.0194
12337TIP3   OH258501   0.757   6.677  11.934  0.3659  0.0495 -0.0873
12337TIP3    H158502   0.815   6.705  11.863 -1.1871 -1.4663 -2.0504
12337TIP3    H258503   0.761   6.582  11.932 -0.3599 -0.0394  1.3614
12338TIP3   OH258504   5.217   5.221  13.611 -0.0612 -0.2810 -0.4990
12338TIP3    H158505   5.259   5.298  13.649  0.0159 -1.2280  1.4266
12338TIP3    H258506   5.288   5.172  13.569 -0.2253  1.0224 -2.4376
12339TIP3   OH258507   2.101   0.080   5.583 -0.5402  0.2751 -0.1329
12339TIP3    H158508   2.186   0.078   5.627  0.5174  1.9020 -1.9307
12339TIP3    H258509   2.098  -0.001   5.533 -0.6544 -0.4088  0.9609
12340TIP3   OH258510   5.603   4.999   3.656  0.2452  0.9658 -0.3013
12340TIP3    H158511   5.696   4.997   3.679  0.4346 -0.3106 -1.1256
12340TIP3    H258512   5.559   4.967   3.735  0.7389 -1.2319 -0.8481
12341TIP3   OH258513   5.254   5.406  15.611 -0.1558  0.3410  0.5145
12341TIP3    H158514   5.221   5.478  15.558 -0.3125  0.0065  0.1557
12341TIP3    H258515   5.349   5.418  15.614  0.0542 -0.5925 -1.2687
12342TIP3   OH258516   3.180   6.226   5.606 -0.7339  0.1725 -0.0048
12342TIP3    H158517   3.109   6.172   5.572  0.5081 -1.7818  0.3396
12342TIP3    H258518   3.212   6.179   5.682  0.6960  1.1835  0.0571
12343TIP3   OH258519   0.320   6.229   5.417  0.7799 -0.2159  0.4856
12343TIP3    H158520   0.225   6.232   5.408  0.6128  2.4871  2.0077
12343TIP3    H258521   0.352   6.300   5.361  1.8892 -0.9288  0.1877
12344TIP3   OH258522   2.353   6.093  16.864  0.2169 -0.0321  0.4677
12344TIP3    H158523   2.342   6.186  16.887  2.0064  0.0475  1.1511
12344TIP3    H258524   2.412   6.059  16.930  0.8539 -1.2667 -0.7013
12345TIP3   OH258525   2.383   3.253  12.989 -0.1849  0.3964  0.0538
12345TIP3    H158526   2.352   3.221  13.074  0.4525 -0.3291  0.0283
12345TIP3    H258527   2.419   3.340  13.008 -2.7593  1.5918 -0.0349
12346TIP3   OH258528   0.254   4.234   0.683 -0.5658  0.0222 -0.2720
12346TIP3    H158529   0.190   4.294   0.722 -0.8990 -1.3964  1.5257
12346TIP3    H258530   0.205   4.189   0.614 -0.5386  1.2065 -1.0952
12347TIP3   OH258531   5.072   4.843  11.397  0.0323  0.6284 -0.3280
12347TIP3    H158532   5.141   4.863  11.461 -0.4458  1.7752 -0.1452
12347TIP3    H258533   5.020   4.923  11.392 -2.6259 -0.8571  1.1710
12348TIP3   OH258534   4.387   0.032  13.998  0.2097 -0.6871  0.8715
12348TIP3    H158535   4.413  -0.057  13.973  1.3510  0.2303 -1.5624
12348TIP3    H258536   4.291   0.029  14.001  0.2211 -1.9236  0.4994
12349TIP3   OH258537   3.774   5.790  12.007  0.6516  0.4676  0.2177
12349TIP3    H158538   3.719   5.863  12.036  0.8136  1.2134 -1.2403
12349TIP3    H258539   3.731   5.758  11.928  0.3032 -1.3858  1.0964
12350TIP3   OH258540   2.738   2.940   5.876 -0.7691  0.4511  0.7995
12350TIP3    H158541   2.788   2.989   5.810 -0.3070 -0.8429  0.1488
12350TIP3    H258542   2.648   2.938   5.841 -0.7996  0.8549  0.8493
12351TIP3   OH258543   3.027   0.286  14.373 -0.1664 -0.3999  0.1120
12351TIP3    H158544   3.093   0.328  14.428 -1.0723  0.8931  0.2713
12351TIP3    H258545   3.044   0.321  14.285  0.1159 -1.0146 -0.0796
12352TIP3   OH258546   0.268   0.687  11.037 -0.1880 -0.4396  0.1080
12352TIP3    H158547   0.355   0.664  11.003 -0.0938  0.3519 -0.2294
12352TIP3    H258548   0.262   0.782  11.022 -0.5945 -0.2624  1.3174
12353TIP3   OH258549   5.067   3.046   1.053  0.6627  0.5094  0.2166
12353TIP3    H158550   5.160   3.039   1.075  0.7610  0.7788 -0.0904
12353TIP3    H258551   5.066   3.049   0.957  0.3032  0.0646  0.2059
12354TIP3   OH258552   4.230   2.878  16.298  0.0444 -0.5197  0.0946
12354TIP3    H158553   4.161   2.822  16.334  0.9317 -2.1451 -0.6308
12354TIP3    H258554   4.307   2.821  16.293  1.5771  1.3452  1.2571
12355TIP3   OH258555   4.391   1.097  15.547 -0.3162 -0.2134  1.0378
12355TIP3    H158556   4.319   1.045  15.583 -0.7838 -0.0550  0.3599
12355TIP3    H258557   4.469   1.045  15.563 -0.8520 -1.4656 -0.2575
12356TIP3   OH258558   3.563   6.368  11.668  0.0606  0.3906  0.1677
12356TIP3    H158559   3.529   6.295  11.615  0.1823 -0.0327  0.6611
12356TIP3    H258560   3.511   6.444  11.641 -2.9729 -0.6346  2.5292
12357TIP3   OH258561   6.271   5.297  12.137  0.2327  0.6262 -0.5978
12357TIP3    H158562   6.303   5.387  12.132  2.3128  0.3012  3.2513
12357TIP3    H258563   6.192   5.302  12.190  0.5226  0.2097 -0.1091
12358TIP3   OH258564   4.287   5.308   2.724 -0.2173  0.4830 -0.2454
12358TIP3    H158565   4.367   5.315   2.776  0.8947 -3.0649 -1.2435
12358TIP3    H258566   4.231   5.248   2.773 -2.3459  2.7432  0.3317
12359TIP3   OH258567   2.260   1.303  17.436 -0.0021  0.0808  0.1542
12359TIP3    H158568   2.353   1.322  17.442  0.4163 -1.7155 -0.1838
12359TIP3    H258569   2.239   1.315  17.343 -0.2242  0.8973  0.2995
12360TIP3   OH258570   0.175   4.065   1.640 -0.4956 -0.4235  0.3248
12360TIP3    H158571   0.255   4.097   1.601 -0.8045  0.3031  0.2744
12360TIP3    H258572   0.109   4.132   1.620 -0.3579  0.7310  3.3057
12361TIP3   OH258573   0.025   3.916  16.216  0.8969 -0.2718  0.6249
12361TIP3    H158574  -0.015   3.998  16.246  1.2957 -0.1375  0.7896
12361TIP3    H258575   0.024   3.859  16.293  0.2975 -0.5522  0.4187
12362TIP3   OH258576   4.793   3.551  15.498  0.0483  0.3955  0.4520
12362TIP3    H158577   4.755   3.497  15.568 -0.5437  0.3906  0.1322
12362TIP3    H258578   4.818   3.632  15.541 -0.3408  0.4034  0.6618
12363TIP3   OH258579   0.776   3.430   1.637 -0.1757  0.0277  0.2631
12363TIP3    H158580   0.857   3.480   1.628  0.6723 -1.5579 -1.6070
12363TIP3    H258581   0.707   3.494   1.619  0.8938  0.4556 -2.8674
12364TIP3   OH258582   6.096   4.010   0.730 -0.2753  0.4498  1.0130
12364TIP3    H158583   6.027   4.032   0.666 -2.0614 -1.6073  2.0786
12364TIP3    H258584   6.176   4.047   0.692 -1.6318  1.3343 -1.2410
12365TIP3   OH258585   6.188   6.074  13.430  0.3046 -0.1474 -0.3635
12365TIP3    H158586   6.261   6.089  13.369 -0.2849  0.3294 -0.9597
12365TIP3    H258587   6.218   6.111  13.513  0.0331  1.7490 -1.0632
12366TIP3   OH258588   2.520   6.363   6.322  0.8208  0.2357 -0.4514
12366TIP3    H158589   2.578   6.434   6.294  1.1753  0.1227 -0.0111
12366TIP3    H258590   2.570   6.316   6.388  0.2244  0.1320 -0.0705
12367TIP3   OH258591   1.540   6.067  12.530  0.0004 -0.1224 -0.6853
12367TIP3    H158592   1.457   6.033  12.495 -1.0723  1.1657  0.4836
12367TIP3    H258593   1.518   6.096  12.619  1.8796 -0.3480 -0.1070
12368TIP3   OH258594   2.103   5.198   5.423  0.1079 -0.5344 -0.1707
12368TIP3    H158595   2.012   5.210   5.396 -0.4146 -0.3665  1.5571
12368TIP3    H258596   2.122   5.275   5.476  1.8967  0.3956 -2.0110
12369TIP3   OH258597   2.168   6.236  16.460  0.6507 -0.1832  0.2742
12369TIP3    H158598   2.177   6.321  16.504 -0.6269 -0.6436  1.5234
12369TIP3    H258599   2.089   6.198  16.498  1.7682 -2.4039  0.5243
12370TIP3   OH258600   5.650   3.669   5.984 -0.0122 -0.6132 -0.1997
12370TIP3    H158601   5.633   3.716   6.065  0.2251  1.0851 -1.1014
12370TIP3    H258602   5.567   3.670   5.937  0.3458  0.1879 -0.8448
12371TIP3   OH258603   6.297   6.112  13.148  0.0340 -0.2065  0.2796
12371TIP3    H158604   6.324   6.107  13.056  0.2300 -1.0681  0.3765
12371TIP3    H258605   6.268   6.203  13.159  1.3160  0.2891 -0.2680
12372TIP3   OH258606   4.572   2.654   4.838 -0.2677  0.6756 -0.1513
12372TIP3    H158607   4.537   2.612   4.916  0.9053  0.4956  0.2979
12372TIP3    H258608   4.496   2.690   4.794 -1.1516 -0.7004  0.1835
12373TIP3   OH258609   3.878   1.860  16.265 -0.0059  0.0681  0.8673
12373TIP3    H158610   3.825   1.939  16.265 -0.8511 -0.4828  0.7692
12373TIP3    H258611   3.837   1.804  16.331 -1.8954 -1.8585 -1.7383
12374TIP3   OH258612   1.274   6.650   2.463  0.5796  0.1813  0.5236
12374TIP3    H158613   1.230   6.733   2.445 -1.4584 -0.9184  0.1348
12374TIP3    H258614   1.348   6.673   2.520  0.5120  2.3260 -0.1934
12375TIP3   OH258615   6.113   1.178  15.225  0.0971 -0.0456 -0.7734
12375TIP3    H158616   6.146   1.090  15.239  1.4618  0.2655 -1.7519
12375TIP3    H258617   6.179   1.235  15.266 -0.7070  0.5220 -0.2497
12376TIP3   OH258618   5.270   6.314   3.144  0.5297 -0.4317  0.0469
12376TIP3    H158619   5.212   6.248   3.107 -0.9041  0.5801  0.3973
12376TIP3    H258620   5.351   6.307   3.093 -0.9750  0.1790 -2.6219
12377TIP3   OH258621   1.425   1.633  13.986  0.7184 -0.1549 -0.3077
12377TIP3    H158622   1.332   1.655  13.990  0.5792 -0.7178 -0.3082
12377TIP3    H258623   1.467   1.710  13.949  0.3464  0.3808  0.3500
12378TIP3   OH258624   6.336   0.281  16.500 -0.6350 -0.5055 -0.1261
12378TIP3    H158625   6.262   0.326  16.459  0.0813  0.3828 -0.4923
12378TIP3    H258626   6.319   0.289  16.594 -1.0018 -0.3198 -0.2041
12379TIP3   OH258627   1.154   6.183   2.085 -0.5048 -0.1515  0.0159
12379TIP3    H158628   1.148   6.223   2.172  0.1408 -0.1045  0.0440
12379TIP3    H258629   1.221   6.234   2.040 -0.7122 -0.2864 -0.4504
12380TIP3   OH258630   4.259   3.300  14.670 -0.8025 -0.4044 -0.6580
12380TIP3    H158631   4.244   3.341  14.584  0.0593  0.7250 -0.2921
12380TIP3    H258632   4.200   3.347  14.729  0.8981  1.0287 -0.0475
12381TIP3   OH258633   5.965   5.734  11.615 -0.4377 -0.1070  0.0299
12381TIP3    H158634   5.942   5.786  11.538  0.2794  0.7309  0.3603
12381TIP3    H258635   6.061   5.732  11.615 -0.4441 -0.6632  0.5363
12382TIP3   OH258636   4.547   4.940   2.043 -0.8777  0.3639  0.6519
12382TIP3    H158637   4.452   4.930   2.034 -1.1294  0.7977  2.4164
12382TIP3    H258638   4.572   4.874   2.107 -0.3499  1.5845  1.7696
12383TIP3   OH258639   3.630   2.877   0.560 -0.0415 -0.2395  1.0276
12383TIP3    H158640   3.647   2.913   0.647 -0.0064  0.2248  0.8328
12383TIP3    H258641   3.716   2.863   0.523  0.0796 -3.1660  2.1257
12384TIP3   OH258642   1.853   6.085   4.899 -0.1584 -0.3440 -0.0043
12384TIP3    H158643   1.835   6.158   4.958 -1.1481  0.9713 -1.8169
12384TIP3    H258644   1.774   6.031   4.902  0.4032 -1.1573  1.0019
12385TIP3   OH258645   3.829   1.179   5.563 -0.3050  0.3730  0.2002
12385TIP3    H158646   3.865   1.090   5.562 -0.3924  0.2973 -1.9530
12385TIP3    H258647   3.736   1.166   5.580  0.0564  0.3005  2.4009
12386TIP3   OH258648   1.334   0.542   6.038  0.1485 -0.0497  0.2752
12386TIP3    H158649   1.370   0.532   6.126 -0.1115 -0.0539  0.3827
12386TIP3    H258650   1.254   0.594   6.050 -0.7317 -1.3437  0.2550
12387TIP3   OH258651   4.677   3.443  12.939  0.1454  0.3796 -0.0695
12387TIP3    H158652   4.581   3.450  12.934 -0.1705 -3.1125 -1.1757
12387TIP3    H258653   4.709   3.499  12.869 -1.1565  0.7391 -0.4072
12388TIP3   OH258654   1.002   0.556  16.862  0.1560  0.4853 -0.5089
12388TIP3    H158655   0.974   0.614  16.791  1.4277  0.0507 -1.4094
12388TIP3    H258656   1.062   0.609  16.914 -0.5047  0.6931  0.0543
12389TIP3   OH258657   1.553   0.049   5.042 -0.7506  0.0609  0.2409
12389TIP3    H158658   1.528   0.019   4.955 -0.3956  0.6126 -0.0566
12389TIP3    H258659   1.497  -0.001   5.101 -1.1127 -0.1988 -0.3108
12390TIP3   OH258660   1.838   1.072   0.761  0.6045  0.4583  0.2232
12390TIP3    H158661   1.806   1.046   0.675  2.3790  1.6007 -0.8456
12390TIP3    H258662   1.933   1.065   0.755  0.8682  2.1496  1.5210
12391TIP3   OH258663   0.562   5.880  11.464  0.3869 -0.3633  0.5059
12391TIP3    H158664   0.646   5.869  11.508  0.4676 -2.3353 -0.0361
12391TIP3    H258665   0.535   5.791  11.440 -0.2241  0.4694 -2.3074
12392TIP3   OH258666   5.946   0.991  14.963  0.1308  0.1549 -0.0574
12392TIP3    H158667   6.029   1.025  14.930  0.3414  0.3670  0.6667
12392TIP3    H258668   5.894   1.070  14.982  0.6748  0.1214  1.7664
12393TIP3   OH258669   4.743   1.412  17.132 -0.3486 -0.0417  0.2893
12393TIP3    H158670   4.677   1.479  17.112  0.9008  0.6634 -1.8240
12393TIP3    H258671   4.694   1.342  17.174 -2.2934  0.8284 -0.3984
12394TIP3   OH258672   2.226   3.662  11.184 -0.2519  0.0288 -0.2340
12394TIP3    H158673   2.269   3.744  11.159  0.6728 -1.2488 -3.3259
12394TIP3    H258674   2.204   3.673  11.277  5.2571  1.4289  1.2616
12395TIP3   OH258675   6.520   5.465   4.134  0.3768  0.4248 -0.0524
12395TIP3    H158676   6.460   5.406   4.179  0.6554 -1.0815 -1.5297
12395TIP3    H258677   6.487   5.552   4.154 -0.6929 -0.2515  1.3494
12396TIP3   OH258678   4.710   4.046  17.057 -0.4028  0.4511  0.2735
12396TIP3    H158679   4.758   3.967  17.034 -2.1447  0.0619 -2.5265
12396TIP3    H258680   4.682   4.032  17.147 -1.4151 -2.5981 -0.4053
12397TIP3   OH258681   4.837   0.249  13.631  0.0933  0.7895 -0.3710
12397TIP3    H158682   4.792   0.326  13.594 -1.3393  0.4337  0.5374
12397TIP3    H258683   4.782   0.175  13.605  3.2875 -0.5357 -4.3468
12398TIP3   OH258684   2.871   1.514  14.034  0.6694  0.0038 -0.6740
12398TIP3    H158685   2.962   1.491  14.019  1.4028  2.0774  0.2277
12398TIP3    H258686   2.858   1.596  13.986 -0.4234  0.2590  0.0050
12399TIP3   OH258687   5.156   1.511  14.046  0.0004  0.5677 -0.0477
12399TIP3    H158688   5.135   1.433  13.995 -1.2327  0.6690  0.2616
12399TIP3    H258689   5.248   1.500  14.071 -0.0205 -0.5516 -0.4093
12400TIP3   OH258690   1.796   6.210  12.487 -0.2462 -0.2595  0.0452
12400TIP3    H158691   1.714   6.167  12.512 -0.0814 -1.1724 -0.9269
12400TIP3    H258692   1.850   6.205  12.565 -0.4614 -1.2803  0.1390
12401TIP3   OH258693   3.903   5.374  12.132 -0.0011 -0.3907  0.0112
12401TIP3    H158694   3.872   5.296  12.085 -0.0876 -0.4989  0.2414
12401TIP3    H258695   3.950   5.338  12.208 -1.3491 -0.2197  0.9546
12402TIP3   OH258696   3.592   4.725  17.463  0.9906  0.1875  0.8512
12402TIP3    H158697   3.536   4.664  17.512  1.1340 -1.3475 -0.8022
12402TIP3    H258698   3.678   4.684  17.462  1.0158  0.2207 -0.5743
12403TIP3   OH258699   1.685   1.916  14.297  0.5113  0.5228 -0.2627
12403TIP3    H158700   1.761   1.858  14.292 -0.6610 -0.9865 -2.0147
12403TIP3    H258701   1.618   1.863  14.340  0.5463  2.0374  1.8037
12404TIP3   OH258702   4.845   4.419   7.086 -0.5841 -0.3524  0.0265
12404TIP3    H158703   4.853   4.368   7.166  1.7998  2.0233  1.4672
12404TIP3    H258704   4.927   4.404   7.039 -0.8158  0.3676 -0.6375
12405TIP3   OH258705   3.399   0.478   1.056  0.3976  0.3390 -0.6540
12405TIP3    H158706   3.424   0.457   0.966  0.0935 -2.1673 -0.2361
12405TIP3    H258707   3.475   0.454   1.108  0.1680  0.6994 -0.1479
12406TIP3   OH258708   4.346   3.535  11.752 -1.0379  0.0459 -0.2239
12406TIP3    H158709   4.341   3.448  11.711  2.4682 -0.5149  0.2414
12406TIP3    H258710   4.350   3.517  11.846 -0.7084  0.7140 -0.1051
12407TIP3   OH258711   2.850   4.076   5.824  0.0644 -0.1084  0.2954
12407TIP3    H158712   2.832   4.140   5.893  0.7836 -1.5190  1.8582
12407TIP3    H258713   2.937   4.042   5.844  0.1407 -0.8236 -1.1143
12408TIP3   OH258714   4.727   0.267  14.653 -0.2740 -0.1841  0.1115
12408TIP3    H158715   4.746   0.262  14.560  1.2732 -0.5094  0.4247
12408TIP3    H258716   4.721   0.176  14.682  0.3716 -0.1024  0.5305
12409TIP3   OH258717   4.024   3.250   6.371 -0.7403  0.3091  0.0523
12409TIP3    H158718   3.977   3.236   6.453 -0.3341 -1.1885  0.0619
12409TIP3    H258719   4.026   3.345   6.360 -1.1434  0.5175  1.5666
12410TIP3   OH258720   2.187   6.667  16.661 -0.0942  0.2531 -0.4856
12410TIP3    H158721   2.188   6.589  16.606  2.2094 -0.0909 -0.0625
12410TIP3    H258722   2.253   6.725  16.622  1.7069 -0.0529  1.8853
12411TIP3   OH258723   0.552   1.768   4.710 -0.1913  0.3733  0.4070
12411TIP3    H158724   0.463   1.736   4.693 -0.1305 -0.0948  0.9330
12411TIP3    H258725   0.565   1.837   4.646 -0.8313  0.2496  0.1329
12412TIP3   OH258726   2.827   4.586   5.956 -0.5047  0.3030  0.2858
12412TIP3    H158727   2.802   4.676   5.938  1.0334  0.2328 -2.8098
12412TIP3    H258728   2.772   4.533   5.899  0.8070 -0.4275 -0.3644
12413TIP3   OH258729   2.614   2.502  11.625 -0.3066  0.2995 -0.4525
12413TIP3    H158730   2.600   2.425  11.571  3.1476 -2.6335  2.3744
12413TIP3    H258731   2.593   2.474  11.714  0.9979  2.6647  0.6993
12414TIP3   OH258732   2.954   6.273  12.750  0.3279 -0.3200 -0.4958
12414TIP3    H158733   3.026   6.320  12.708 -0.4434  0.7684 -0.6613
12414TIP3    H258734   2.878   6.331  12.740  0.3046  0.5987  3.3682
12415TIP3   OH258735   2.916   6.472   5.716  0.0840  0.5412  0.1707
12415TIP3    H158736   2.846   6.495   5.777 -1.8560 -3.5552 -0.1250
12415TIP3    H258737   2.982   6.428   5.771 -0.3741 -0.7359 -0.2728
12416TIP3   OH258738   3.975   1.335  15.427 -0.4511  0.2512 -0.3344
12416TIP3    H158739   3.912   1.324  15.498  0.9890  0.4237  1.0248
12416TIP3    H258740   4.035   1.402  15.458  1.1698 -0.8374 -0.9925
12417TIP3   OH258741   5.728   1.830   3.613 -0.2111 -0.2485  0.2528
12417TIP3    H158742   5.817   1.793   3.614 -0.5628 -1.1973  2.9103
12417TIP3    H258743   5.705   1.839   3.705 -1.8565  2.6232 -0.3388
12418TIP3   OH258744   6.490   3.172  12.331  0.0244  0.4877  0.2670
12418TIP3    H158745   6.484   3.265  12.352  1.3507  0.8547 -0.8357
12418TIP3    H258746   6.568   3.142  12.378 -0.6054 -0.1703  0.9136
12419TIP3   OH258747   3.724   4.365   5.205 -0.2352 -0.0095 -0.4427
12419TIP3    H158748   3.743   4.458   5.198 -2.3532  0.4622 -0.7641
12419TIP3    H258749   3.630   4.361   5.221 -0.1175 -2.0899  0.0402
12420TIP3   OH258750   6.465   5.465  13.465  0.3405  0.4886 -0.1179
12420TIP3    H158751   6.425   5.388  13.504 -0.5707  1.3640  0.7475
12420TIP3    H258752   6.393   5.529  13.461  1.5025  1.8988  0.8647
12421TIP3   OH258753   1.347   2.604   4.838 -0.2561  0.4091 -0.3424
12421TIP3    H158754   1.438   2.576   4.845 -0.3094  0.0143 -1.1439
12421TIP3    H258755   1.298   2.523   4.821 -0.5393  0.8321 -1.6096
12422TIP3   OH258756   3.425   0.664   4.528  0.1048  0.3463 -0.6157
12422TIP3    H158757   3.495   0.669   4.592 -0.3186  0.2291 -0.1314
12422TIP3    H258758   3.468   0.639   4.446  0.4558 -1.0929 -0.0205
12423TIP3   OH258759   2.503   6.515  17.511  0.2470  0.0566  0.3831
12423TIP3    H158760   2.572   6.470  17.559  1.8298  0.2464 -1.5789
12423TIP3    H258761   2.492   6.598  17.558  1.2417 -0.0637  0.8637
12424TIP3   OH258762   2.760   3.976   3.835  0.1214 -0.4801 -0.3235
12424TIP3    H158763   2.851   3.995   3.812 -0.1229 -1.0291 -1.8589
12424TIP3    H258764   2.720   3.945   3.753 -2.3327  2.8205 -0.5826
12425TIP3   OH258765   3.022   3.072   0.869 -0.1871  0.7603 -0.7454
12425TIP3    H158766   3.118   3.072   0.878 -0.1791 -0.5903 -0.6183
12425TIP3    H258767   3.004   3.140   0.804  0.7230  2.1646  0.4121
12426TIP3   OH258768   5.987   0.240   2.084  0.1460 -0.4228  0.3616
12426TIP3    H158769   6.019   0.199   2.164 -0.3674 -0.2380  0.6688
12426TIP3    H258770   5.915   0.296   2.113  0.4657  0.2620 -0.1195
12427TIP3   OH258771   5.132   6.259   4.928 -0.5248  0.4209 -0.0613
12427TIP3    H158772   5.164   6.314   4.856  0.4918 -1.4378 -1.0978
12427TIP3    H258773   5.124   6.319   5.002  2.2361  1.6913 -0.6526
12428TIP3   OH258774   3.190   2.500  12.721  0.9853  0.0631 -0.0006
12428TIP3    H158775   3.255   2.434  12.695  0.4292 -0.3938 -0.2541
12428TIP3    H258776   3.120   2.491  12.656  0.6902  0.5874  0.2400
12429TIP3   OH258777   4.549   3.857  17.483  0.1731  0.3318  0.6840
12429TIP3    H158778   4.640   3.834  17.463 -0.3513 -0.5987 -0.7647
12429TIP3    H258779   4.537   3.943  17.441  0.9507  1.4732  2.6611
12430TIP3   OH258780   3.374   0.619  17.203 -0.4476 -0.9255  0.0544
12430TIP3    H158781   3.390   0.691  17.142 -1.6420 -1.3291 -0.7708
12430TIP3    H258782   3.279   0.607  17.200 -0.1092 -4.1445 -1.7304
12431TIP3   OH258783   3.927   2.518   4.621  0.3765 -0.6993 -0.1559
12431TIP3    H158784   3.962   2.439   4.661  2.3151  0.0179 -0.3111
12431TIP3    H258785   3.966   2.590   4.671 -2.5656  0.2293  1.0139
12432TIP3   OH258786   1.475   4.545   1.908  0.3420  0.9407  0.1388
12432TIP3    H158787   1.387   4.529   1.874  0.5988  0.1792 -0.1930
12432TIP3    H258788   1.479   4.492   1.988  0.1689  1.7499  0.6991
12433TIP3   OH258789   0.633   3.233   3.210 -0.3420  0.1362  0.0474
12433TIP3    H158790   0.542   3.244   3.238 -0.2169  2.1118 -0.1766
12433TIP3    H258791   0.636   3.273   3.122  0.6469 -0.2823 -0.1197
12434TIP3   OH258792   2.770   1.574  13.179 -0.1416 -0.0079  0.1001
12434TIP3    H158793   2.754   1.583  13.273 -0.2586 -0.9727  0.1747
12434TIP3    H258794   2.778   1.665  13.148 -0.9592  0.3483  0.8837
12435TIP3   OH258795   2.371   0.875   6.664  0.0712 -0.2852 -0.3402
12435TIP3    H158796   2.314   0.941   6.623  1.0142 -0.3511 -1.8621
12435TIP3    H258797   2.312   0.805   6.690 -0.6398 -0.0228 -1.1804
12436TIP3   OH258798   1.552   5.014   6.436  0.1912  0.2017  0.4058
12436TIP3    H158799   1.613   5.076   6.395 -0.6691  0.6916 -0.1658
12436TIP3    H258800   1.531   5.053   6.521  0.9565 -0.1583  0.7683
12437TIP3   OH258801   1.504   4.748  17.035 -0.2240  0.0848  0.0432
12437TIP3    H158802   1.535   4.697  16.960  0.1396 -1.6472  1.3107
12437TIP3    H258803   1.411   4.725  17.042  0.4727 -2.5515  2.1393
12438TIP3   OH258804   2.347   0.891   3.648 -0.0378 -0.1377 -0.3401
12438TIP3    H158805   2.420   0.835   3.675  0.0981  0.6797  1.1244
12438TIP3    H258806   2.372   0.922   3.561  1.3166  0.0155  0.0706
12439TIP3   OH258807   2.667   3.858   0.468  0.2300  0.1233 -0.1346
12439TIP3    H158808   2.587   3.807   0.482  0.8924 -1.0690 -0.5637
12439TIP3    H258809   2.651   3.941   0.513 -1.1102 -0.2283  0.0704
12440TIP3   OH258810   3.623   2.262   7.104 -0.6101  0.0628 -0.5601
12440TIP3    H158811   3.663   2.330   7.159  0.4682 -0.6882 -0.3710
12440TIP3    H258812   3.576   2.310   7.036 -0.4563  0.9975 -0.0256
12441TIP3   OH258813   1.217   5.723   7.019 -0.0982 -0.4181 -0.0091
12441TIP3    H158814   1.211   5.773   6.938  1.7877 -1.0969 -0.6010
12441TIP3    H258815   1.150   5.761   7.076  0.9520  2.5027 -0.5849
12442TIP3   OH258816   5.020   4.169   6.778 -0.0714 -0.3205  0.3087
12442TIP3    H158817   5.027   4.256   6.817  0.6855 -0.7016  1.0661
12442TIP3    H258818   5.064   4.112   6.841  0.1666 -1.1284 -0.5784
12443TIP3   OH258819   4.886   6.374   4.786 -0.7320  0.2994  0.6524
12443TIP3    H158820   4.880   6.330   4.870 -0.2702  0.0094  0.5411
12443TIP3    H258821   4.863   6.466   4.804 -1.0714  0.1453  1.0031
12444TIP3   OH258822   5.500   0.478  16.132 -0.5233 -0.1311  0.4953
12444TIP3    H158823   5.409   0.502  16.147 -1.0499 -1.2918 -0.6818
12444TIP3    H258824   5.496   0.392  16.091  1.1403 -0.5295  1.0814
12445TIP3   OH258825   0.013   6.630  16.392 -0.6923  0.4592 -0.1033
12445TIP3    H158826  -0.028   6.711  16.422 -1.1080  1.0007 -2.0496
12445TIP3    H258827  -0.010   6.623  16.300  0.5313 -1.1524 -0.3394
12446TIP3   OH258828   2.124   3.040  16.380  0.0709 -0.3357  0.5657
12446TIP3    H158829   2.158   3.127  16.399  0.3145 -0.0257 -1.1949
12446TIP3    H258830   2.029   3.052  16.373 -0.0716 -0.5279  1.8274
12447TIP3   OH258831   4.259   1.598  16.080 -0.2184  0.2134  0.1628
12447TIP3    H158832   4.168   1.615  16.102 -0.3754 -0.7109  0.2443
12447TIP3    H258833   4.269   1.504  16.089  0.6196  0.2463 -0.3255
12448TIP3   OH258834   1.725   1.032  14.364  0.7299 -0.1684 -0.5045
12448TIP3    H158835   1.806   0.992  14.394  0.0687  0.5069  2.4846
12448TIP3    H258836   1.736   1.125  14.382 -0.2315  0.1180 -1.2992
12449TIP3   OH258837   1.447   1.948   3.146  0.0935  0.9204  0.7417
12449TIP3    H158838   1.465   1.997   3.227 -0.7866  0.2574  1.3657
12449TIP3    H258839   1.389   1.877   3.174  3.3196 -2.1094  0.4119
12450TIP3   OH258840   5.431   5.590  12.523  0.8040 -0.0129 -0.3135
12450TIP3    H158841   5.501   5.611  12.585  1.6519 -0.2144 -1.1887
12450TIP3    H258842   5.373   5.530  12.571  0.8834  0.6323  0.6237
12451TIP3   OH258843   1.825   3.021  11.985 -0.4184 -0.1772 -0.1122
12451TIP3    H158844   1.914   3.007  11.952  0.4763  1.9836  1.1770
12451TIP3    H258845   1.794   2.933  12.008  1.0849 -1.0661 -1.2601
12452TIP3   OH258846   1.360   3.031   6.500  0.6064 -0.0548 -0.6521
12452TIP3    H158847   1.343   3.075   6.583  0.2823  1.6681 -1.5827
12452TIP3    H258848   1.381   2.941   6.524  0.2881  0.3466  1.2669
12453TIP3   OH258849   0.963   2.666  14.574  0.3946 -0.1705  0.3494
12453TIP3    H158850   0.941   2.741  14.630 -0.9971 -0.2508 -0.0695
12453TIP3    H258851   0.932   2.590  14.623 -0.4419 -0.2744 -0.3211
12454TIP3   OH258852   2.114   1.043   4.180 -0.4254  0.3308 -0.2292
12454TIP3    H158853   2.083   1.015   4.094 -0.8687  1.0979 -0.3277
12454TIP3    H258854   2.045   1.017   4.241  0.4869 -1.4545  0.1220
12455TIP3   OH258855   6.558   3.608   1.806 -0.5819  0.2853 -0.1656
12455TIP3    H158856   6.567   3.642   1.717 -1.7219  0.3411 -0.2697
12455TIP3    H258857   6.490   3.662   1.845  0.2462  0.5773  0.9092
12456TIP3   OH258858   2.867   1.500  11.038  0.5984  0.3182 -0.2454
12456TIP3    H158859   2.792   1.451  11.072 -1.5448  3.0994 -0.5832
12456TIP3    H258860   2.879   1.466  10.949  0.1108 -0.5485  0.0037
12457TIP3   OH258861   6.293   1.784   1.245  0.1660  0.5219  0.1758
12457TIP3    H158862   6.318   1.871   1.214  1.5866  0.5866  1.4286
12457TIP3    H258863   6.371   1.730   1.231 -0.4674 -0.3928  0.0609
12458TIP3   OH258864   4.032   6.150  15.880  0.1375 -0.1503 -0.2088
12458TIP3    H158865   4.106   6.189  15.928  1.7057 -0.9091 -1.9046
12458TIP3    H258866   3.959   6.211  15.895  1.1953  0.8433  1.1773
12459TIP3   OH258867   0.791   0.296   3.203 -0.5109 -0.0129  0.6148
12459TIP3    H158868   0.875   0.324   3.166  0.3512 -3.0380 -0.0743
12459TIP3    H258869   0.726   0.319   3.137  0.2021 -0.0794 -0.1342
12460TIP3   OH258870   5.575   5.980   0.523  0.2360 -0.0891  0.0174
12460TIP3    H158871   5.574   6.064   0.568  0.4391  0.1556 -0.4249
12460TIP3    H258872   5.660   5.942   0.543  0.7585  0.4965 -1.0053
12461TIP3   OH258873   4.773   0.767  15.183  0.4427 -0.2134  0.1991
12461TIP3    H158874   4.747   0.702  15.249  0.6219 -1.5099 -0.9590
12461TIP3    H258875   4.719   0.843  15.201  1.6506  0.1272  2.9013
12462TIP3   OH258876   1.324   6.577  17.469 -0.1014  0.1425 -0.4713
12462TIP3    H158877   1.388   6.647  17.457 -0.5940  0.4940 -1.1434
12462TIP3    H258878   1.265   6.586  17.393 -0.3661 -0.7835 -0.3821
12463TIP3   OH258879   3.389   1.367  14.373 -0.0738  0.3836  0.0399
12463TIP3    H158880   3.477   1.334  14.359 -0.1704  0.6638 -1.3166
12463TIP3    H258881   3.377   1.362  14.468  0.8847 -0.9310  0.1166
12464TIP3   OH258882   2.760   4.342  17.604 -0.5496 -0.3990  0.0561
12464TIP3    H158883   2.840   4.348  17.656  0.7600 -0.8917 -1.8007
12464TIP3    H258884   2.725   4.255  17.624  1.1382 -1.4899 -1.4476
12465TIP3   OH258885   3.498   6.456  16.987 -0.3357 -0.2596  0.1897
12465TIP3    H158886   3.586   6.436  16.953  0.1373 -0.1020  1.2686
12465TIP3    H258887   3.442   6.389  16.948  0.0553  0.2497 -1.3329
12466TIP3   OH258888   3.935   5.394  16.892 -0.0865  0.6591  0.4572
12466TIP3    H158889   3.920   5.474  16.943 -1.3948 -0.1232  1.3636
12466TIP3    H258890   3.921   5.421  16.802  3.6849  2.4255  0.1983
12467TIP3   OH258891   2.378   5.951   5.877 -0.4509 -0.7758  0.1943
12467TIP3    H158892   2.433   6.029   5.868 -1.5272 -0.0654 -0.4978
12467TIP3    H258893   2.321   5.953   5.800 -1.0147 -1.8255  0.5687
12468TIP3   OH258894   5.245   6.438   0.878  0.1618  0.2431  0.5161
12468TIP3    H158895   5.320   6.408   0.928  0.2977  1.5845  1.1416
12468TIP3    H258896   5.169   6.399   0.923  0.4123 -0.3273  0.4523
12469TIP3   OH258897   6.334   6.409   1.891  0.2252 -0.2600 -0.0813
12469TIP3    H158898   6.351   6.372   1.977 -1.6085  2.7147  1.7721
12469TIP3    H258899   6.239   6.400   1.879  0.1929  0.9433 -0.9410
12470TIP3   OH258900   5.241   2.342  16.115 -0.1024  0.1167  0.7944
12470TIP3    H158901   5.238   2.392  16.033 -0.3403  0.6208  1.1039
12470TIP3    H258902   5.311   2.278  16.101 -1.1860 -0.8627 -0.3951
12471TIP3   OH258903   1.220   1.239  16.987  0.0428 -0.2021  0.4571
12471TIP3    H158904   1.140   1.291  16.998  0.5266  1.2914 -2.1863
12471TIP3    H258905   1.289   1.295  17.022  0.1229 -0.8177  1.2959
12472TIP3   OH258906   5.588   0.086  13.120 -0.0227  0.0958  0.4935
12472TIP3    H158907   5.535   0.043  13.053 -2.4151  2.5947  0.6050
12472TIP3    H258908   5.658   0.129  13.071 -0.6642  0.3546 -0.2189
12473TIP3   OH258909   0.602   6.577  15.625  0.1468  0.3760  0.3610
12473TIP3    H158910   0.582   6.633  15.700 -0.5661 -0.1205  0.5479
12473TIP3    H258911   0.698   6.574  15.622  0.1997 -0.2418  1.7470
12474TIP3   OH258912   0.854   1.383   1.798  1.0083 -0.6860  0.0514
12474TIP3    H158913   0.775   1.330   1.809  0.3652  0.2319  0.0079
12474TIP3    H258914   0.918   1.323   1.761  0.7526 -1.7919  1.2994
12475TIP3   OH258915   1.597   4.505  14.748 -0.5687 -0.2758 -0.1483
12475TIP3    H158916   1.640   4.590  14.741  0.1659 -0.5728  0.5735
12475TIP3    H258917   1.512   4.523  14.788 -0.3217  0.0906  0.2185
12476TIP3   OH258918   0.664   5.972   5.166 -0.4138  0.0015  0.3833
12476TIP3    H158919   0.699   5.922   5.092 -1.4969 -0.0758 -0.0937
12476TIP3    H258920   0.667   6.063   5.136 -2.6435 -0.1678 -0.5829
12477TIP3   OH258921   3.539   2.079   4.597  0.0459 -0.4199 -0.3216
12477TIP3    H158922   3.578   2.047   4.679  0.1083 -0.8218 -0.5075
12477TIP3    H258923   3.445   2.063   4.607 -0.0281  0.1496 -0.0533
12478TIP3   OH258924   2.132   1.088  17.610  0.1833 -0.3592  0.0160
12478TIP3    H158925   2.038   1.089  17.593 -0.0082 -1.7703  0.8719
12478TIP3    H258926   2.166   1.163  17.560 -1.5830  1.1147  0.8947
12479TIP3   OH258927   5.486   3.479   3.750 -0.4412 -0.1073  0.2531
12479TIP3    H158928   5.465   3.572   3.757  1.8319  0.5143 -0.1880
12479TIP3    H258929   5.463   3.456   3.660 -1.3341 -0.0695  0.4697
12480TIP3   OH258930   4.391   3.275   1.797  0.7569 -0.4016  0.0704
12480TIP3    H158931   4.396   3.192   1.844 -0.2108  0.3891  1.6613
12480TIP3    H258932   4.444   3.336   1.849 -1.8369  0.9610  1.2961
12481TIP3   OH258933   5.547   0.264  14.047 -0.3873 -0.8933  0.2429
12481TIP3    H158934   5.494   0.270  13.967 -0.5032  0.8791  0.4086
12481TIP3    H258935   5.627   0.312  14.026  0.8407 -2.8206  0.2850
12482TIP3   OH258936   3.139   2.634   5.665  0.2115  0.2450  0.3389
12482TIP3    H158937   3.148   2.548   5.704  0.2573  0.4789  0.8551
12482TIP3    H258938   3.082   2.682   5.725 -1.4777 -0.0402 -0.9397
12483TIP3   OH258939   4.016   5.978   0.346 -0.0451 -0.5442 -0.1378
12483TIP3    H158940   4.022   5.921   0.269 -0.7396 -0.1721 -0.4762
12483TIP3    H258941   4.107   5.998   0.369  0.1757  1.4127 -2.4067
12484TIP3   OH258942   2.929   6.461   6.644  0.3167 -0.1778 -0.7887
12484TIP3    H158943   3.002   6.520   6.629  1.1811 -0.6728  1.1245
12484TIP3    H258944   2.969   6.375   6.656 -0.2429 -0.1145  2.5479
12485TIP3   OH258945   3.693   5.962   2.572  0.5314 -0.7774  0.1463
12485TIP3    H158946   3.787   5.948   2.585  0.7593  0.3216 -0.2612
12485TIP3    H258947   3.654   5.876   2.591  1.3585 -0.6896  2.5782
12486TIP3   OH258948   5.425   2.751   0.475 -0.3659 -0.1279  0.8166
12486TIP3    H158949   5.477   2.810   0.420  0.4144 -0.3173  1.3483
12486TIP3    H258950   5.344   2.739   0.425  0.4389 -0.5396 -0.4682
12487TIP3   OH258951   5.043   1.991   3.743 -0.1052  0.2526 -0.1464
12487TIP3    H158952   5.065   1.989   3.650 -0.0558 -2.3690 -0.1551
12487TIP3    H258953   5.127   1.979   3.787 -0.1507  1.3301  0.2508
12488TIP3   OH258954   2.194   6.056   2.322 -0.4433  0.1834  0.6610
12488TIP3    H158955   2.125   6.097   2.373 -0.5462  1.8139 -0.6906
12488TIP3    H258956   2.275   6.093   2.356 -0.3455 -0.4430  1.1221
12489TIP3   OH258957   4.980   3.390   6.291 -0.7678 -0.0845 -0.2099
12489TIP3    H158958   4.908   3.334   6.262 -1.3363  0.7361 -0.4244
12489TIP3    H258959   4.939   3.474   6.310  0.3415  0.9274 -1.9503
12490TIP3   OH258960   4.949   4.384  11.575 -0.1122  0.0393  0.0232
12490TIP3    H158961   4.991   4.395  11.490 -0.3061 -1.3918 -0.2808
12490TIP3    H258962   4.933   4.290  11.582 -1.6452  0.3293  0.8992
12491TIP3   OH258963   2.601   2.310  15.772  0.3492  0.6764  0.2298
12491TIP3    H158964   2.612   2.244  15.703 -0.6715  1.0117 -0.2870
12491TIP3    H258965   2.583   2.259  15.851  0.4848  0.3115  0.0267
12492TIP3   OH258966   3.651   3.605  14.709  0.0327  0.3787 -0.6234
12492TIP3    H158967   3.713   3.674  14.684  0.9035 -0.1510  0.0194
12492TIP3    H258968   3.620   3.631  14.795  1.8309 -0.9726  0.4895
12493TIP3   OH258969   3.574   4.584   2.349  0.5597  0.0914 -0.0987
12493TIP3    H158970   3.633   4.529   2.401  0.3534 -0.0211  0.0182
12493TIP3    H258971   3.500   4.527   2.328  1.0039 -0.1099 -1.1952
12494TIP3   OH258972   4.425   4.485   4.587  0.4575  0.1176 -0.4319
12494TIP3    H158973   4.438   4.574   4.554 -0.1571  0.5142  0.3632
12494TIP3    H258974   4.391   4.496   4.675  1.1572 -0.9248 -0.0086
12495TIP3   OH258975   0.702   6.499   6.083 -0.1733 -0.5053 -0.8471
12495TIP3    H158976   0.716   6.541   6.168 -0.6796 -3.0402  0.5830
12495TIP3    H258977   0.790   6.479   6.052 -0.0162 -0.6382 -0.3349
12496TIP3   OH258978   0.971   3.842  14.584  0.3527 -0.5304  0.2440
12496TIP3    H158979   0.912   3.770  14.606  2.3736 -2.3019  0.1717
12496TIP3    H258980   1.053   3.821  14.629  1.1146  1.5770 -0.0429
12497TIP3   OH258981   1.568   3.557  15.040 -0.2608 -0.2977 -0.3823
12497TIP3    H158982   1.588   3.640  15.083 -0.9282 -0.1635 -0.3240
12497TIP3    H258983   1.547   3.498  15.113 -1.6002 -0.0143 -0.5279
12498TIP3   OH258984   1.357   4.431   6.590 -0.7729  0.6973  0.1119
12498TIP3    H158985   1.380   4.504   6.648 -0.7398 -0.8370  2.1420
12498TIP3    H258986   1.420   4.438   6.517  1.9437  0.4349  2.2484
12499TIP3   OH258987   4.674   0.141   6.847 -0.7110  0.2576  0.4044
12499TIP3    H158988   4.612   0.090   6.899 -0.3974  0.4771  0.9944
12499TIP3    H258989   4.733   0.180   6.911  0.7603 -0.8787 -0.2020
12500TIP3   OH258990   4.112   0.552  14.436 -0.4771 -0.3859 -0.2324
12500TIP3    H158991   4.148   0.640  14.428 -0.7151  0.0545  2.5045
12500TIP3    H258992   4.166   0.511  14.505 -2.4761 -1.1653  0.9491
12501TIP3   OH258993   0.987   2.408  11.089  0.1872  0.1355 -0.0107
12501TIP3    H158994   1.015   2.491  11.051 -0.6518  0.4961  0.1377
12501TIP3    H258995   0.959   2.356  11.014 -0.3538  0.4117 -0.0071
12502TIP3   OH258996   0.930   2.851   4.732 -0.2866  0.4198  0.1603
12502TIP3    H158997   1.001   2.861   4.795  1.5351 -0.0575 -1.7192
12502TIP3    H258998   0.954   2.775   4.679 -4.0564 -2.1519  1.6947
12503TIP3   OH258999   4.277   4.496   1.127  0.4471  0.5871  0.6542
12503TIP3    H159000   4.280   4.408   1.089  2.2127 -0.6139  3.2340
12503TIP3    H259001   4.191   4.501   1.169  0.6753 -0.3087  1.2617
12504TIP3   OH259002   0.744   0.681  16.392  0.4770 -0.1373  0.6930
12504TIP3    H159003   0.655   0.651  16.376  0.9972 -0.9309 -0.8939
12504TIP3    H259004   0.772   0.633  16.470 -0.2076 -0.4675  0.7374
12505TIP3   OH259005   1.787   3.918  16.778  0.2433  0.4142 -0.5121
12505TIP3    H159006   1.707   3.908  16.830  2.1228 -0.8836  2.3736
12505TIP3    H259007   1.775   3.857  16.705 -0.7333 -1.1087  0.8272
12506TIP3   OH259008   3.001   0.268  12.623 -0.0585 -0.2949  0.4114
12506TIP3    H159009   2.952   0.233  12.548 -0.1780 -1.0317  0.8225
12506TIP3    H259010   3.010   0.361  12.604 -0.3516 -0.4183 -0.3755
12507TIP3   OH259011   3.425   3.742   3.337 -0.0534 -0.2308 -0.2578
12507TIP3    H159012   3.416   3.747   3.432 -1.2523 -0.3928 -0.3557
12507TIP3    H259013   3.509   3.785   3.319 -1.2167  2.5600  0.6005
12508TIP3   OH259014   3.170   3.496  13.873 -0.6948 -0.2607 -0.2487
12508TIP3    H159015   3.100   3.440  13.905 -1.7921  0.4191 -1.3614
12508TIP3    H259016   3.175   3.475  13.779  1.3512 -1.0818 -0.0093
12509TIP3   OH259017   5.913   4.034  15.010  0.5457 -0.2001  0.1545
12509TIP3    H159018   5.895   3.978  14.934 -0.3701  1.2112 -0.7196
12509TIP3    H259019   5.871   3.989  15.083 -2.9632  0.7178 -1.0455
12510TIP3   OH259020   5.366   0.227  17.468 -0.3251  0.3374  0.1823
12510TIP3    H159021   5.365   0.219  17.563 -0.9050 -0.9418  0.0880
12510TIP3    H259022   5.432   0.294  17.450 -0.1336  0.5160  1.4717
12511TIP3   OH259023   3.350   6.415   5.874 -0.4918  0.3624 -0.2966
12511TIP3    H159024   3.262   6.378   5.862 -1.1163  1.9855 -1.0045
12511TIP3    H259025   3.338   6.485   5.938  0.8300 -1.1110  1.6582
12512TIP3   OH259026   4.461   0.611  15.862 -0.0125 -0.2024 -0.4021
12512TIP3    H159027   4.548   0.572  15.866  0.4438  0.6757 -1.3708
12512TIP3    H259028   4.401   0.536  15.864  0.7770 -0.8423 -0.2383
12513TIP3   OH259029   3.802   2.585   0.854  0.2849  0.2091  0.2197
12513TIP3    H159030   3.785   2.579   0.760 -3.1795  1.1591  0.6522
12513TIP3    H259031   3.886   2.630   0.861  0.3305  0.6498 -2.4012
12514TIP3   OH259032   5.828   3.886   2.957  0.2832 -0.3962  0.1270
12514TIP3    H159033   5.753   3.920   3.004 -0.4483 -0.0428 -1.2361
12514TIP3    H259034   5.792   3.819   2.899  0.8474  0.4540 -1.2520
12515TIP3   OH259035   4.310   2.271   3.995 -0.1949 -0.0194 -0.3365
12515TIP3    H159036   4.236   2.303   3.944  0.1721  1.8556  0.2189
12515TIP3    H259037   4.386   2.317   3.958  0.1299  1.0752  1.5737
12516TIP3   OH259038   4.662   1.686   1.195 -0.0745  0.0694  0.0640
12516TIP3    H159039   4.663   1.745   1.121 -0.1105 -0.0963 -0.0692
12516TIP3    H259040   4.754   1.668   1.213 -0.0854 -0.6446 -0.5475
12517TIP3   OH259041   0.235   1.055   2.701  0.1739  0.5182  0.1592
12517TIP3    H159042   0.260   1.147   2.713 -0.1281  0.5941  0.2217
12517TIP3    H259043   0.164   1.058   2.636 -0.2554  0.3871  0.6121
12518TIP3   OH259044   4.882   1.394  13.363  0.1219 -0.4659  0.1535
12518TIP3    H159045   4.868   1.454  13.435 -0.0750  0.7926 -0.8967
12518TIP3    H259046   4.850   1.310  13.394 -2.3643  0.5847  0.6371
12519TIP3   OH259047   4.115   0.315  17.277  0.4417 -0.0136 -0.1496
12519TIP3    H159048   4.073   0.380  17.219 -1.4445 -0.6883  0.3800
12519TIP3    H259049   4.159   0.368  17.343  2.5570  0.7787 -2.0303
12520TIP3   OH259050   4.573   6.052  11.296 -0.1290  0.0249 -1.0725
12520TIP3    H159051   4.549   5.960  11.310  1.2998 -0.2003  0.2493
12520TIP3    H259052   4.665   6.049  11.267  0.5231  1.0636  0.7058
12521TIP3   OH259053   2.001   1.063  13.778 -0.5417 -0.2906  0.6267
12521TIP3    H159054   1.997   1.158  13.782 -0.1767 -0.2879  0.9993
12521TIP3    H259055   1.969   1.041  13.690  1.2107  0.2731 -0.1817
12522TIP3   OH259056   0.140   2.311   3.634 -0.0303 -0.0142 -0.6176
12522TIP3    H159057   0.051   2.313   3.670  0.6085  1.2007  0.9882
12522TIP3    H259058   0.172   2.223   3.655 -1.0419 -0.7226 -1.8303
12523TIP3   OH259059   3.672   3.970   0.292 -0.1019  0.5260  0.1328
12523TIP3    H159060   3.654   3.972   0.386  0.1589  0.9645  0.1785
12523TIP3    H259061   3.650   3.881   0.265  1.6660 -0.2252  0.9782
12524TIP3   OH259062   1.966   1.932  13.523  0.1578  0.4420 -0.2363
12524TIP3    H159063   2.032   1.939  13.453  2.1512 -0.4905  1.4406
12524TIP3    H259064   1.996   1.994  13.590 -0.4625 -0.2631  0.7105
12525TIP3   OH259065   2.271   1.847  11.543  0.0183 -0.1286  0.2791
12525TIP3    H159066   2.274   1.812  11.632  0.8078  1.4257  0.9133
12525TIP3    H259067   2.183   1.884  11.535  0.4177  1.0359  0.9865
12526TIP3   OH259068   4.258   6.325  11.294  0.1764  0.4866 -0.2371
12526TIP3    H159069   4.270   6.350  11.202  0.3743 -0.8906 -0.6223
12526TIP3    H259070   4.164   6.309  11.302 -0.2835  3.2387  0.5591
12527TIP3   OH259071   2.505   2.876   5.407 -0.4372 -0.0791  0.0234
12527TIP3    H159072   2.495   2.836   5.494 -1.8702 -2.2261 -1.0568
12527TIP3    H259073   2.438   2.945   5.405  0.8324  1.2695  1.2295
12528TIP3   OH259074   5.360   0.550   4.708  0.0263  0.3126 -0.2005
12528TIP3    H159075   5.281   0.582   4.752  1.1752  1.7520  0.9025
12528TIP3    H259076   5.359   0.456   4.723 -0.9417  0.4472  0.7256
12529TIP3   OH259077   2.565   0.616  11.750 -0.5636  0.4034 -0.8023
12529TIP3    H159078   2.605   0.532  11.774  0.9460  0.4429 -2.9505
12529TIP3    H259079   2.488   0.622  11.807  0.6861 -1.2024  1.2218
12530TIP3   OH259080   3.436   0.867   5.664  0.3865  0.6934 -0.3791
12530TIP3    H159081   3.451   0.776   5.688 -1.7284  0.3956  0.0001
12530TIP3    H259082   3.450   0.916   5.745 -1.5721  0.2989  0.2428
12531TIP3   OH259083   3.050   5.573  16.771  0.0079 -0.6467  0.2430
12531TIP3    H159084   3.048   5.597  16.864  0.8231 -0.5381  0.2391
12531TIP3    H259085   3.141   5.587  16.744  0.6165 -3.6748  0.2542
12532TIP3   OH259086   1.065   1.542  12.564  0.1728  0.1575  0.2886
12532TIP3    H159087   0.976   1.536  12.529  0.7906  0.6130 -1.4784
12532TIP3    H259088   1.110   1.467  12.526  0.2571 -0.8132  2.2017
12533TIP3   OH259089   1.949   1.464   4.746 -0.5499 -0.4027  0.3678
12533TIP3    H159090   2.044   1.464   4.742 -0.5010  0.7064  1.2096
12533TIP3    H259091   1.925   1.549   4.783 -1.8828 -0.5561 -0.0556
12534TIP3   OH259092   2.568   1.311  16.303 -0.2180 -0.0216  0.2805
12534TIP3    H159093   2.574   1.302  16.398  1.8678  1.4308  0.3471
12534TIP3    H259094   2.641   1.260  16.269  0.3551  1.2004 -0.3882
12535TIP3   OH259095   3.687   6.493  12.828 -0.2251  0.4083  0.6125
12535TIP3    H159096   3.700   6.425  12.761  1.1825 -0.3728  1.6024
12535TIP3    H259097   3.674   6.443  12.909 -0.4851  1.3359  1.1472
12536TIP3   OH259098   1.224   5.907  15.579 -0.2725  0.0850 -0.1473
12536TIP3    H159099   1.221   6.000  15.557 -0.3777 -0.2794 -1.8112
12536TIP3    H259100   1.261   5.865  15.500 -0.7682 -1.3402  0.3514
12537TIP3   OH259101   2.694   5.743   4.174 -0.3488  0.4623 -0.5265
12537TIP3    H159102   2.711   5.711   4.263 -0.4071  1.1244 -0.2718
12537TIP3    H259103   2.598   5.739   4.165 -0.3346  0.2784 -0.6083
12538TIP3   OH259104   2.019   0.716   1.071  0.4532 -0.1095  0.6981
12538TIP3    H159105   2.073   0.791   1.096 -1.5953  1.6477  0.1639
12538TIP3    H259106   1.932   0.737   1.105 -1.0593 -0.4518 -2.5811
12539TIP3   OH259107   4.477   0.047   1.457  0.3906 -0.5669 -0.4754
12539TIP3    H159108   4.566   0.080   1.468  0.0273  1.7101 -3.1282
12539TIP3    H259109   4.422   0.110   1.505  0.0547 -0.4490 -1.0038
12540TIP3   OH259110   0.343   6.181   5.801  0.8295 -0.5943  0.0236
12540TIP3    H159111   0.378   6.262   5.837 -1.1320 -0.0514  0.8226
12540TIP3    H259112   0.249   6.185   5.818  0.3493 -2.0326 -1.8827
12541TIP3   OH259113   1.045   3.819  16.975  0.1997 -0.2987  0.0705
12541TIP3    H159114   1.037   3.855  16.887 -1.7893  0.6652  0.5906
12541TIP3    H259115   1.122   3.862  17.012 -0.4619  1.3094 -0.3223
12542TIP3   OH259116   0.878   6.574  11.493  0.7030  0.5016  0.1097
12542TIP3    H159117   0.793   6.536  11.516  0.5223  0.1003 -1.1366
12542TIP3    H259118   0.895   6.638  11.563 -0.3151  0.1336  0.7214
12543TIP3   OH259119   0.935   5.614  13.547  0.4149  0.7667 -0.0707
12543TIP3    H159120   0.916   5.578  13.460 -1.1294 -0.9337  0.9107
12543TIP3    H259121   1.005   5.558  13.581  2.0130  2.2814 -0.6769
12544TIP3   OH259122   4.525   0.571   5.537 -0.0811 -0.3400  0.4679
12544TIP3    H159123   4.442   0.523   5.543 -1.3514  1.6146 -0.2273
12544TIP3    H259124   4.523   0.611   5.450  0.1338  2.1422  1.5058
12545TIP3   OH259125   5.114   0.359  10.784 -0.2445  0.1565  0.0437
12545TIP3    H159126   5.152   0.317  10.861  0.0324  1.1618  0.4696
12545TIP3    H259127   5.034   0.309  10.766  0.0555 -0.5200  0.5534
12546TIP3   OH259128   3.047   0.427  12.002 -0.2691  0.6444 -0.4519
12546TIP3    H159129   3.081   0.429  12.092 -0.5608  0.0703 -0.3263
12546TIP3    H259130   3.123   0.447  11.947  0.0621  0.2993 -0.1208
12547TIP3   OH259131   2.147   3.409  10.826 -0.1106 -0.2557  0.0092
12547TIP3    H159132   2.101   3.491  10.845 -0.4701 -0.3860 -0.2838
12547TIP3    H259133   2.117   3.385  10.738  1.8786  0.6050 -0.9852
12548TIP3   OH259134   4.867   0.992  14.865  0.0327 -0.1309  0.1137
12548TIP3    H159135   4.850   0.907  14.824 -1.4525 -0.6966  1.7591
12548TIP3    H259136   4.805   1.052  14.823  0.7990  0.0863 -0.7532
12549TIP3   OH259137   5.190   5.489  14.918 -0.1060 -0.1532  0.1450
12549TIP3    H159138   5.128   5.417  14.926 -1.4232  1.0126  0.8779
12549TIP3    H259139   5.204   5.497  14.823 -0.8918 -0.6043 -0.0226
12550TIP3   OH259140   6.337   3.455  17.676 -0.2191  0.2874  0.1447
12550TIP3    H159141   6.414   3.436  17.731 -0.2249  0.9106  0.3782
12550TIP3    H259142   6.264   3.455  17.738 -0.3792 -0.0704 -0.0397
12551TIP3   OH259143   3.414   3.570  11.813 -0.0774  0.2515 -0.2115
12551TIP3    H159144   3.350   3.498  11.815 -1.1730  1.1795 -0.4963
12551TIP3    H259145   3.458   3.560  11.729  0.2567 -0.4782  0.0431
12552TIP3   OH259146   3.394   4.759   3.397 -0.8602 -0.0201  0.6137
12552TIP3    H159147   3.303   4.737   3.375 -0.4557 -0.4830 -0.6588
12552TIP3    H259148   3.437   4.772   3.313  0.6989 -1.5556  1.1105
12553TIP3   OH259149   6.089   3.675   5.970 -0.2633 -0.1868  0.4541
12553TIP3    H159150   6.013   3.618   5.982  0.3843 -1.3320 -0.5883
12553TIP3    H259151   6.070   3.724   5.891  1.0698 -2.3135 -1.3244
12554TIP3   OH259152   6.667   3.863   4.615 -0.3231  0.2899 -0.8899
12554TIP3    H159153   6.602   3.922   4.576 -1.7208 -0.7705 -0.2454
12554TIP3    H259154   6.620   3.781   4.628  1.6389 -1.0991 -2.0254
12555TIP3   OH259155   2.695   4.654  14.049  0.0122 -0.0663 -0.4569
12555TIP3    H159156   2.760   4.695  14.106  1.1457 -0.3494 -1.4863
12555TIP3    H259157   2.627   4.720  14.039 -0.0624  0.1025  0.9440
12556TIP3   OH259158   0.347   1.827  15.824 -0.0182  0.1273  0.2528
12556TIP3    H159159   0.264   1.851  15.865  0.4704  0.2973  1.1547
12556TIP3    H259160   0.324   1.812  15.732 -1.1308 -0.2739  0.5764
12557TIP3   OH259161   0.903   6.367   3.181  0.1027  0.0841 -0.0723
12557TIP3    H159162   0.840   6.316   3.130 -0.3903 -1.4948  1.9656
12557TIP3    H259163   0.849   6.420   3.240  0.6609  1.5502 -0.8263
12558TIP3   OH259164   1.160   2.136  15.344 -0.2696 -0.1838  0.2053
12558TIP3    H159165   1.236   2.127  15.402  0.2405  0.1593 -0.4064
12558TIP3    H259166   1.085   2.110  15.399  0.2275 -0.0523  0.9586
12559TIP3   OH259167   0.891   5.193   4.006 -0.3110  0.3645 -0.8049
12559TIP3    H159168   0.942   5.191   4.087 -2.5529  1.6579  0.7352
12559TIP3    H259169   0.816   5.137   4.023 -1.7972  2.1251 -1.2276
12560TIP3   OH259170   6.173   6.261   4.671  0.1752 -0.1240 -0.0449
12560TIP3    H159171   6.258   6.285   4.708  0.5138  0.3138 -1.0721
12560TIP3    H259172   6.187   6.175   4.632  0.1119 -0.1028 -0.1152
12561TIP3   OH259173   4.186   0.130  16.055  0.0925  0.5075  0.1017
12561TIP3    H159174   4.209   0.202  15.996  0.4242  0.2360 -0.1046
12561TIP3    H259175   4.112   0.086  16.012 -1.6317  2.0652  1.3140
12562TIP3   OH259176   4.674   4.487   3.742 -0.0242 -0.0462  0.0573
12562TIP3    H159177   4.611   4.509   3.810  0.7025  0.7592  0.4791
12562TIP3    H259178   4.694   4.395   3.758 -0.3917 -0.0560  0.4920
12563TIP3   OH259179   2.050   5.014   4.333 -0.3045  0.1974 -0.1549
12563TIP3    H159180   2.085   4.969   4.256 -0.3292 -0.5716  0.2658
12563TIP3    H259181   2.040   5.105   4.306  0.6391  0.1344 -0.7381
12564TIP3   OH259182   5.078   3.489  15.099 -0.2333  0.1336  0.0117
12564TIP3    H159183   5.005   3.495  15.161 -0.4547 -1.1804 -0.0818
12564TIP3    H259184   5.040   3.509  15.014 -0.4556 -0.3398 -0.0058
12565TIP3   OH259185   2.335   1.669   6.172 -0.0146  0.5648 -0.0369
12565TIP3    H159186   2.428   1.686   6.184  0.1227  0.9307 -1.4356
12565TIP3    H259187   2.297   1.677   6.259  1.2470  0.4828  0.5362
12566TIP3   OH259188   2.438   0.524   2.476  0.2103 -0.7567  0.1597
12566TIP3    H159189   2.527   0.547   2.502  1.0196 -0.8073 -2.2875
12566TIP3    H259190   2.438   0.429   2.473 -0.2119 -0.7931  0.9448
12567TIP3   OH259191   3.172   1.907   3.858  0.1266  0.1606  0.2734
12567TIP3    H159192   3.141   1.838   3.916  1.2414 -0.9473 -0.3954
12567TIP3    H259193   3.125   1.894   3.776  0.3679  0.1768  0.1315
12568TIP3   OH259194   3.297   6.570  11.847 -0.8097 -0.3423 -0.0362
12568TIP3    H159195   3.209   6.599  11.825 -1.1177 -1.2784 -0.0974
12568TIP3    H259196   3.352   6.605  11.777 -0.7723  1.9937  1.0610
12569TIP3   OH259197   1.171   5.722  16.401  0.1947 -1.0601 -0.1405
12569TIP3    H159198   1.201   5.636  16.372  0.3169 -0.5915 -1.4811
12569TIP3    H259199   1.251   5.771  16.421  0.2702 -0.4807 -1.7398
12570TIP3   OH259200   1.532   4.661   1.504  0.0630 -0.2010 -0.5498
12570TIP3    H159201   1.509   4.570   1.524 -0.6884 -0.1384 -1.0929
12570TIP3    H259202   1.480   4.713   1.564 -1.9667 -0.0251 -2.3220
12571TIP3   OH259203   5.624   0.342  16.630 -0.0886 -0.1250 -0.3964
12571TIP3    H159204   5.622   0.380  16.542 -1.0110  0.8426  0.0086
12571TIP3    H259205   5.670   0.407  16.683 -1.0729  0.1371  0.1696
12572TIP3   OH259206   6.656   0.288   4.858 -0.0070  0.4712 -0.3382
12572TIP3    H159207   6.705   0.258   4.781  0.5577 -1.2378  0.6266
12572TIP3    H259208   6.678   0.381   4.866  1.3993  0.2389 -1.1725
12573TIP3   OH259209   6.076   2.578   2.122 -0.0014  0.3154 -0.2502
12573TIP3    H159210   6.025   2.570   2.041  0.2892 -0.2227 -0.3905
12573TIP3    H259211   6.167   2.577   2.093  0.0956  1.3530 -0.0061
12574TIP3   OH259212   0.101   3.918  11.468  0.3523 -0.5623 -0.0456
12574TIP3    H159213   0.178   3.971  11.447 -0.8953  2.3073  1.9984
12574TIP3    H259214   0.109   3.901  11.562 -0.9551 -1.1892 -0.0277
12575TIP3   OH259215   6.225   3.266   3.233 -0.1707 -0.0184 -0.5252
12575TIP3    H159216   6.146   3.214   3.248  0.1084 -0.9125 -1.9474
12575TIP3    H259217   6.242   3.257   3.139  1.7104  0.0014 -0.2321
12576TIP3   OH259218   1.765   5.641   1.816  0.4570  0.1460 -0.2394
12576TIP3    H159219   1.736   5.714   1.761  0.0644  0.2707  0.1232
12576TIP3    H259220   1.846   5.672   1.857  1.0466 -0.1552 -1.1602
12577TIP3   OH259221   4.782   3.547  12.128  0.3914  0.0108 -0.5531
12577TIP3    H159222   4.864   3.504  12.154 -0.1340  0.4757  2.2344
12577TIP3    H259223   4.741   3.571  12.211 -0.6361  3.4377 -1.8609
12578TIP3   OH259224   5.965   3.416   5.186  0.4161  0.3762  0.0700
12578TIP3    H159225   5.896   3.367   5.141  0.6947  0.6481 -0.6603
12578TIP3    H259226   5.940   3.411   5.279 -1.2969  1.5311 -0.2742
12579TIP3   OH259227   6.265   0.264   5.964  0.0517 -0.0050  0.0166
12579TIP3    H159228   6.230   0.208   6.034  0.7660  0.2126  0.5569
12579TIP3    H259229   6.197   0.262   5.896 -1.2240  0.7684  1.2184
12580TIP3   OH259230   5.833   3.688  13.761  0.1089 -0.0516  0.6067
12580TIP3    H159231   5.819   3.781  13.742  0.9755 -0.0098  0.1268
12580TIP3    H259232   5.751   3.659  13.801 -0.9187  0.4342 -1.0768
12581TIP3   OH259233   0.146   5.171  17.126 -0.1717 -0.0677 -0.3558
12581TIP3    H159234   0.177   5.082  17.144 -0.3566 -0.3036 -1.1320
12581TIP3    H259235   0.052   5.161  17.110 -0.2199  0.2873 -0.2961
12582TIP3   OH259236   4.029   3.136  15.168  0.2269 -0.0122  0.3256
12582TIP3    H159237   3.986   3.065  15.122  0.3570  1.0336 -1.5136
12582TIP3    H259238   4.099   3.164  15.109  0.0365  1.7875  0.8933
12583TIP3   OH259239   4.905   5.759   1.120 -0.0700  0.4418 -0.7981
12583TIP3    H159240   4.937   5.793   1.036 -0.0746  1.8305 -0.2655
12583TIP3    H259241   4.980   5.714   1.158 -0.8752 -2.9252 -2.8533
12584TIP3   OH259242   1.999   6.724  13.346  0.5986  0.1709  0.0989
12584TIP3    H159243   2.064   6.789  13.373 -1.3641  1.3397  2.4428
12584TIP3    H259244   1.935   6.723  13.418 -0.7233 -2.6486 -0.9690
12585TIP3   OH259245   4.473   6.611   6.710  0.1162  0.1404  0.0715
12585TIP3    H159246   4.395   6.660   6.734  0.9496  0.4362  2.4040
12585TIP3    H259247   4.538   6.678   6.690 -0.0161 -0.1072 -1.3381
12586TIP3   OH259248   3.468   4.362  17.093 -0.4147 -0.2005 -0.3048
12586TIP3    H159249   3.501   4.358  17.004  0.5476 -1.3217  0.0665
12586TIP3    H259250   3.419   4.280  17.104 -1.1239  0.2574 -0.0349
12587TIP3   OH259251   2.327   0.054  13.375 -0.0794 -0.7030 -0.5782
12587TIP3    H159252   2.419   0.063  13.399  0.1030 -1.6370 -0.9003
12587TIP3    H259253   2.285   0.131  13.414  0.6282 -0.8864  0.5939
12588TIP3   OH259254   3.025   2.180   5.424  0.4221  0.0240  0.1354
12588TIP3    H159255   3.054   2.115   5.360  1.2529  0.3701  0.1439
12588TIP3    H259256   2.932   2.194   5.405  0.1916 -1.2812  0.2432
12589TIP3   OH259257   2.009   1.579   2.899 -0.2820  0.0633  0.6234
12589TIP3    H159258   2.032   1.663   2.860 -0.5171 -0.4626 -0.7267
12589TIP3    H259259   1.982   1.599   2.988  3.8546  0.9216  1.8825
12590TIP3   OH259260   5.273   6.725   4.904 -0.0864 -0.0965 -0.7479
12590TIP3    H159261   5.228   6.685   4.978  0.4924  0.3533 -0.1404
12590TIP3    H259262   5.207   6.728   4.834 -0.2866 -1.6309 -0.6602
12591TIP3   OH259263   2.703   5.201   4.923  0.2887 -0.3959 -0.7617
12591TIP3    H159264   2.632   5.137   4.933 -1.5530  0.9412 -3.7871
12591TIP3    H259265   2.748   5.175   4.843  1.1762  0.6211 -0.6151
12592TIP3   OH259266   0.302   4.436   4.166 -0.4604  0.2462  0.1721
12592TIP3    H159267   0.346   4.376   4.226  0.8575 -0.0835 -1.0899
12592TIP3    H259268   0.209   4.420   4.181 -0.1911  0.2534  2.1835
12593TIP3   OH259269   5.510   0.852   2.801  0.0072  0.4339 -0.0051
12593TIP3    H159270   5.503   0.758   2.785  0.0341  0.2566  0.9463
12593TIP3    H259271   5.498   0.892   2.715 -0.2085 -0.4273 -0.3894
12594TIP3   OH259272   6.544   4.713   1.361 -0.4149 -0.0294  0.2160
12594TIP3    H159273   6.562   4.787   1.302  1.0450  0.0125  0.6633
12594TIP3    H259274   6.563   4.747   1.448  1.5428 -1.2386  0.3315
12595TIP3   OH259275   4.255   4.103   5.388  0.1633  0.4195  0.0215
12595TIP3    H159276   4.340   4.074   5.357 -0.6614 -1.4305 -0.6715
12595TIP3    H259277   4.226   4.034   5.447 -0.0968  1.9050  1.7054
12596TIP3   OH259278   6.370   3.884  11.217  0.0584 -0.4108  0.1080
12596TIP3    H159279   6.465   3.896  11.228 -0.0867  0.7427  0.1667
12596TIP3    H259280   6.336   3.972  11.201 -1.4582 -0.2296  3.4353
12597TIP3   OH259281   2.527   4.422  15.051 -0.1558 -0.5373 -0.1244
12597TIP3    H159282   2.530   4.341  15.100 -0.8939 -0.6914 -0.3195
12597TIP3    H259283   2.462   4.406  14.982  0.2674 -0.0540 -0.6458
12598TIP3   OH259284   1.140   5.152   3.821  0.5686 -0.1156  0.0097
12598TIP3    H159285   1.078   5.225   3.823 -0.7865 -1.2306  0.4306
12598TIP3    H259286   1.086   5.074   3.834  2.2170 -1.0541  1.7778
12599TIP3   OH259287   3.840   3.286  12.150 -0.1535  0.5319  0.7496
12599TIP3    H159288   3.841   3.199  12.111  0.5297  0.8511  0.0285
12599TIP3    H259289   3.747   3.310  12.153 -0.2264  0.5758 -0.9131
12600TIP3   OH259290   2.276   6.302  11.305  0.4075 -0.1129 -0.0676
12600TIP3    H159291   2.212   6.322  11.237 -1.3674  0.8389  1.7703
12600TIP3    H259292   2.338   6.242  11.263 -2.0215 -1.6101 -1.7880
12601TIP3   OH259293   3.158   6.438   5.021 -0.1012  0.0874 -0.0384
12601TIP3    H159294   3.177   6.391   5.102  0.7670  1.3004  0.4800
12601TIP3    H259295   3.205   6.390   4.953 -1.2099 -1.2108  0.0739
12602TIP3   OH259296   2.188   5.942  12.028 -0.2156  0.1861  0.5117
12602TIP3    H159297   2.100   5.905  12.026  0.9981 -2.9901  0.8988
12602TIP3    H259298   2.225   5.913  12.111  1.0322  1.9985  0.6533
12603TIP3   OH259299   2.036   6.036  17.620 -0.3431  0.5414 -0.5477
12603TIP3    H159300   2.013   6.122  17.655 -3.0395 -0.6772  0.9451
12603TIP3    H259301   1.976   6.023  17.546 -0.6563 -0.4616 -0.1263
12604TIP3   OH259302   1.889   6.344   6.201  0.2322 -0.2255  0.1329
12604TIP3    H159303   1.976   6.324   6.165  1.1568  1.4626  1.2735
12604TIP3    H259304   1.828   6.321   6.131  1.7020 -0.1944 -1.2173
12605TIP3   OH259305   5.743   1.060   3.181 -0.1593 -0.2886  0.2989
12605TIP3    H159306   5.684   1.099   3.116  1.7595  0.9517 -0.7991
12605TIP3    H259307   5.726   0.966   3.175 -1.5440 -0.0149 -0.4589
12606TIP3   OH259308   5.691   1.117  13.942  0.4457  0.0235 -0.4711
12606TIP3    H159309   5.634   1.055  13.896  1.8946 -0.8450 -1.1893
12606TIP3    H259310   5.634   1.160  14.006 -0.6948 -1.7662 -0.2234
12607TIP3   OH259311   4.896   0.082  14.886  0.1620  0.3032 -0.1956
12607TIP3    H159312   4.863   0.063  14.798 -0.0692  3.3172 -0.8643
12607TIP3    H259313   4.818   0.093  14.940  0.2477  0.5253 -0.1156
12608TIP3   OH259314   6.585   4.717  12.821  0.0373  0.2014  0.7872
12608TIP3    H159315   6.543   4.745  12.740 -0.3139  2.5056  1.6948
12608TIP3    H259316   6.522   4.657  12.861 -0.1915 -0.2274 -0.1717
12609TIP3   OH259317   5.141   2.581  11.327  0.6459 -0.1782 -0.0113
12609TIP3    H159318   5.096   2.592  11.244 -0.8956  1.6894  0.9897
12609TIP3    H259319   5.228   2.549  11.304  0.8579  1.8676 -2.4751
12610TIP3   OH259320   2.189   4.180   0.956 -0.0759  0.0844  0.1440
12610TIP3    H159321   2.212   4.268   0.926  0.9928 -0.6105 -1.1878
12610TIP3    H259322   2.227   4.122   0.891 -0.8323 -1.3789  0.9568
12611TIP3   OH259323   4.504   1.983   3.176 -0.3507 -0.7194 -0.6170
12611TIP3    H159324   4.525   1.904   3.225  1.9422 -1.3392 -2.3823
12611TIP3    H259325   4.520   1.959   3.084  1.0112  1.9101 -1.1767
12612TIP3   OH259326   3.330   6.084   2.531  0.0119  0.4098 -0.5204
12612TIP3    H159327   3.370   6.073   2.445 -0.5069 -0.5324 -0.6627
12612TIP3    H259328   3.389   6.142   2.578  0.9094  0.0081 -1.1246
12613TIP3   OH259329   5.718   3.108  17.249  0.8612  0.5398 -0.3894
12613TIP3    H159330   5.648   3.059  17.205  0.4651 -0.2275  1.0444
12613TIP3    H259331   5.772   3.041  17.291  0.8778  1.2709  0.7953
12614TIP3   OH259332   0.715   0.161  13.888  0.2622  0.0023 -0.0533
12614TIP3    H159333   0.762   0.244  13.880 -1.8024  1.2383 -0.1337
12614TIP3    H259334   0.781   0.094  13.870  2.3864  1.5198  1.6542
12615TIP3   OH259335   3.696   3.003   1.719  0.1913 -0.1884  0.1269
12615TIP3    H159336   3.699   3.049   1.803  0.2418  0.3559 -0.1635
12615TIP3    H259337   3.788   2.990   1.696  0.1932  0.4816 -0.2728
12616TIP3   OH259338   4.159   3.811   3.356  0.8962 -0.1740 -0.3710
12616TIP3    H159339   4.205   3.881   3.402 -0.2651  0.6395 -0.4025
12616TIP3    H259340   4.141   3.848   3.269  2.3132 -1.3816 -1.2249
12617TIP3   OH259341   4.093   4.449   0.489 -0.4588  0.4186 -0.2197
12617TIP3    H159342   4.076   4.389   0.416 -0.7205  1.7122 -1.2906
12617TIP3    H259343   4.178   4.488   0.468 -1.0465  1.6275 -0.4711
12618TIP3   OH259344   6.236   1.265   2.068 -0.0539 -0.1027  0.6519
12618TIP3    H159345   6.257   1.255   1.975  1.5539 -0.0958  0.9962
12618TIP3    H259346   6.205   1.355   2.075  1.3436  0.4172  0.3783
12619TIP3   OH259347   4.003   2.318  16.016  0.1665  0.2422  0.4736
12619TIP3    H159348   4.009   2.413  16.003 -1.5691  0.1508 -1.5182
12619TIP3    H259349   4.020   2.280  15.930  1.9037 -1.3707  1.4549
12620TIP3   OH259350   4.867   3.069   4.867  1.0245 -0.0343 -0.1794
12620TIP3    H159351   4.858   3.068   4.772 -0.6141 -1.5142 -0.0539
12620TIP3    H259352   4.790   3.116   4.898 -0.4643 -2.7168  0.4977
12621TIP3   OH259353   4.999   5.493  11.872 -0.2673  0.1536 -0.5376
12621TIP3    H159354   5.005   5.527  11.961  0.4235  0.6488 -0.7661
12621TIP3    H259355   4.906   5.473  11.860 -0.9563  3.0907 -0.8027
12622TIP3   OH259356   1.908   6.682   0.227 -0.4868  0.1224 -0.1434
12622TIP3    H159357   1.952   6.598   0.216  0.0878  0.4510 -0.3958
12622TIP3    H259358   1.885   6.685   0.320  0.9067  0.3683  0.2032
12623TIP3   OH259359   1.626   5.444  12.311 -0.0816 -0.5387  0.1305
12623TIP3    H159360   1.668   5.364  12.280  0.5714 -0.2259  0.1729
12623TIP3    H259361   1.613   5.431  12.405  1.3229 -0.0613  0.4192
12624TIP3   OH259362   2.601   6.506   3.628 -0.1991 -0.1886 -0.2926
12624TIP3    H159363   2.682   6.499   3.679 -0.5347  1.8140  0.5933
12624TIP3    H259364   2.623   6.567   3.558  0.0041 -2.2722 -2.1596
12625TIP3   OH259365   6.272   1.946   5.227 -0.0626 -0.1297 -0.2116
12625TIP3    H159366   6.280   1.863   5.273 -0.9982  0.7847  1.7189
12625TIP3    H259367   6.331   1.938   5.152  1.5985 -1.6887  1.1822
12626TIP3   OH259368   1.164   1.240  17.315  0.0767  0.7650 -0.3576
12626TIP3    H159369   1.130   1.265  17.400 -2.1568 -0.9459 -0.6700
12626TIP3    H259370   1.127   1.305  17.254 -0.8916  0.1748 -0.4092
12627TIP3   OH259371   5.746   2.892  13.052  0.2224  0.4317  0.1393
12627TIP3    H159372   5.675   2.849  13.005 -0.1999  1.8726 -0.5922
12627TIP3    H259373   5.709   2.975  13.081  0.8372  0.0962  2.0268
12628TIP3   OH259374   1.386   4.689   5.229 -0.7957  0.2181  0.1085
12628TIP3    H159375   1.390   4.776   5.271 -1.3388  1.0644 -1.5145
12628TIP3    H259376   1.397   4.627   5.302  2.3282  1.6275  1.0054
12629TIP3   OH259377   5.309   4.815   2.966  0.0122  0.0707 -0.5083
12629TIP3    H159378   5.268   4.801   3.051 -0.8512 -0.4845 -1.0020
12629TIP3    H259379   5.348   4.730   2.944 -0.8451 -0.1602 -1.2144
12630TIP3   OH259380   2.353   0.437   6.532  0.4502  0.4155 -0.1399
12630TIP3    H159381   2.415   0.367   6.510  1.9754  1.5717  0.3300
12630TIP3    H259382   2.408   0.508   6.566 -1.3408  0.4810  2.9343
12631TIP3   OH259383   5.386   2.124   3.630  0.1572 -0.3387  0.0377
12631TIP3    H159384   5.450   2.096   3.565 -0.0351 -0.3515 -0.1473
12631TIP3    H259385   5.301   2.101   3.592 -0.1005  1.7714 -0.7462
12632TIP3   OH259386   4.693   4.002  15.119  0.1053  0.3759  0.2931
12632TIP3    H159387   4.599   3.996  15.136 -0.1172  0.8474 -0.6868
12632TIP3    H259388   4.702   3.978  15.027  0.8521  1.1074  0.1634
12633TIP3   OH259389   0.038   0.353   2.916  0.0610 -0.1206  0.4811
12633TIP3    H159390  -0.031   0.289   2.928 -0.6280  0.6268  0.6063
12633TIP3    H259391   0.016   0.423   2.978  1.2651 -0.1389  0.9603
12634TIP3   OH259392   4.880   2.565   6.435 -0.1272 -0.2732 -0.2552
12634TIP3    H159393   4.795   2.522   6.430  0.4346 -1.2925 -1.3076
12634TIP3    H259394   4.927   2.519   6.504 -0.3784  0.2120  0.2444
12635TIP3   OH259395   4.068   2.171  10.937 -0.1757  0.1626  0.1755
12635TIP3    H159396   4.044   2.263  10.952  0.3575  0.4756 -0.7955
12635TIP3    H259397   4.127   2.174  10.862 -2.2102 -1.2218 -1.6003
12636TIP3   OH259398   6.098   2.286  12.689 -0.5033  0.1631  0.0127
12636TIP3    H159399   6.158   2.358  12.669 -0.9255  0.8881  1.2616
12636TIP3    H259400   6.150   2.223  12.738 -0.6081  0.5058  0.5650
12637TIP3   OH259401   4.075   2.903  11.803  0.1558  0.3264 -0.3261
12637TIP3    H159402   4.165   2.935  11.798  1.4471 -2.4344  1.8284
12637TIP3    H259403   4.071   2.832  11.738 -0.1550 -0.1161  0.1644
12638TIP3   OH259404   3.911   1.882  16.953 -0.4414 -0.4776  0.5617
12638TIP3    H159405   3.897   1.869  16.859  0.6201 -2.0787  0.5832
12638TIP3    H259406   3.952   1.800  16.982 -0.9978 -0.1146  2.4785
12639TIP3   OH259407   0.156   4.283   1.969 -0.5865 -0.0376  0.2725
12639TIP3    H159408   0.251   4.296   1.963 -0.6974  0.3435 -0.9685
12639TIP3    H259409   0.129   4.334   2.045  0.2721 -0.5640  0.9420
12640TIP3   OH259410   5.841   1.087  16.168  0.1852 -0.2607  0.4883
12640TIP3    H159411   5.839   0.991  16.167  1.2451 -0.2922 -0.1900
12640TIP3    H259412   5.934   1.109  16.167 -0.0478  0.7818  0.7568
12641TIP3   OH259413   3.789   5.348  11.109  0.3112  0.3934 -0.4552
12641TIP3    H159414   3.806   5.272  11.053 -0.2174  0.6333 -0.9443
12641TIP3    H259415   3.706   5.383  11.078  0.7671  1.4480 -0.5354
12642TIP3   OH259416   0.167   1.345  15.981 -0.3985  0.1981 -0.0816
12642TIP3    H159417   0.097   1.305  15.931 -0.0321  0.3440 -0.7315
12642TIP3    H259418   0.247   1.316  15.938 -0.0568 -0.0109  0.6813
12643TIP3   OH259419   2.681   2.060   3.601  0.3702  0.3197  0.2679
12643TIP3    H159420   2.595   2.029   3.571 -0.3649  2.7286 -0.3023
12643TIP3    H259421   2.718   2.105   3.525  1.0110  1.5109  1.2504
12644TIP3   OH259422   1.656   6.294   4.139 -0.5153 -0.5427 -0.6688
12644TIP3    H159423   1.731   6.350   4.160 -1.0344 -1.2950  4.5432
12644TIP3    H259424   1.693   6.206   4.129 -0.4106 -0.4015 -1.5904
12645TIP3   OH259425   4.506   1.620  12.216 -0.1106 -0.5453 -0.1364
12645TIP3    H159426   4.513   1.571  12.135 -0.1853 -0.4280 -0.2149
12645TIP3    H259427   4.514   1.555  12.285  0.2085 -0.6109 -0.2374
12646TIP3   OH259428   4.315   2.583   6.210  0.0449  0.1146 -0.1279
12646TIP3    H159429   4.373   2.550   6.279  0.0181  0.7845  0.2229
12646TIP3    H259430   4.238   2.616   6.257 -0.7845 -1.0733 -0.6110
12647TIP3   OH259431   1.167   3.656  14.731  0.3848 -0.3479  0.4339
12647TIP3    H159432   1.127   3.590  14.674 -2.4217  1.6580 -0.1557
12647TIP3    H259433   1.242   3.689  14.682  0.4023 -1.4389 -0.3062
12648TIP3   OH259434   2.090   4.752  15.989  0.4621 -0.1060  0.2564
12648TIP3    H159435   2.184   4.761  15.976  0.3833  0.8109  0.2549
12648TIP3    H259436   2.082   4.697  16.067  1.0326  1.0877  1.1954
12649TIP3   OH259437   1.251   3.918  17.106 -0.4015 -0.9528  0.3607
12649TIP3    H159438   1.280   3.965  17.184 -1.0506  0.6992 -0.3634
12649TIP3    H259439   1.321   3.853  17.090  0.5471 -0.2077  1.3493
12650TIP3   OH259440   6.309   3.150   2.470  0.0607  0.0172 -0.4349
12650TIP3    H159441   6.372   3.121   2.404  0.3215  0.5045 -0.4059
12650TIP3    H259442   6.228   3.106   2.446  0.5216 -0.9979 -0.1913
12651TIP3   OH259443   2.980   5.258  14.372 -0.0661 -0.1082 -0.0926
12651TIP3    H159444   2.921   5.332  14.359 -1.1160 -0.7020  1.0612
12651TIP3    H259445   2.948   5.191  14.312 -0.3588 -0.3072  0.2808
12652TIP3   OH259446   2.132   0.445   2.129  0.2482 -0.9805 -0.4717
12652TIP3    H159447   2.201   0.482   2.183 -0.4240  0.7036 -0.7129
12652TIP3    H259448   2.157   0.466   2.039 -1.3683  1.1805 -0.4799
12653TIP3   OH259449   6.656   1.394   0.042 -0.2198 -0.3046 -0.2523
12653TIP3    H159450   6.622   1.477   0.077 -1.1520 -0.3505 -1.0186
12653TIP3    H259451   6.593   1.328   0.072 -0.1601 -0.5629 -0.6922
12654TIP3   OH259452   2.654   0.303   2.855 -0.4672  0.0447 -0.3647
12654TIP3    H159453   2.572   0.320   2.902  0.4454 -1.1320  1.7868
12654TIP3    H259454   2.666   0.208   2.862  0.7500  0.1097 -1.2708
12655TIP3   OH259455   2.296   4.115   1.567  0.3207  0.6500 -0.2799
12655TIP3    H159456   2.329   4.095   1.480  0.3835  0.2440 -0.1655
12655TIP3    H259457   2.375   4.121   1.621  0.1850 -3.5619  0.6977
12656TIP3   OH259458   2.267   0.844  15.659  0.5676 -0.2588  0.2435
12656TIP3    H159459   2.289   0.937  15.656  0.7678 -0.3314 -2.4539
12656TIP3    H259460   2.350   0.800  15.676  0.2238  0.0318  3.2954
12657TIP3   OH259461   3.719   4.129   5.374 -1.0887  0.0238  0.6296
12657TIP3    H159462   3.728   4.212   5.328 -0.7855  0.0783  0.7829
12657TIP3    H259463   3.664   4.149   5.450  1.6647  0.8829  2.5611
12658TIP3   OH259464   6.700   5.784   2.380  0.2717 -0.1677 -1.0080
12658TIP3    H159465   6.706   5.751   2.291  0.7789 -3.4713  0.1177
12658TIP3    H259466   6.769   5.738   2.428 -1.2221 -0.0211  1.4842
12659TIP3   OH259467   2.847   1.936  14.823  0.4286 -0.4979 -0.7330
12659TIP3    H159468   2.788   1.940  14.898  1.0176  2.3911 -0.3394
12659TIP3    H259469   2.789   1.924  14.748 -0.5124  0.5457 -0.1956
12660TIP3   OH259470   5.094   5.548   4.019 -0.3332 -0.6426  0.3491
12660TIP3    H159471   5.012   5.499   4.031  0.0050 -0.9567  1.5718
12660TIP3    H259472   5.139   5.539   4.103 -0.0653  1.4302  0.4719
12661TIP3   OH259473   2.040   0.280  12.502 -0.9484 -0.2152  0.3143
12661TIP3    H159474   2.081   0.351  12.451  0.6725  0.6105  2.5796
12661TIP3    H259475   1.991   0.229  12.438 -0.1220  1.5185 -1.8156
12662TIP3   OH259476   3.314   3.743   1.018 -0.6557 -0.1163  0.3185
12662TIP3    H159477   3.324   3.725   0.925 -2.4729 -0.9714  0.2425
12662TIP3    H259478   3.326   3.837   1.025  2.5189 -0.3501 -0.2690
12663TIP3   OH259479   1.199   5.807   3.407 -0.5294  0.3785  0.0400
12663TIP3    H159480   1.208   5.867   3.333 -1.1182 -0.8766 -1.0859
12663TIP3    H259481   1.120   5.757   3.388 -0.3659 -0.3810  1.2366
12664TIP3   OH259482   5.834   1.669  16.067 -0.7786  0.1048  0.2091
12664TIP3    H159483   5.763   1.648  16.006 -0.9468  0.9670  0.0898
12664TIP3    H259484   5.913   1.635  16.025 -0.7627  1.4775 -0.9495
12665TIP3   OH259485   1.199   5.322  16.208  0.0619  0.4229  0.5834
12665TIP3    H159486   1.142   5.247  16.191  3.3690 -2.3544  0.6481
12665TIP3    H259487   1.257   5.326  16.132  0.1378  2.8579  0.6805
12666TIP3   OH259488   3.743   4.362  12.918 -0.0176 -0.4495  0.1283
12666TIP3    H159489   3.792   4.311  12.983 -0.1634 -0.7702 -0.0105
12666TIP3    H259490   3.690   4.422  12.970  3.5545  2.9564  0.3525
12667TIP3   OH259491   1.694   4.619   5.061  0.2709 -0.1919  0.3883
12667TIP3    H159492   1.683   4.714   5.059 -1.1191 -0.3303 -1.3691
12667TIP3    H259493   1.672   4.595   5.151 -0.1928  1.0585  0.6378
12668TIP3   OH259494   1.930   4.113   4.184 -0.0752 -0.2798  0.2634
12668TIP3    H159495   1.873   4.049   4.228 -1.5546  0.2651 -0.7567
12668TIP3    H259496   2.015   4.069   4.178 -0.6497 -1.5530  0.9416
12669TIP3   OH259497   5.763   0.128  13.705  0.0461 -0.0556  0.5405
12669TIP3    H159498   5.750   0.151  13.797  1.2830  0.1957  0.6751
12669TIP3    H259499   5.728   0.202  13.656 -1.9318 -0.8069  0.7276
12670TIP3   OH259500   4.937   6.169   1.138  0.0574 -0.3149 -0.4104
12670TIP3    H159501   4.890   6.126   1.210  1.0794 -0.0238  0.4661
12670TIP3    H259502   5.029   6.168   1.166  0.6195 -1.0446 -2.1723
12671TIP3   OH259503   1.982   5.464  13.470 -0.5081  0.8130  0.3914
12671TIP3    H159504   1.962   5.413  13.549 -0.0301 -0.1026 -0.0592
12671TIP3    H259505   2.076   5.452  13.457 -0.5947  0.8978 -0.3635
12672TIP3   OH259506   4.134   2.502   0.476 -0.1343 -0.8791  0.4125
12672TIP3    H159507   4.187   2.449   0.535 -1.1125 -0.9043  1.2917
12672TIP3    H259508   4.053   2.453   0.465 -0.5842 -0.1339  0.2958
12673TIP3   OH259509   2.007   0.575   4.464  0.1045  0.4125 -0.1463
12673TIP3    H159510   2.021   0.669   4.470  2.1560  0.1912 -0.7345
12673TIP3    H259511   2.017   0.554   4.371 -0.6916 -0.3455 -0.0780
12674TIP3   OH259512   0.786   1.467  17.280  0.3548  0.0261  0.1415
12674TIP3    H159513   0.754   1.513  17.358 -1.5627  0.4973 -0.8579
12674TIP3    H259514   0.743   1.512  17.207  1.8589 -0.6065 -1.1799
12675TIP3   OH259515   5.759   4.111   5.304  0.5003  0.6834 -0.3215
12675TIP3    H159516   5.827   4.176   5.283 -0.5227  1.5571 -1.0049
12675TIP3    H259517   5.770   4.043   5.237  1.2035  0.4173  0.0505
12676TIP3   OH259518   5.580   0.717  13.072  0.1644 -0.1768  0.2115
12676TIP3    H159519   5.537   0.701  12.988  0.4965 -0.3402  0.0693
12676TIP3    H259520   5.674   0.715  13.051  0.2360  0.7383  0.4092
12677TIP3   OH259521   0.068   2.564   2.886 -0.0260 -0.2418  0.1638
12677TIP3    H159522   0.051   2.655   2.863 -1.7109 -0.7349 -0.6752
12677TIP3    H259523   0.111   2.527   2.809 -2.6213 -1.0260 -1.0246
12678TIP3   OH259524   4.971   4.769  16.613 -0.2031 -0.1951  0.4041
12678TIP3    H159525   4.916   4.695  16.589  0.2227 -0.4450  0.1895
12678TIP3    H259526   4.965   4.828  16.538 -0.8984  0.2024  0.7617
12679TIP3   OH259527   1.532   0.765   3.167  0.5153 -0.8659 -0.0389
12679TIP3    H159528   1.521   0.776   3.261  0.1655 -0.6693 -0.1013
12679TIP3    H259529   1.449   0.729   3.137 -0.6768  2.1790 -0.7646
12680TIP3   OH259530   3.160   0.796   4.483 -0.8339  0.0494  0.3569
12680TIP3    H159531   3.106   0.766   4.556 -0.5837 -1.0983  0.0965
12680TIP3    H259532   3.250   0.776   4.511 -0.8105 -1.6863 -0.7843
12681TIP3   OH259533   4.931   5.526  15.420  0.3373 -0.0292  0.5331
12681TIP3    H159534   4.908   5.567  15.504 -0.9247  1.7141 -0.5754
12681TIP3    H259535   4.997   5.584  15.382 -0.2132  0.0564 -0.3252
12682TIP3   OH259536   2.526   0.887  11.681  0.0452  0.2462  0.1068
12682TIP3    H159537   2.430   0.887  11.682  0.0491  0.9736  0.9455
12682TIP3    H259538   2.551   0.825  11.750  0.1777  0.8928  0.6419
12683TIP3   OH259539   0.058   5.492  17.265  0.5675 -0.0437 -0.1159
12683TIP3    H159540  -0.008   5.440  17.311  0.2351 -1.0538 -1.6881
12683TIP3    H259541   0.007   5.555  17.214  0.9165  0.6208  0.3363
12684TIP3   OH259542   4.139   5.938   4.847 -0.0170 -0.1007 -0.6061
12684TIP3    H159543   4.186   5.879   4.788  0.9201 -1.5192  1.4305
12684TIP3    H259544   4.197   6.013   4.859  0.8130 -0.8528  0.2214
12685TIP3   OH259545   5.657   4.976   6.987 -0.0515  0.1507  0.0896
12685TIP3    H159546   5.718   5.028   7.040 -1.4609  0.1193  1.8075
12685TIP3    H259547   5.572   4.988   7.029 -0.8568 -1.5639 -0.9585
12686TIP3   OH259548   3.135   2.877   3.252 -0.1010 -0.5186 -0.0193
12686TIP3    H159549   3.115   2.876   3.346 -0.2367  0.1360 -0.0420
12686TIP3    H259550   3.051   2.895   3.210 -0.3010 -2.0247 -0.3481
12687TIP3   OH259551   2.349   1.816   4.668 -0.0362  0.2703  0.2211
12687TIP3    H159552   2.381   1.827   4.579 -0.2793 -1.0392 -0.0426
12687TIP3    H259553   2.254   1.810   4.660  0.0271 -1.6682  0.3179
12688TIP3   OH259554   0.741   3.035   3.564 -0.4300  0.3116 -0.3280
12688TIP3    H159555   0.654   2.996   3.572  0.2475 -0.9101  2.0735
12688TIP3    H259556   0.799   2.971   3.605  1.3136  2.0274 -0.0067
12689TIP3   OH259557   4.718   1.625  12.898 -0.0605  0.0423  0.2577
12689TIP3    H159558   4.733   1.593  12.987  0.9918  2.0826  0.8686
12689TIP3    H259559   4.655   1.696  12.908 -1.4451 -0.9523 -0.9220
12690TIP3   OH259560   5.991   5.048   0.029  0.5692  0.1032  0.4750
12690TIP3    H159561   5.947   4.999  -0.040  1.9866 -0.1313 -0.2892
12690TIP3    H259562   5.947   5.020   0.110 -0.8189  0.0639 -0.2580
12691TIP3   OH259563   1.301   5.072  17.151 -0.0696 -0.6280  0.4785
12691TIP3    H159564   1.301   5.167  17.163 -0.6957 -0.4971 -0.4783
12691TIP3    H259565   1.249   5.058  17.072 -1.8218 -1.9114  1.7781
12692TIP3   OH259566   1.050   5.659   5.476 -0.2353  0.6391  0.4511
12692TIP3    H159567   1.005   5.662   5.391 -0.1804  0.5761  0.4200
12692TIP3    H259568   1.079   5.749   5.491  1.3964  0.3098 -0.4775
12693TIP3   OH259569   2.954   5.919  13.701  0.2907 -0.1512 -0.1180
12693TIP3    H159570   3.033   5.867  13.685  1.2900  2.0292 -3.4438
12693TIP3    H259571   2.891   5.888  13.636  0.0429  1.0596 -0.4849
12694TIP3   OH259572   6.504   0.311  13.671  0.1011  0.2441  0.2639
12694TIP3    H159573   6.440   0.362  13.721 -0.5894 -0.4988  0.1725
12694TIP3    H259574   6.510   0.357  13.587 -0.1848  0.4211  0.3365
12695TIP3   OH259575   1.237   6.247  16.991  0.0566 -0.0273 -0.2148
12695TIP3    H159576   1.250   6.197  16.910 -0.8486 -0.7336  0.0618
12695TIP3    H259577   1.313   6.224  17.044 -0.9953 -2.2336  0.4421
12696TIP3   OH259578   2.118   2.654  15.154 -0.7891 -0.4437 -0.0951
12696TIP3    H159579   2.196   2.705  15.134 -1.7442  0.7074 -1.0482
12696TIP3    H259580   2.050   2.720  15.172 -2.0544 -1.3466 -1.3186
12697TIP3   OH259581   6.518   3.216   0.986  0.1191 -0.6420 -0.1312
12697TIP3    H159582   6.503   3.154   0.914  2.3609 -2.4834  0.8548
12697TIP3    H259583   6.613   3.223   0.992 -0.0430  0.9250  1.5075
12698TIP3   OH259584   3.745   3.933   6.528 -0.0392 -0.0359 -0.1461
12698TIP3    H159585   3.803   4.008   6.535  0.1516  0.2238 -3.0972
12698TIP3    H259586   3.755   3.886   6.611  1.5628  1.9611  0.8551
12699TIP3   OH259587   0.073   2.328   2.518  0.1400 -0.1390  0.6810
12699TIP3    H159588   0.097   2.392   2.451  0.8894 -0.7934  0.3110
12699TIP3    H259589  -0.020   2.342   2.533 -0.6042 -1.5008 -2.1504
12700TIP3   OH259590   6.128   3.926  15.501  0.2102 -0.1293 -0.3299
12700TIP3    H159591   6.112   3.935  15.407 -0.2785  2.0015 -0.1031
12700TIP3    H259592   6.051   3.880  15.535 -0.0374 -0.1039 -0.8493
12701TIP3   OH259593   4.961   1.194  14.555  0.0228 -0.5496  0.1655
12701TIP3    H159594   4.904   1.267  14.581 -1.0717 -1.4254  0.3082
12701TIP3    H259595   5.018   1.179  14.630  1.4870  1.2708 -0.5060
12702TIP3   OH259596   1.217   6.099   4.474  0.1862  0.1930  0.0651
12702TIP3    H159597   1.304   6.064   4.456  0.0948 -0.1021  0.1917
12702TIP3    H259598   1.221   6.190   4.445  1.2089  0.8242  1.9628
12703TIP3   OH259599   3.711   5.891   3.950 -0.0706 -0.1880  0.5239
12703TIP3    H159600   3.735   5.838   3.874 -1.1394  0.1543 -0.0758
12703TIP3    H259601   3.744   5.979   3.929  0.1351 -0.2191  0.7140
12704TIP3   OH259602   3.118   6.106   0.213  0.3062 -0.5325  0.2114
12704TIP3    H159603   3.043   6.164   0.206  1.3909  0.8628 -0.4355
12704TIP3    H259604   3.180   6.138   0.147  0.0411 -3.9221 -1.9384
12705TIP3   OH259605   2.168   0.762  14.322  0.2016 -0.3559 -0.2108
12705TIP3    H159606   2.215   0.794  14.245 -0.6995  0.0234 -0.6315
12705TIP3    H259607   2.168   0.667  14.312 -1.6267 -0.2537 -1.7939
12706TIP3   OH259608   0.856   2.175   2.377 -0.0190 -0.2312  0.0335
12706TIP3    H159609   0.823   2.201   2.291 -2.4240  0.0049  0.9380
12706TIP3    H259610   0.911   2.099   2.359 -1.7248 -1.1746 -1.5957
12707TIP3   OH259611   4.026   6.272   5.049 -0.7530  0.5131  0.3645
12707TIP3    H159612   4.001   6.290   4.959 -1.7947  0.2792  0.5981
12707TIP3    H259613   4.016   6.355   5.095 -2.7704  0.0626  0.8167
12708TIP3   OH259614   2.821   0.296   1.887 -0.7199 -0.1183 -0.2729
12708TIP3    H159615   2.737   0.279   1.843 -0.4904 -0.0413 -0.7533
12708TIP3    H259616   2.886   0.277   1.820 -0.3737  0.3601 -0.0727
12709TIP3   OH259617   6.354   2.272  12.464  0.1279 -0.1865 -0.2274
12709TIP3    H159618   6.449   2.279  12.476 -0.1042  0.3874  1.5790
12709TIP3    H259619   6.334   2.181  12.485  0.1595 -0.0064  0.6605
12710TIP3   OH259620   3.897   4.035   2.535  0.6957 -0.0709 -0.1374
12710TIP3    H159621   3.892   4.104   2.469 -0.7153  0.0306  0.0593
12710TIP3    H259622   3.950   3.966   2.494  1.8386  0.9625 -0.4622
12711TIP3   OH259623   5.214   1.592   1.389 -0.1578  0.1661 -0.2361
12711TIP3    H159624   5.242   1.501   1.398 -1.0135  0.0131  1.2810
12711TIP3    H259625   5.292   1.644   1.409  0.2919 -0.2297 -0.9478
12712TIP3   OH259626   2.974   3.078  15.888 -0.2284  0.3754  0.2641
12712TIP3    H159627   2.962   3.073  15.793  1.3671  0.0590  0.0605
12712TIP3    H259628   2.972   3.172  15.908 -3.8524  0.4036  0.4341
12713TIP3   OH259629   4.770   6.610  14.278 -0.0137 -0.0881 -0.2861
12713TIP3    H159630   4.689   6.570  14.309 -0.6599  0.2377 -1.4661
12713TIP3    H259631   4.764   6.604  14.182  0.6490  1.2875 -0.4407
12714TIP3   OH259632   1.916   3.010  12.895 -0.8752  0.4635 -0.4814
12714TIP3    H159633   1.860   2.933  12.891 -1.9283  1.1061  1.0167
12714TIP3    H259634   1.910   3.049  12.807 -2.6480  0.4089 -0.4076
12715TIP3   OH259635   0.313   3.290  16.913 -0.1814  0.4974 -0.0032
12715TIP3    H159636   0.301   3.305  17.007 -1.1604 -0.5919  0.0755
12715TIP3    H259637   0.244   3.228  16.890  0.0977  0.6852 -1.4350
12716TIP3   OH259638   3.285   1.851  16.435 -0.1270 -0.3778  0.0990
12716TIP3    H159639   3.275   1.770  16.486 -0.0110 -0.5986 -0.2268
12716TIP3    H259640   3.319   1.822  16.350 -1.2681 -0.1279 -0.4618
12717TIP3   OH259641   0.808   5.811   3.417 -0.0612 -0.8033 -0.0758
12717TIP3    H159642   0.861   5.735   3.439 -0.9540 -0.8039  2.4656
12717TIP3    H259643   0.720   5.777   3.406  0.0377 -0.5098 -2.0895
12718TIP3   OH259644   0.338   3.182   1.734  0.0853  0.3536  0.3994
12718TIP3    H159645   0.427   3.187   1.699 -0.1522  1.6889 -0.0489
12718TIP3    H259646   0.287   3.140   1.665 -0.0567  1.5339 -0.2277
12719TIP3   OH259647   0.697   3.557   0.639 -0.1602  0.0458 -0.2688
12719TIP3    H159648   0.662   3.644   0.659  1.7164  0.4893  1.3892
12719TIP3    H259649   0.697   3.511   0.723  1.0496 -0.7238 -0.6719
12720TIP3   OH259650   0.936   4.578  17.396 -0.0923 -0.4711 -0.0852
12720TIP3    H159651   0.875   4.633  17.346 -1.2393 -1.5720  0.0759
12720TIP3    H259652   0.964   4.635  17.468  0.5446  0.6791 -1.1873
12721TIP3   OH259653   2.414   3.489   3.254 -0.5370  0.0101  0.4046
12721TIP3    H159654   2.407   3.532   3.169 -0.0008 -0.7983 -0.0710
12721TIP3    H259655   2.486   3.533   3.298 -0.8199  0.4356  0.4449
12722TIP3   OH259656   3.988   5.061  14.272  0.2332  0.0732  0.0107
12722TIP3    H159657   3.904   5.103  14.251 -0.0399 -1.5152 -2.3405
12722TIP3    H259658   4.053   5.117  14.231  0.0579 -0.4656 -1.0148
12723TIP3   OH259659   2.779   2.826   2.325 -0.1127  0.7122 -0.1201
12723TIP3    H159660   2.781   2.890   2.254  1.1132  0.1266 -0.6338
12723TIP3    H259661   2.835   2.755   2.295  0.5543  0.5116  1.4977
12724TIP3   OH259662   3.643   3.786   4.966 -0.0881  0.5133 -0.4682
12724TIP3    H159663   3.568   3.727   4.959  0.2260  0.1265 -0.6189
12724TIP3    H259664   3.680   3.788   4.877  0.3737  0.3030 -0.2870
12725TIP3   OH259665   5.588   2.780  12.085  0.0466 -0.4275 -0.2800
12725TIP3    H159666   5.629   2.833  12.016 -1.5021 -0.6074 -1.3968
12725TIP3    H259667   5.585   2.837  12.161  0.7326  0.1925 -0.7095
12726TIP3   OH259668   4.402   6.727   2.058 -0.2916 -0.6889 -0.7177
12726TIP3    H159669   4.399   6.722   1.962  1.2364  0.2978 -0.8383
12726TIP3    H259670   4.399   6.821   2.077  0.2524 -0.8483  0.1726
12727TIP3   OH259671   0.478   4.433  16.995  0.1421  0.2230  0.1908
12727TIP3    H159672   0.497   4.447  16.902 -0.3288 -1.4252 -0.1844
12727TIP3    H259673   0.409   4.366  16.996  0.1634  0.1794  1.7348
12728TIP3   OH259674   1.062   3.523   2.775 -0.0832  0.1266  0.1271
12728TIP3    H159675   1.142   3.574   2.779  0.3149 -0.5306  0.6011
12728TIP3    H259676   1.016   3.556   2.697 -0.3958  1.9999  1.0613
12729TIP3   OH259677   4.398   2.628  16.304 -0.0256  0.8991  0.6497
12729TIP3    H159678   4.392   2.601  16.212  0.7866  0.1049  0.8105
12729TIP3    H259679   4.358   2.556  16.353 -3.0553  2.5519  0.8139
12730TIP3   OH259680   2.165   6.368   2.452 -0.0626 -0.3861  0.0367
12730TIP3    H159681   2.130   6.437   2.507 -1.7970  0.2569 -1.7518
12730TIP3    H259682   2.158   6.289   2.505 -0.8051  0.3399  1.0536
12731TIP3   OH259683   2.198   3.217  12.798 -0.0831  0.1187 -0.2634
12731TIP3    H159684   2.249   3.259  12.728 -1.6415 -1.2154 -2.3092
12731TIP3    H259685   2.248   3.235  12.877  2.2345  0.9921 -1.8030
12732TIP3   OH259686   5.735   5.234   2.896 -0.2838  0.5892  0.1702
12732TIP3    H159687   5.822   5.212   2.931 -0.4495 -1.7238 -0.7260
12732TIP3    H259688   5.750   5.248   2.803 -0.6767  1.6888  0.2536
12733TIP3   OH259689   0.907   3.807   1.664 -0.7014 -0.2149  0.3531
12733TIP3    H159690   0.929   3.794   1.757 -2.1769  1.7185  1.0334
12733TIP3    H259691   0.910   3.902   1.652  0.8022 -0.4991 -1.9679
12734TIP3   OH259692   2.783   0.327   2.351  0.0020 -0.2900 -0.0534
12734TIP3    H159693   2.848   0.383   2.310  0.5695 -0.6755  0.3059
12734TIP3    H259694   2.777   0.360   2.441  1.9672 -2.1256  0.8489
12735TIP3   OH259695   0.887   2.725  12.286  0.2438 -0.3327  0.1566
12735TIP3    H159696   0.915   2.634  12.295 -2.0104 -1.3039 -1.7217
12735TIP3    H259697   0.896   2.744  12.193  1.2539  1.6288  0.5955
12736TIP3   OH259698   5.986   4.218  16.268  0.1404 -0.1506 -0.3317
12736TIP3    H159699   5.998   4.298  16.218  2.5808 -1.3243 -1.8358
12736TIP3    H259700   5.921   4.168  16.217 -1.5293  0.8644  0.7120
12737TIP3   OH259701   0.047   3.657  14.329 -0.3613 -0.4223 -0.0933
12737TIP3    H159702   0.094   3.708  14.263  0.5264 -1.5321 -0.3538
12737TIP3    H259703   0.095   3.675  14.410 -0.1548 -0.6907 -0.1534
12738TIP3   OH259704   5.614   4.471   5.439 -0.0570  0.1168  0.2791
12738TIP3    H159705   5.577   4.429   5.517  2.8833 -2.0652  0.7067
12738TIP3    H259706   5.708   4.478   5.458  0.4646  1.3569 -2.2926
12739TIP3   OH259707   6.115   2.332  11.913  0.6723 -0.0937 -0.0111
12739TIP3    H159708   6.193   2.287  11.944  0.0449 -1.7628 -0.7640
12739TIP3    H259709   6.075   2.370  11.992  0.2341 -2.4444  0.9665
12740TIP3   OH259710   0.749   4.202  12.545  0.2646 -0.4048 -0.3799
12740TIP3    H159711   0.702   4.266  12.492 -3.3349 -0.9512  1.7565
12740TIP3    H259712   0.761   4.127  12.487  0.0923  0.4123 -1.5110
12741TIP3   OH259713   2.383   2.522  10.986 -0.2973  0.8237 -0.0726
12741TIP3    H159714   2.298   2.484  10.963 -0.0254 -0.4550  0.9342
12741TIP3    H259715   2.434   2.517  10.906  0.3723 -2.8102  0.4287
12742TIP3   OH259716   1.977   2.088   4.872  0.3622  0.1756 -0.0739
12742TIP3    H159717   1.930   2.074   4.789  0.0252  0.3730  0.0818
12742TIP3    H259718   1.939   2.025   4.932 -0.5653  1.1453  0.3897
12743TIP3   OH259719   1.504   1.678   5.038  0.2120  0.0016 -0.7708
12743TIP3    H159720   1.411   1.685   5.058 -0.1648 -1.6267 -1.7196
12743TIP3    H259721   1.519   1.742   4.969  0.1960  1.4085  0.4743
12744TIP3   OH259722   4.004   0.220   1.110 -0.3988 -0.5443 -0.3674
12744TIP3    H159723   3.934   0.223   1.045  0.4351 -0.1053 -1.2819
12744TIP3    H259724   4.083   0.199   1.059  0.1314 -1.0833  0.6370
12745TIP3   OH259725   0.286   2.701   3.152  0.4349  0.3804  0.2098
12745TIP3    H159726   0.302   2.737   3.064  0.8586 -1.1656 -0.3816
12745TIP3    H259727   0.191   2.701   3.161  0.3736  0.2520 -0.3823
12746TIP3   OH259728   6.368   1.208   5.296  0.1007 -0.1593 -0.5634
12746TIP3    H159729   6.305   1.144   5.264  0.0679 -0.2451 -0.3327
12746TIP3    H259730   6.339   1.228   5.385  0.7585 -0.6865 -0.2182
12747TIP3   OH259731   5.236   1.091   5.637 -0.4174  0.2958  1.0094
12747TIP3    H159732   5.218   1.184   5.650  1.0354  0.5310  1.5956
12747TIP3    H259733   5.228   1.053   5.724 -2.6532 -0.4836  0.5184
12748TIP3   OH259734   2.864   0.631   3.418 -0.4976  0.2489 -0.6520
12748TIP3    H159735   2.958   0.645   3.433 -0.1113 -1.4095 -1.2522
12748TIP3    H259736   2.823   0.653   3.502  0.7000 -1.1272  0.3471
12749TIP3   OH259737   3.945   2.097   4.349  0.9771  0.4552  0.0597
12749TIP3    H159738   3.986   2.037   4.412 -0.2191 -0.9911 -0.4689
12749TIP3    H259739   3.851   2.081   4.360  0.7172  0.8224 -1.4549
12750TIP3   OH259740   4.614   0.426  11.245 -0.4340  0.3209  0.4399
12750TIP3    H159741   4.616   0.449  11.338  0.9240  0.7089  0.3355
12750TIP3    H259742   4.660   0.498  11.202  0.4407 -0.6783 -0.3385
12751TIP3   OH259743   0.948   2.026  14.976 -0.0742 -0.0011  0.0809
12751TIP3    H159744   0.925   1.984  14.893 -0.4578  0.0902  0.1357
12751TIP3    H259745   1.013   1.969  15.016  0.6647  0.3238 -0.6179
12752TIP3   OH259746   6.269   5.613  17.518 -0.8374  0.8231  0.7811
12752TIP3    H159747   6.236   5.655  17.597 -0.9569 -0.7650  1.6289
12752TIP3    H259748   6.329   5.546  17.551 -1.1013 -0.0512 -0.4559
12753TIP3   OH259749   0.323   4.228  11.286  0.0860 -0.3780 -0.0954
12753TIP3    H159750   0.352   4.214  11.376  0.1107  1.8654  0.2984
12753TIP3    H259751   0.347   4.319  11.267 -3.3132  0.4416 -1.0491
12754TIP3   OH259752   3.809   2.163  14.258 -0.1360 -0.8974  0.5677
12754TIP3    H159753   3.803   2.174  14.353 -1.0914  0.0420  0.4112
12754TIP3    H259754   3.803   2.068  14.245 -0.7135 -0.9860  1.4004
12755TIP3   OH259755   0.114   6.428   1.705 -0.4661 -0.1360 -0.4791
12755TIP3    H159756   0.025   6.463   1.716 -1.0843 -1.6385 -0.4035
12755TIP3    H259757   0.100   6.342   1.665  1.0319  0.0522 -1.4810
12756TIP3   OH259758   2.202   4.821   4.464  0.2773  0.0963 -0.4352
12756TIP3    H159759   2.130   4.846   4.406  1.7073  1.2534 -1.7854
12756TIP3    H259760   2.271   4.884   4.446  0.7116  0.7339  2.7833
12757TIP3   OH259761   6.097   2.078   2.676 -0.2744 -0.3238 -0.0373
12757TIP3    H159762   6.012   2.037   2.696 -1.2998  0.5931 -2.1455
12757TIP3    H259763   6.141   2.084   2.760 -1.7271 -2.0851  0.9329
12758TIP3   OH259764   5.202   2.362   0.726  0.2034 -0.6330 -0.5929
12758TIP3    H159765   5.250   2.441   0.752 -1.8548  0.4752  0.1475
12758TIP3    H259766   5.267   2.292   0.728  1.7439  0.7488  0.4200
12759TIP3   OH259767   6.410   2.651   4.024  0.2301 -0.7735  0.1301
12759TIP3    H159768   6.407   2.556   4.021  0.2373 -0.7893  0.4929
12759TIP3    H259769   6.351   2.680   3.955  2.2376 -1.0191 -1.7923
12760TIP3   OH259770   3.575   1.948   4.861 -0.3316  0.3021 -0.0021
12760TIP3    H159771   3.633   1.942   4.937 -0.0314 -0.4376 -0.2738
12760TIP3    H259772   3.583   1.863   4.818 -0.2706  0.8013 -1.0264
12761TIP3   OH259773   5.703   4.066   4.398 -0.0795  0.3547 -0.3861
12761TIP3    H159774   5.736   4.149   4.433 -0.1256  0.0888  0.3049
12761TIP3    H259775   5.612   4.085   4.374 -0.2827  0.3522  0.3492
12762TIP3   OH259776   2.436   6.349   6.039 -0.7175 -0.8736  0.2993
12762TIP3    H159777   2.454   6.378   6.129 -2.4542  0.3056  0.3226
12762TIP3    H259778   2.344   6.325   6.039 -0.4547 -1.9899 -0.9053
12763TIP3   OH259779   6.555   1.460  16.115 -0.8261  0.2414 -0.0965
12763TIP3    H159780   6.518   1.376  16.088  0.1058 -0.6254  1.2274
12763TIP3    H259781   6.615   1.483  16.043  0.5298 -1.3129  0.4849
12764TIP3   OH259782   5.459   0.202   2.246  0.0552 -0.1053  0.2667
12764TIP3    H159783   5.364   0.209   2.255 -0.0152 -0.8871  0.2761
12764TIP3    H259784   5.488   0.289   2.221 -0.5940  0.2888  0.8650
12765TIP3   OH259785   5.406   5.817  15.411 -0.0139 -0.1603 -0.1415
12765TIP3    H159786   5.390   5.882  15.480  1.1449  0.7339 -0.6763
12765TIP3    H259787   5.499   5.797  15.418  0.1362 -0.0180 -1.4607
12766TIP3   OH259788   2.228   6.213   3.204 -0.5206 -0.0509  0.0364
12766TIP3    H159789   2.144   6.172   3.226  0.0356 -0.6109  1.1881
12766TIP3    H259790   2.292   6.170   3.261  0.3483  1.2779  0.1184
12767TIP3   OH259791   4.550   0.130   6.087  0.2628 -0.3389  0.5602
12767TIP3    H159792   4.619   0.185   6.051  1.4312 -1.4731  0.9716
12767TIP3    H259793   4.495   0.190   6.138 -0.2129  0.9141 -1.3271
12768TIP3   OH259794   0.597   5.774   2.897  0.0263 -0.3910 -0.3258
12768TIP3    H159795   0.531   5.812   2.956  1.1608 -1.4990  1.7448
12768TIP3    H259796   0.547   5.715   2.841 -0.8624 -0.6323  0.6816
12769TIP3   OH259797   0.295   0.275   4.993  0.3741 -0.3265 -0.1145
12769TIP3    H159798   0.288   0.197   4.938  1.2202  0.0726 -0.8075
12769TIP3    H259799   0.327   0.242   5.077  0.3138 -0.7718 -0.2617
12770TIP3   OH259800   0.758   3.786   0.306 -0.0545 -0.2066  0.0383
12770TIP3    H159801   0.680   3.795   0.361  0.4919  0.6064  0.7013
12770TIP3    H259802   0.725   3.752   0.223 -1.0189 -0.5422  0.5474
12771TIP3   OH259803   1.980   2.028   1.703 -0.3070 -0.1486  0.3167
12771TIP3    H159804   2.067   1.989   1.705 -0.3367 -0.2402 -0.0737
12771TIP3    H259805   1.948   2.021   1.792 -0.4138 -1.2445  0.1999
12772TIP3   OH259806   5.825   0.597   5.605 -0.1122 -0.6584 -0.2484
12772TIP3    H159807   5.762   0.661   5.637  1.2512 -0.9798  3.5541
12772TIP3    H259808   5.848   0.628   5.517 -1.7137  2.3210  0.2642
12773TIP3   OH259809   6.715   2.900  14.332 -0.2607  0.2762  0.5141
12773TIP3    H159810   6.654   2.906  14.405  0.1871 -2.4586  1.2153
12773TIP3    H259811   6.660   2.878  14.257 -0.3859  0.1368  0.6483
12774TIP3   OH259812   4.059   6.378   0.115 -0.5586  0.0355  0.0617
12774TIP3    H159813   3.982   6.390   0.171 -0.8399 -1.3323 -0.0182
12774TIP3    H259814   4.030   6.317   0.047  0.9588 -1.5597  0.7906
12775TIP3   OH259815   0.958   2.636  13.672  0.0738  0.4434  0.4865
12775TIP3    H159816   0.921   2.622  13.585  1.4116  2.1390 -0.4224
12775TIP3    H259817   0.940   2.554  13.719  0.5460 -1.1019 -1.8260
12776TIP3   OH259818   2.792   0.551  15.705 -0.1033  0.4849 -0.2405
12776TIP3    H159819   2.826   0.630  15.663 -1.6009  0.8312 -0.8646
12776TIP3    H259820   2.821   0.479  15.648  3.2004  0.2453  1.4917
12777TIP3   OH259821   4.477   2.808   3.350 -0.2380 -0.5122  0.0052
12777TIP3    H159822   4.451   2.754   3.275 -0.9671  0.3491 -0.3761
12777TIP3    H259823   4.506   2.890   3.311 -3.6625  1.2276  0.7178
12778TIP3   OH259824   5.133   1.768   2.975  0.1871 -0.1955 -0.4333
12778TIP3    H159825   5.054   1.720   2.950 -0.1714 -0.6466  1.3865
12778TIP3    H259826   5.181   1.707   3.031  0.9878  0.6670 -0.1526
12779TIP3   OH259827   1.243   3.549   0.296 -0.6371 -0.4775 -0.2050
12779TIP3    H159828   1.263   3.586   0.211 -0.3281 -0.3717 -0.0894
12779TIP3    H259829   1.236   3.624   0.355 -0.3238 -0.5777 -0.0337
12780TIP3   OH259830   4.844   0.565  12.219  0.4596  0.0194  0.3817
12780TIP3    H159831   4.806   0.479  12.203 -0.6992  0.5247  0.3448
12780TIP3    H259832   4.828   0.582  12.311 -1.6899  1.2902 -0.1688
12781TIP3   OH259833   6.578   0.301  16.167  0.2720  0.2937  0.4462
12781TIP3    H159834   6.595   0.295  16.261  1.9632  0.7105  0.1923
12781TIP3    H259835   6.577   0.394  16.148  2.4108  0.2263 -0.3141
12782TIP3   OH259836   0.282   3.914   3.937  0.0538  0.2508  0.3148
12782TIP3    H159837   0.259   3.865   4.016 -0.8879  0.3829  0.1247
12782TIP3    H259838   0.355   3.969   3.965  1.1518 -1.2332  0.5324
12783TIP3   OH259839   1.184   0.175   2.428  0.0205  0.2685  0.4417
12783TIP3    H159840   1.097   0.138   2.415  0.1297 -0.4776  1.6326
12783TIP3    H259841   1.182   0.259   2.384 -0.8017 -0.4120 -0.8608
12784TIP3   OH259842   6.288   6.244   3.143 -0.4555 -0.1261 -0.1921
12784TIP3    H159843   6.344   6.208   3.074 -1.8754 -2.3564 -0.2660
12784TIP3    H259844   6.256   6.326   3.106  0.8022 -0.0154 -1.1330
12785TIP3   OH259845   1.406   4.376   1.325  0.4960  0.5125 -0.4294
12785TIP3    H159846   1.473   4.367   1.258  1.0073 -0.9879  0.2268
12785TIP3    H259847   1.454   4.373   1.408 -0.3806 -1.1899  0.0732
12786TIP3   OH259848   6.452   0.462  11.351 -0.6511  0.5915 -0.2295
12786TIP3    H159849   6.519   0.394  11.353 -1.5327 -0.2760  0.1475
12786TIP3    H259850   6.370   0.415  11.341 -1.4093  1.4955  1.4342
12787TIP3   OH259851   5.784   0.606   1.223 -0.2618  0.4952 -0.0296
12787TIP3    H159852   5.691   0.628   1.227 -0.4255 -0.2995  1.0308
12787TIP3    H259853   5.787   0.511   1.231  0.6080  0.4336 -0.9172
12788TIP3   OH259854   3.799   4.734  12.778 -0.5596 -0.1267 -0.8764
12788TIP3    H159855   3.805   4.641  12.755 -2.3955 -0.5074  0.0836
12788TIP3    H259856   3.756   4.774  12.702 -0.5159 -0.2018 -0.9412
12789TIP3   OH259857   2.552   4.753   2.989 -0.0957  0.1765  0.5266
12789TIP3    H159858   2.570   4.771   2.897  2.2082 -1.9024  0.4739
12789TIP3    H259859   2.594   4.824   3.037 -1.0765  1.1199  0.0402
12790TIP3   OH259860   5.346   2.575  14.928 -0.2045  0.3733  0.0790
12790TIP3    H159861   5.303   2.630  14.993 -0.1767  1.8744 -1.1200
12790TIP3    H259862   5.314   2.487  14.947 -2.7910  1.2225  0.0866
12791TIP3   OH259863   6.486   0.251   5.061  0.1747  0.1002 -0.0653
12791TIP3    H159864   6.504   0.282   5.150  1.6879 -0.1980 -0.2341
12791TIP3    H259865   6.569   0.264   5.015 -0.9413  1.4460 -1.8072
12792TIP3   OH259866   6.044   3.081   5.648  0.3765 -0.1349 -0.6026
12792TIP3    H159867   6.133   3.066   5.618  0.1350 -1.1041 -0.8886
12792TIP3    H259868   5.991   3.019   5.597 -0.4370  0.3290 -0.3397
12793TIP3   OH259869   5.341   5.620  14.056  0.5531 -0.2326 -0.2589
12793TIP3    H159870   5.311   5.618  14.146  0.9329  0.9190 -0.0831
12793TIP3    H259871   5.434   5.641  14.062  0.3724  0.8605 -0.9386
12794TIP3   OH259872   0.360   3.617   4.149  0.3014  0.0801 -0.1889
12794TIP3    H159873   0.448   3.652   4.159  0.5857 -0.2719 -1.2657
12794TIP3    H259874   0.371   3.522   4.153 -0.1245  0.0511  0.3522
12795TIP3   OH259875   0.164   0.595  16.449  0.0095 -0.5247  0.2532
12795TIP3    H159876   0.211   0.636  16.521  1.2738 -0.5544 -0.5307
12795TIP3    H259877   0.180   0.652  16.373 -1.4678 -0.3802  0.0110
12796TIP3   OH259878   1.674   1.420  15.185  0.4749 -0.3646 -0.2523
12796TIP3    H159879   1.752   1.473  15.167  1.5307 -0.7626  2.6119
12796TIP3    H259880   1.698   1.368  15.262 -2.6566 -0.4328  0.8106
12797TIP3   OH259881   6.012   6.371  11.254 -0.2896  0.5343  0.4139
12797TIP3    H159882   6.099   6.402  11.226  0.1559  0.3485  1.5744
12797TIP3    H259883   5.965   6.358  11.171  1.7303 -2.2304 -0.4680
12798TIP3   OH259884   0.169   5.406  11.908 -0.0897  0.3288  0.0010
12798TIP3    H159885   0.245   5.455  11.877  0.0270  0.4602  0.4887
12798TIP3    H259886   0.190   5.382  11.998 -1.0547  1.2698  0.5028
12799TIP3   OH259887   4.245   3.149   0.758  0.6276  0.0783 -0.0665
12799TIP3    H159888   4.324   3.121   0.711  1.1043 -0.6257  1.1093
12799TIP3    H259889   4.273   3.156   0.849 -0.7059 -0.3581  0.3979
12800TIP3   OH259890   4.155   6.005   7.041 -0.4269 -0.1361 -0.1072
12800TIP3    H159891   4.235   6.055   7.058  0.5227 -1.4723 -0.4074
12800TIP3    H259892   4.108   6.056   6.975 -0.5328  1.3770  1.0893
12801TIP3   OH259893   5.581   4.481   3.353  0.2573  0.2660  0.3105
12801TIP3    H159894   5.649   4.417   3.371  0.3382  0.3784  0.4066
12801TIP3    H259895   5.563   4.522   3.438  0.3963  0.5530  0.2057
12802TIP3   OH259896   0.354   4.790   0.712  0.6576 -0.1234  0.2220
12802TIP3    H159897   0.331   4.722   0.650  1.7251  0.4224 -0.8168
12802TIP3    H259898   0.270   4.819   0.748  0.1926 -1.9158  0.6399
12803TIP3   OH259899   1.481   4.619  16.199  0.1781  0.3171 -0.1124
12803TIP3    H159900   1.548   4.679  16.230  1.2715 -0.7295 -0.3694
12803TIP3    H259901   1.398   4.662  16.220  0.9202  1.4985  0.4852
12804TIP3   OH259902   5.610   1.077  12.866  0.7690  0.4467 -0.2107
12804TIP3    H159903   5.689   1.094  12.916  0.8639 -0.0724 -0.1805
12804TIP3    H259904   5.545   1.135  12.903  1.1865  1.0261 -0.3680
12805TIP3   OH259905   3.494   5.910   2.002 -0.5676  0.5164 -0.2632
12805TIP3    H159906   3.409   5.878   1.973 -0.8794  0.8283  0.2813
12805TIP3    H259907   3.547   5.831   2.016 -1.0142  0.2842  0.1278
12806TIP3   OH259908   5.121   5.402   5.350  0.1856  0.2152  0.9608
12806TIP3    H159909   5.053   5.335   5.346 -0.2436  0.6338  1.0518
12806TIP3    H259910   5.135   5.417   5.443 -0.0442  0.5670  0.9414
12807TIP3   OH259911   3.819   2.788  15.553  0.0172  0.3084 -0.2575
12807TIP3    H159912   3.846   2.712  15.503 -0.5197 -1.1233  1.5239
12807TIP3    H259913   3.748   2.756  15.609 -0.0853  2.0536  0.6861
12808TIP3   OH259914   5.661   3.830   2.417 -0.9292 -0.3427  0.1202
12808TIP3    H159915   5.693   3.819   2.327  2.0035 -0.0502  1.0156
12808TIP3    H259916   5.595   3.761   2.427 -0.8735 -0.8033 -2.0233
12809TIP3   OH259917   2.918   2.477  17.402  0.2762 -0.0739 -0.8600
12809TIP3    H159918   2.888   2.494  17.313 -1.6615 -0.4087 -0.3362
12809TIP3    H259919   2.852   2.418  17.438 -0.2039  1.7065  1.4399
12810TIP3   OH259920   1.747   4.023   3.903  0.5125  0.0563  0.1866
12810TIP3    H159921   1.826   3.979   3.870  0.9665  1.3025 -0.4797
12810TIP3    H259922   1.771   4.052   3.991 -0.2534 -2.1422  1.1811
12811TIP3   OH259923   3.498   3.019  15.739 -0.4713 -0.0531  0.4033
12811TIP3    H159924   3.540   2.940  15.708  1.8676  1.8971 -1.8582
12811TIP3    H259925   3.418   3.027  15.687 -0.3102 -0.5307  0.0811
12812TIP3   OH259926   5.714   5.505   0.209 -0.2818  0.4104  0.0699
12812TIP3    H159927   5.734   5.421   0.169  0.4565  0.1209  1.0117
12812TIP3    H259928   5.661   5.551   0.144 -1.0499 -0.9301 -0.2864
12813TIP3   OH259929   6.696   4.972  14.901 -0.2363 -0.1596 -0.4212
12813TIP3    H159930   6.756   4.998  14.971 -0.2258 -0.9618 -0.1293
12813TIP3    H259931   6.641   5.049  14.888  0.2390  0.2549 -0.0405
12814TIP3   OH259932   0.106   4.322   6.156  0.1084  0.0472 -0.0846
12814TIP3    H159933   0.198   4.297   6.142  0.1269 -0.3418  0.6632
12814TIP3    H259934   0.067   4.245   6.199 -0.5052  0.3038 -0.1769
12815TIP3   OH259935   1.342   1.406   5.089 -0.0806 -0.2276 -0.5281
12815TIP3    H159936   1.365   1.492   5.123 -2.7451  0.0597  0.8543
12815TIP3    H259937   1.282   1.369   5.154  0.3918 -2.8325 -1.4438
12816TIP3   OH259938   3.347   3.287  12.453  0.2335  0.1698 -0.0543
12816TIP3    H159939   3.341   3.217  12.519  0.6783 -1.4704 -1.6743
12816TIP3    H259940   3.272   3.343  12.471  0.8328  0.3021  2.3995
12817TIP3   OH259941   5.421   0.314   3.795 -0.5506  0.2580  0.9002
12817TIP3    H159942   5.496   0.342   3.744 -0.4566  2.3937  2.1274
12817TIP3    H259943   5.351   0.303   3.731  0.3571 -0.1457 -0.0406
12818TIP3   OH259944   1.821   2.453  12.211 -0.0131 -0.3972 -0.4690
12818TIP3    H159945   1.757   2.450  12.282 -0.4192  1.4468 -0.7065
12818TIP3    H259946   1.900   2.416  12.248 -0.3430  0.1367  0.8117
12819TIP3   OH259947   6.354   2.882  14.937  0.1590  0.1260  0.0218
12819TIP3    H159948   6.335   2.822  15.009  0.3448 -0.0460 -0.0723
12819TIP3    H259949   6.268   2.914  14.909  0.1041  0.4032  0.4991
12820TIP3   OH259950   0.219   5.397   5.532  0.2770 -0.5024 -0.2550
12820TIP3    H159951   0.190   5.452   5.605  4.0419  1.3031  0.0919
12820TIP3    H259952   0.180   5.439   5.455  0.1494  0.4756  0.3174
12821TIP3   OH259953   5.962   1.534  13.967 -0.2149 -0.0406  0.1649
12821TIP3    H159954   5.936   1.448  13.999  0.8425  0.3737  2.3535
12821TIP3    H259955   6.036   1.517  13.908  0.0225 -0.6292  0.6255
12822TIP3   OH259956   5.737   4.737   1.856  0.0100 -0.4306  0.4442
12822TIP3    H159957   5.832   4.732   1.869 -0.1619 -0.7043  1.6905
12822TIP3    H259958   5.723   4.698   1.770  0.9886 -0.7495  0.4162
12823TIP3   OH259959   5.994   3.344  17.250  0.4139 -0.1289 -0.0524
12823TIP3    H159960   6.001   3.282  17.323  0.3018  0.6812  0.6749
12823TIP3    H259961   6.039   3.423  17.282 -2.9205  1.6313  0.7460
12824TIP3   OH259962   2.771   5.529   0.398 -0.2731 -0.1923 -0.2841
12824TIP3    H159963   2.848   5.559   0.350 -0.3899 -0.9841 -0.9864
12824TIP3    H259964   2.747   5.446   0.356 -0.2939 -0.9835  1.2513
12825TIP3   OH259965   4.280   4.761   0.785  0.1808  0.1064  0.9210
12825TIP3    H159966   4.218   4.771   0.857 -0.0579 -1.1663  0.9220
12825TIP3    H259967   4.258   4.831   0.723 -1.8341 -0.8128  0.5253
12826TIP3   OH259968   2.881   6.182   2.645 -0.3567  0.0303 -0.0756
12826TIP3    H159969   2.835   6.135   2.715 -1.6182 -1.7618 -1.9988
12826TIP3    H259970   2.973   6.180   2.672 -0.7363 -1.1702  1.2420
12827TIP3   OH259971   3.920   2.274   0.751  0.3147 -0.2233 -0.0832
12827TIP3    H159972   3.954   2.358   0.721 -1.0073  1.5716  2.9086
12827TIP3    H259973   3.966   2.258   0.834  0.2888 -2.3318 -0.4211
12828TIP3   OH259974   3.868   0.549   5.592  0.0852 -0.1431  0.2730
12828TIP3    H159975   3.886   0.567   5.500 -0.2520  0.0598  0.2440
12828TIP3    H259976   3.854   0.455   5.597 -0.7563 -0.0460 -0.0384
12829TIP3   OH259977   0.470   2.203   6.357 -0.2347  0.0596  0.3092
12829TIP3    H159978   0.516   2.241   6.431 -1.0872  1.1595  0.3052
12829TIP3    H259979   0.377   2.205   6.382 -0.7014  1.7224 -1.2592
12830TIP3   OH259980   5.517   2.171  12.292 -0.0797 -0.3131  0.3496
12830TIP3    H159981   5.525   2.256  12.250  1.7259 -1.0615 -0.9521
12830TIP3    H259982   5.434   2.136  12.261  0.0308  0.2260 -0.5816
12831TIP3   OH259983   5.026   5.461   2.859  0.0364 -0.0857 -0.3184
12831TIP3    H159984   5.030   5.421   2.772  0.5881 -0.3211 -0.1907
12831TIP3    H259985   5.115   5.454   2.892 -0.5072 -1.4008  0.9178
12832TIP3   OH259986   3.644   6.083   4.196 -0.0112 -0.3277 -0.0077
12832TIP3    H159987   3.629   6.162   4.247 -0.5140 -0.0641 -0.5511
12832TIP3    H259988   3.608   6.012   4.249 -0.0230 -0.1298  0.2480
12833TIP3   OH259989   0.253   4.378  17.374 -0.3497  0.3506 -0.3517
12833TIP3    H159990   0.254   4.364  17.469  0.3791 -0.2378 -0.4315
12833TIP3    H259991   0.339   4.414  17.354 -0.1400 -0.4226 -0.9071
12834TIP3   OH259992   4.697   3.504  16.851  0.6926  0.1243  0.1316
12834TIP3    H159993   4.639   3.487  16.776  2.3033  1.1701 -1.4341
12834TIP3    H259994   4.638   3.508  16.926 -0.9780 -1.0988 -1.0309
12835TIP3   OH259995   1.771   3.803   0.715 -0.9009 -0.3774 -0.0193
12835TIP3    H159996   1.683   3.834   0.738 -1.0375 -1.0137  0.3328
12835TIP3    H259997   1.826   3.829   0.788 -1.0362 -1.0253  0.3282
12836TIP3   OH259998   2.269   0.947  13.804  0.3022  0.0667  0.5266
12836TIP3    H159999   2.303   1.025  13.847 -0.6289 -0.1480  1.6843
12836TIP3    H260000   2.199   0.979  13.748  1.8256  0.4105 -1.2903
12837TIP3   OH260001   1.550   5.618   2.111  0.2863  0.4731  0.0137
12837TIP3    H160002   1.543   5.576   2.025  0.7576  0.4790 -0.0265
12837TIP3    H260003   1.556   5.712   2.091  0.2119  0.4885  0.0618
12838TIP3   OH260004   5.491   0.175  11.334 -0.4522 -0.1690  0.2843
12838TIP3    H160005   5.583   0.178  11.360  0.2104  1.5943 -1.9324
12838TIP3    H260006   5.493   0.141  11.245 -1.8696  0.4167  0.0078
12839TIP3   OH260007   6.470   4.405  16.770  0.2721  0.3922 -0.5365
12839TIP3    H160008   6.461   4.335  16.706 -0.3867 -1.5726  1.5595
12839TIP3    H260009   6.560   4.398  16.801 -0.2625 -0.6926  0.8652
12840TIP3   OH260010   1.867   4.120  14.606 -0.7098 -0.5322  0.3587
12840TIP3    H160011   1.909   4.095  14.523 -1.7318  1.4703 -0.8294
12840TIP3    H260012   1.888   4.213  14.617 -2.0725 -0.3127  1.4347
12841TIP3   OH260013   5.333   3.755  17.540  0.4340 -0.3089 -0.1885
12841TIP3    H160014   5.273   3.822  17.507 -0.4893 -0.6667  0.7195
12841TIP3    H260015   5.288   3.717  17.616  1.4651 -1.1347  0.0379
12842TIP3   OH260016   4.964   1.884   0.874  0.2141  0.4409 -0.1212
12842TIP3    H160017   5.048   1.860   0.912 -0.5149  2.0604  2.7990
12842TIP3    H260018   4.919   1.801   0.859  2.1578 -0.4509 -1.5944
12843TIP3   OH260019   5.033   6.544   5.658  0.0200 -0.1167  0.3757
12843TIP3    H160020   5.128   6.541   5.669 -0.1839  0.1027  2.5335
12843TIP3    H260021   5.005   6.624   5.702 -1.1262  0.2460 -0.9144
12844TIP3   OH260022   3.260   2.204   4.240 -0.3803  0.6565  0.1196
12844TIP3    H160023   3.343   2.247   4.260 -0.5527  0.8542  0.4195
12844TIP3    H260024   3.218   2.192   4.325 -0.5866  0.4077 -0.0160
12845TIP3   OH260025   3.360   4.914  14.401 -0.1488  0.3802  0.1621
12845TIP3    H160026   3.303   4.887  14.474 -0.1227 -1.6777 -0.5299
12845TIP3    H260027   3.317   4.880  14.323  1.5074 -0.3992 -0.4629
12846TIP3   OH260028   1.735   1.522  17.108 -0.3133  0.7848  0.1658
12846TIP3    H160029   1.799   1.484  17.048 -0.1417  0.5268  0.5134
12846TIP3    H260030   1.669   1.454  17.119 -1.1207  1.3585 -0.8803
12847TIP3   OH260031   1.814   6.694  11.906 -0.3042 -0.2026  0.0313
12847TIP3    H160032   1.727   6.724  11.881  0.4998  1.4779 -0.9322
12847TIP3    H260033   1.869   6.715  11.831  0.6055 -3.0843 -0.2298
12848TIP3   OH260034   3.090   2.872   6.077 -0.2097 -0.7036  0.2779
12848TIP3    H160035   3.125   2.955   6.110  1.1585 -0.8443 -0.7238
12848TIP3    H260036   3.060   2.826   6.156 -2.5218  1.3427  0.7458
12849TIP3   OH260037   3.058   3.605   0.921 -0.2807  0.1492  0.5511
12849TIP3    H160038   3.016   3.605   0.835 -1.0269 -0.0282  0.9117
12849TIP3    H260039   3.098   3.692   0.929  1.1685 -0.3638 -0.6231
12850TIP3   OH260040   5.235   0.374   1.838  0.1655 -0.4381  0.3580
12850TIP3    H160041   5.279   0.455   1.810  0.1146  0.6188  3.0273
12850TIP3    H260042   5.304   0.307   1.832  1.3668  0.6052  1.6850
12851TIP3   OH260043   3.838   2.316  15.073 -0.4199  0.0703  0.1603
12851TIP3    H160044   3.773   2.261  15.030  0.8967  0.2133 -2.2007
12851TIP3    H260045   3.795   2.401  15.083 -1.0841 -0.2470  0.0366
12852TIP3   OH260046   1.126   5.622   1.374  0.3864  0.0464  0.5961
12852TIP3    H160047   1.130   5.716   1.354  0.5640  0.0549  0.6780
12852TIP3    H260048   1.181   5.581   1.307  0.5958  0.0323  0.7753
12853TIP3   OH260049   4.078   0.790  11.776 -0.6821 -0.9826 -0.2771
12853TIP3    H160050   4.078   0.882  11.800 -0.7656 -1.2701  0.8700
12853TIP3    H260051   4.012   0.750  11.834  0.2918 -1.9941  0.1631
12854TIP3   OH260052   5.343   6.144   1.666 -0.4561 -1.0652  0.4859
12854TIP3    H160053   5.340   6.220   1.724 -3.0153  0.5643 -1.5831
12854TIP3    H260054   5.430   6.148   1.626 -0.9285  1.5926 -0.4871
12855TIP3   OH260055   4.068   3.557   6.348 -0.2349 -0.1703  0.0481
12855TIP3    H160056   4.120   3.602   6.414 -0.6543 -0.4474  0.5744
12855TIP3    H260057   3.979   3.558   6.383 -0.7405  0.9245 -1.1453
12856TIP3   OH260058   4.551   2.361   3.393 -0.0300  0.2768  0.1730
12856TIP3    H160059   4.524   2.449   3.418 -1.0270  0.2345 -0.7157
12856TIP3    H260060   4.647   2.367   3.386  0.0665  0.8805  1.5871
12857TIP3   OH260061   6.302   3.658  13.902 -0.3076  0.0446  0.5540
12857TIP3    H160062   6.224   3.658  13.847  1.2300  3.1193 -1.9468
12857TIP3    H260063   6.310   3.749  13.933  1.5021 -0.5143  1.9155
12858TIP3   OH260064   0.666   5.180  15.822  0.0351 -0.0299  0.3898
12858TIP3    H160065   0.709   5.224  15.748  0.7140  0.4147  1.0404
12858TIP3    H260066   0.636   5.097  15.785 -0.6522  0.6650 -0.6827
12859TIP3   OH260067   5.124   4.314  10.959  0.2977  0.4180  0.3252
12859TIP3    H160068   5.070   4.245  10.997 -1.7992  2.9803  2.3675
12859TIP3    H260069   5.072   4.347  10.886  1.5994 -0.4929 -1.0847
12860TIP3   OH260070   3.815   4.732  14.642 -0.2568  0.0655 -0.2667
12860TIP3    H160071   3.869   4.715  14.565  2.5324 -0.0067  1.5447
12860TIP3    H260072   3.811   4.647  14.687  0.0835  0.5741  0.7595
12861TIP3   OH260073   1.674   2.543   4.038 -0.3522  0.1587 -0.3414
12861TIP3    H160074   1.627   2.611   4.086 -0.6801 -0.2933 -0.0135
12861TIP3    H260075   1.699   2.479   4.105 -0.2192 -0.1410 -0.6729
12862TIP3   OH260076   3.122   2.217   3.906 -0.3297  0.7494  0.2522
12862TIP3    H160077   3.047   2.241   3.962  0.3177  0.2177  1.3932
12862TIP3    H260078   3.083   2.196   3.822 -1.6311 -0.6465  1.1471
12863TIP3   OH260079   5.442   1.082   4.984 -0.0021 -0.7673  0.2528
12863TIP3    H160080   5.455   1.175   4.963  0.4653 -1.0254 -0.6298
12863TIP3    H260081   5.387   1.084   5.063 -1.5669  0.2537 -0.8021
12864TIP3   OH260082   1.025   1.426  15.331  0.2494 -0.4731  0.0582
12864TIP3    H160083   0.972   1.402  15.255  0.0542 -1.3805  0.4700
12864TIP3    H260084   0.967   1.416  15.406  0.5787 -0.0432  0.3798
12865TIP3   OH260085   1.572   3.911   2.915 -0.2686  0.3857 -0.2700
12865TIP3    H160086   1.616   3.924   2.831  0.1761 -1.4033 -0.3693
12865TIP3    H260087   1.617   3.970   2.975  2.9400 -1.8709 -0.1968
12866TIP3   OH260088   0.146   6.288  14.052 -0.0027 -0.1062 -0.4656
12866TIP3    H160089   0.226   6.240  14.029 -0.0145  0.4337 -1.7138
12866TIP3    H260090   0.138   6.356  13.984 -1.5439 -0.1762 -0.3950
12867TIP3   OH260091   1.880   6.060   2.024  0.3348 -0.4453 -0.6388
12867TIP3    H160092   1.874   6.109   1.942  0.2989 -0.2809 -0.5370
12867TIP3    H260093   1.866   6.125   2.093 -2.0288 -0.9792 -0.5459
12868TIP3   OH260094   0.666   4.738  14.677 -0.2529 -0.5400  0.0391
12868TIP3    H160095   0.740   4.774  14.628  0.9671 -0.7344  1.6193
12868TIP3    H260096   0.663   4.791  14.757 -1.0547 -1.2995  0.5295
12869TIP3   OH260097   4.021   1.302  11.735 -0.4625 -0.2034 -0.0737
12869TIP3    H160098   4.009   1.314  11.641  2.6380 -2.4634 -0.9081
12869TIP3    H260099   4.033   1.391  11.769 -1.9529  0.6821 -1.6685
12870TIP3   OH260100   2.553   0.282   1.658  0.1903 -0.1058 -0.0134
12870TIP3    H160101   2.647   0.277   1.637  0.4723  0.3449  1.0692
12870TIP3    H260102   2.524   0.364   1.618  0.3662 -0.0162  0.0394
12871TIP3   OH260103   3.018   3.247  12.916 -0.2544  0.0045 -0.4722
12871TIP3    H160104   2.923   3.256  12.920 -0.1863  0.8366 -0.4924
12871TIP3    H260105   3.034   3.154  12.926 -0.9526  0.0771  1.8094
12872TIP3   OH260106   1.179   6.317  15.057 -0.3247  0.4634  0.0268
12872TIP3    H160107   1.086   6.330  15.072 -0.4022 -0.2006  0.1615
12872TIP3    H260108   1.198   6.231  15.095  0.3345  0.5776 -0.0243
12873TIP3   OH260109   2.184   3.087  14.387  0.2656 -0.3485 -0.2217
12873TIP3    H160110   2.211   3.001  14.420  0.0117 -0.3649 -0.0545
12873TIP3    H260111   2.112   3.068  14.327 -3.7990  0.0480  3.9889
12874TIP3   OH260112   5.250   5.251   6.276 -0.1771 -0.7161 -0.6919
12874TIP3    H160113   5.283   5.317   6.337  1.1647 -1.8496 -0.1416
12874TIP3    H260114   5.155   5.257   6.285 -0.0857  0.8139 -0.3325
12875TIP3   OH260115   2.039   6.137   2.538 -0.0691 -0.5012  0.4372
12875TIP3    H160116   1.996   6.054   2.559 -1.0606  0.3703  1.9543
12875TIP3    H260117   2.026   6.191   2.615  1.5900  0.6790 -0.0753
12876TIP3   OH260118   1.862   4.380   5.051 -0.3091 -0.1794  0.3636
12876TIP3    H160119   1.790   4.424   5.005 -2.0048 -1.9115  1.2041
12876TIP3    H260120   1.893   4.314   4.990  0.7542  0.6886 -0.0697
12877TIP3   OH260121   5.460   0.597   1.624 -0.0510 -0.3887 -0.2817
12877TIP3    H160122   5.531   0.590   1.688  0.8026  2.8071 -0.7338
12877TIP3    H260123   5.480   0.530   1.559  2.0249 -0.2111  0.1011
12878TIP3   OH260124   6.551   5.378  17.028  0.0780  0.7598 -0.2417
12878TIP3    H160125   6.637   5.356  16.992 -0.3001 -0.6691 -0.3355
12878TIP3    H260126   6.493   5.382  16.952 -0.2133  0.3123 -0.0470
12879TIP3   OH260127   5.003   2.749   5.799 -0.0386  0.3181 -0.1571
12879TIP3    H160128   4.950   2.732   5.877 -1.2799  0.2414 -0.9903
12879TIP3    H260129   4.966   2.829   5.761  0.2611  0.1101 -0.9122
12880TIP3   OH260130   5.873   0.797   2.586  0.1958 -0.3639 -0.5671
12880TIP3    H160131   5.778   0.809   2.590  0.3561  1.5242 -1.2405
12880TIP3    H260132   5.892   0.781   2.494  0.5258 -0.8193 -0.4232
12881TIP3   OH260133   0.082   6.010   1.933  0.1928 -0.3693 -0.5290
12881TIP3    H160134  -0.008   5.980   1.950  0.0367  0.8396  1.0595
12881TIP3    H260135   0.088   6.094   1.980  0.9598  1.5156 -3.7308
12882TIP3   OH260136   4.727   5.576   0.397  0.1828  0.9892  0.1320
12882TIP3    H160137   4.669   5.652   0.400  0.4451  1.1838  0.3020
12882TIP3    H260138   4.756   5.572   0.306 -0.5695  0.5254 -0.1062
12883TIP3   OH260139   0.339   6.475  11.880  0.7135 -0.1006 -0.0928
12883TIP3    H160140   0.325   6.415  11.953 -4.3656 -0.6592 -1.1848
12883TIP3    H260141   0.318   6.562  11.915  0.0876 -0.1198 -0.4017
12884TIP3   OH260142   2.588   5.158  14.035 -0.2479  0.6590 -0.3394
12884TIP3    H160143   2.494   5.170  14.025 -0.6888 -1.1454  1.0855
12884TIP3    H260144   2.624   5.170  13.947 -2.2130 -1.8107 -1.6067
12885TIP3   OH260145   3.505   6.201  15.293  0.1341  0.3645 -0.7588
12885TIP3    H160146   3.416   6.234  15.294 -0.0077  0.0813  2.0051
12885TIP3    H260147   3.558   6.271  15.331  1.0207  0.2877 -1.7982
12886TIP3   OH260148   2.584   2.403  16.146  0.1788 -0.4316  0.0566
12886TIP3    H160149   2.610   2.383  16.236 -0.6965 -1.3705  0.1117
12886TIP3    H260150   2.560   2.319  16.109  1.2886 -0.1842 -1.3275
12887TIP3   OH260151   0.250   5.851  11.931  0.5677  0.4204  0.4917
12887TIP3    H160152   0.322   5.842  11.869 -0.6606 -0.6614 -0.8243
12887TIP3    H260153   0.186   5.906  11.886  0.2062  0.6993  1.3232
12888TIP3   OH260154   6.734   3.064   2.729 -0.8129 -0.3060 -0.1584
12888TIP3    H160155   6.743   3.071   2.634 -2.2556 -1.0535 -0.3656
12888TIP3    H260156   6.643   3.085   2.747 -0.1951  1.4116  1.2553
12889TIP3   OH260157   0.976   0.560  15.383 -0.1940 -0.0188  0.4834
12889TIP3    H160158   1.020   0.527  15.461 -3.1078  1.0886  2.8135
12889TIP3    H260159   1.040   0.617  15.341  3.0021 -3.9747 -0.5848
12890TIP3   OH260160   0.350   0.932   4.472 -0.2746  0.4726  0.5145
12890TIP3    H160161   0.318   0.981   4.396  1.9779  0.9846 -0.1735
12890TIP3    H260162   0.424   0.881   4.439 -1.0543 -1.5929  1.7614
12891TIP3   OH260163   4.943   2.670  15.687 -0.1580 -0.3359 -0.3676
12891TIP3    H160164   5.001   2.727  15.738 -1.4841  1.4735 -0.8017
12891TIP3    H260165   4.872   2.648  15.748 -1.5917  1.5917 -1.2439
12892TIP3   OH260166   0.008   2.092  17.678  0.3824  0.2480  0.4898
12892TIP3    H160167   0.086   2.039  17.692  0.7365  1.0279  1.5768
12892TIP3    H260168  -0.006   2.089  17.583  2.2025  0.7514  0.1696
12893TIP3   OH260169   3.020   0.235   5.773 -0.2238  0.0113  0.2747
12893TIP3    H160170   3.102   0.274   5.742 -0.6536  0.8135  0.1194
12893TIP3    H260171   3.007   0.273   5.860  0.1326 -0.9710  0.7700
12894TIP3   OH260172   4.896   1.959  13.499  0.0915  0.0480  0.1152
12894TIP3    H160173   4.854   1.898  13.559 -0.0467  0.0134 -0.0154
12894TIP3    H260174   4.895   2.043  13.546 -1.8506  0.4981 -0.6120
12895TIP3   OH260175   1.171   4.211   3.714  0.1322  0.1298 -0.1782
12895TIP3    H160176   1.103   4.225   3.780 -0.3555  0.8906 -0.8202
12895TIP3    H260177   1.209   4.126   3.735 -1.2358 -0.4488  0.0175
12896TIP3   OH260178   6.077   0.572   5.769 -0.4046  0.2056 -0.0673
12896TIP3    H160179   6.027   0.591   5.690  3.0594 -1.7889 -3.1078
12896TIP3    H260180   6.046   0.486   5.797 -0.5818  0.2187 -0.2199
12897TIP3   OH260181   2.878   6.220  14.610  0.2964 -0.0698 -0.2617
12897TIP3    H160182   2.829   6.139  14.624  1.0848 -0.4088  0.6539
12897TIP3    H260183   2.957   6.209  14.662  0.3394  1.3617  0.0130
12898TIP3   OH260184   6.218   3.407  12.973  0.3511  0.1150  0.7805
12898TIP3    H160185   6.193   3.415  12.881 -0.8934 -0.6878  1.0213
12898TIP3    H260186   6.305   3.366  12.971  0.8529  1.1732 -0.0439
12899TIP3   OH260187   3.133   2.046  13.492  0.0673  0.2466  0.0227
12899TIP3    H160188   3.046   2.084  13.504  0.0455 -0.0723  1.0082
12899TIP3    H260189   3.134   2.016  13.401 -0.5311  1.0321 -0.2510
12900TIP3   OH260190   3.357   1.875   1.698 -0.5753 -0.1882  0.2152
12900TIP3    H160191   3.264   1.853   1.700 -0.6562  0.1784  1.5337
12900TIP3    H260192   3.375   1.895   1.606 -1.4838 -1.5254 -0.2834
12901TIP3   OH260193   6.180   0.383   0.066  0.2260 -0.3095 -0.1433
12901TIP3    H160194   6.155   0.401  -0.025 -0.1024 -0.4500 -0.0808
12901TIP3    H260195   6.260   0.331   0.058  1.1033  1.0100 -0.3277
12902TIP3   OH260196   3.243   4.492   0.668 -0.5510 -0.2449  0.5631
12902TIP3    H160197   3.150   4.515   0.659 -0.8608 -0.3626  2.9232
12902TIP3    H260198   3.286   4.575   0.686 -0.2374 -0.2665 -0.0370
12903TIP3   OH260199   3.231   0.400  14.185 -0.3273  0.2078  0.5825
12903TIP3    H160200   3.258   0.448  14.107 -0.4874 -1.4707 -0.5547
12903TIP3    H260201   3.276   0.316  14.178 -2.3326 -0.9507  0.9497
12904TIP3   OH260202   4.719   4.762  17.066  0.2522  0.2883 -0.3368
12904TIP3    H160203   4.772   4.798  16.996 -0.3906 -1.5598 -1.8796
12904TIP3    H260204   4.719   4.667  17.050 -0.3470 -0.1551  1.8689
12905TIP3   OH260205   1.799   2.451  14.484  0.0750  0.1042 -0.0513
12905TIP3    H160206   1.868   2.386  14.496 -0.9634 -1.3812 -1.5412
12905TIP3    H260207   1.821   2.495  14.402 -0.9147 -0.7216 -0.8061
12906TIP3   OH260208   2.623   1.993  11.024  0.2658 -0.3879 -0.1040
12906TIP3    H160209   2.663   1.969  10.941  0.6235 -1.7626  0.4482
12906TIP3    H260210   2.695   2.024  11.078  0.0814  0.2145 -0.1976
12907TIP3   OH260211   1.187   4.038  16.078  0.5776 -0.5988  0.2509
12907TIP3    H160212   1.094   4.032  16.100  1.2923 -2.2618  3.3803
12907TIP3    H260213   1.223   4.097  16.144  1.7267  0.4973 -1.2825
12908TIP3   OH260214   3.924   5.581  16.452  0.2453 -0.2802  0.4363
12908TIP3    H160215   3.946   5.490  16.470 -1.7920 -0.5608  1.8258
12908TIP3    H260216   3.916   5.622  16.538  1.2874  1.3045 -0.1567
12909TIP3   OH260217   0.663   1.768   5.261 -0.1688  0.0448 -0.1015
12909TIP3    H160218   0.593   1.757   5.197 -0.6267  0.7641  0.2666
12909TIP3    H260219   0.665   1.862   5.279  0.7449  0.0044  0.0617
12910TIP3   OH260220   5.102   3.833  14.094 -0.2851  0.1547  0.2839
12910TIP3    H160221   5.091   3.927  14.106 -0.7800  0.2075 -0.5234
12910TIP3    H260222   5.099   3.820  13.999  1.1605 -0.5130  0.3028
12911TIP3   OH260223   0.232   6.281  17.350 -0.1856  0.2613 -0.0056
12911TIP3    H160224   0.175   6.247  17.281 -0.1401 -0.1169  0.1414
12911TIP3    H260225   0.318   6.246  17.329 -0.0784  0.5292 -0.0183
12912TIP3   OH260226   2.219   4.456  17.108 -0.3942  0.5598 -0.2120
12912TIP3    H160227   2.212   4.552  17.112 -0.3660  0.5231  1.1470
12912TIP3    H260228   2.133   4.425  17.135 -0.0973  0.1964  0.3264
12913TIP3   OH260229   1.665   0.006   6.124 -0.9794 -0.0519  0.7980
12913TIP3    H160230   1.729  -0.032   6.184  0.5138 -1.1336 -1.3233
12913TIP3    H260231   1.639   0.089   6.165  0.3770 -0.4723  2.6255
12914TIP3   OH260232   4.825   5.351  15.249 -0.2805 -0.4336 -0.3549
12914TIP3    H160233   4.892   5.286  15.230 -0.3060 -1.0074  1.3238
12914TIP3    H260234   4.872   5.421  15.294 -0.6671 -0.5050  0.1756
12915TIP3   OH260235   2.499   5.012  15.995  0.0882 -0.1413 -0.0242
12915TIP3    H160236   2.431   5.078  15.985  1.6921  1.3303 -2.1742
12915TIP3    H260237   2.544   5.037  16.076 -0.0648  0.6854 -0.1841
12916TIP3   OH260238   0.555   5.350  14.057  0.3407 -0.3752  0.1151
12916TIP3    H160239   0.631   5.297  14.083  0.8880 -0.4727 -1.5228
12916TIP3    H260240   0.479   5.297  14.081  0.6722  0.2494  2.9353
12917TIP3   OH260241   3.265   3.406   1.631  0.2120  0.1232 -0.6831
12917TIP3    H160242   3.227   3.377   1.548 -0.7042  2.4606 -1.1790
12917TIP3    H260243   3.322   3.479   1.606 -0.7300  1.4137  0.7902
12918TIP3   OH260244   2.702   4.411  13.105  0.3751 -0.9092 -0.4873
12918TIP3    H160245   2.656   4.328  13.095  0.9362 -1.1804 -0.8340
12918TIP3    H260246   2.720   4.417  13.199  0.6168 -1.3275 -0.5071
12919TIP3   OH260247   1.026   6.517   0.579 -0.1969  0.4265 -0.2122
12919TIP3    H160248   0.940   6.538   0.615 -0.0635 -2.0135  1.8017
12919TIP3    H260249   1.007   6.464   0.501 -0.5544 -0.1551  0.2612
12920TIP3   OH260250   4.944   1.499   5.438 -0.1365 -0.2621  0.1647
12920TIP3    H160251   4.875   1.463   5.383  0.0473 -0.1273 -0.1569
12920TIP3    H260252   4.951   1.438   5.511 -0.9453 -0.0059  0.4617
12921TIP3   OH260253   1.326   1.484  12.362  0.4143  0.6506  0.5557
12921TIP3    H160254   1.405   1.464  12.313 -0.0739  1.4815 -0.6124
12921TIP3    H260255   1.336   1.436  12.444  0.9970 -1.2361 -0.5731
12922TIP3   OH260256   4.480   4.466  17.140 -0.1523  0.4222  0.4479
12922TIP3    H160257   4.501   4.444  17.049  1.5970  1.3545  0.5785
12922TIP3    H260258   4.419   4.398  17.168 -0.6373  0.0435 -1.3773
12923TIP3   OH260259   0.638   4.632  11.885  0.2304  0.3029 -0.3247
12923TIP3    H160260   0.623   4.538  11.875 -0.4926  0.2124  1.2851
12923TIP3    H260261   0.551   4.670  11.894  0.5463  1.0383 -0.2697
12924TIP3   OH260262   1.088   6.638  11.883 -0.2463 -0.1064 -0.4728
12924TIP3    H160263   1.119   6.680  11.963  0.4739 -1.3428 -0.0816
12924TIP3    H260264   1.099   6.544  11.899  0.7141 -0.3505 -2.3374
12925TIP3   OH260265   1.027   1.882   6.155  0.1686 -0.4787  0.2431
12925TIP3    H160266   1.077   1.801   6.147  1.2844  0.1245  0.8561
12925TIP3    H260267   0.947   1.865   6.106  0.6671 -1.7122 -0.2012
12926TIP3   OH260268   1.679   1.973  13.446  0.3136 -0.0353  0.5790
12926TIP3    H160269   1.761   1.925  13.458 -0.7748 -1.6510  1.9903
12926TIP3    H260270   1.678   2.037  13.518  0.8522  0.8443 -0.1595
12927TIP3   OH260271   0.761   5.184   1.041 -0.3037  0.1599 -0.2902
12927TIP3    H160272   0.675   5.155   1.072  0.0574 -0.2140  0.3903
12927TIP3    H260273   0.816   5.106   1.047  0.3334  0.6341  0.2314
12928TIP3   OH260274   5.686   0.431   4.288 -0.0038 -0.1565 -0.4534
12928TIP3    H160275   5.733   0.382   4.221 -0.5483  0.2568 -1.1519
12928TIP3    H260276   5.598   0.395   4.287 -0.0582 -0.0375 -0.0648
12929TIP3   OH260277   1.135   4.999   4.127  0.1118  0.5804 -0.4874
12929TIP3    H160278   1.212   5.038   4.169 -0.7568 -0.7832  2.6993
12929TIP3    H260279   1.167   4.918   4.088  0.3878  0.2035  0.4968
12930TIP3   OH260280   2.798   0.199  14.779  0.2362  0.0690  0.8772
12930TIP3    H160281   2.748   0.260  14.832 -0.6603 -0.7883  1.0410
12930TIP3    H260282   2.848   0.148  14.843  2.8123  2.0945  0.6607
12931TIP3   OH260283   2.434   1.695   5.486  0.1578  0.7816  0.3880
12931TIP3    H160284   2.383   1.614   5.494  2.0226 -0.3834  0.9979
12931TIP3    H260285   2.369   1.765   5.496 -1.2378 -0.6210  1.6949
12932TIP3   OH260286   0.464   4.385   0.605 -0.7458  0.5086 -0.1261
12932TIP3    H160287   0.421   4.300   0.607  0.2742 -0.0827 -1.6104
12932TIP3    H260288   0.548   4.368   0.562  0.0463  2.0229  0.7509
12933TIP3   OH260289   0.837   1.398  11.836  0.1582 -0.0069  0.3658
12933TIP3    H160290   0.880   1.328  11.787 -0.0121  0.1802 -0.0584
12933TIP3    H260291   0.786   1.445  11.770  1.2373  1.2760  0.4061
12934TIP3   OH260292   6.660   6.559   2.703  0.6118 -0.5595  0.6333
12934TIP3    H160293   6.565   6.549   2.696  0.8308 -1.6059 -1.4434
12934TIP3    H260294   6.690   6.475   2.738  0.8333 -0.5023  0.5809
12935TIP3   OH260295   6.721   0.716   0.435  0.1689  0.3085  0.3743
12935TIP3    H160296   6.649   0.779   0.430  0.6605  0.9549  1.0402
12935TIP3    H260297   6.687   0.636   0.394 -0.2621  1.1866 -1.0524
12936TIP3   OH260298   1.490   1.038  15.231 -0.5011  0.7073  0.4012
12936TIP3    H160299   1.480   1.058  15.324  2.3630 -2.2659  1.5287
12936TIP3    H260300   1.446   0.954  15.220  2.5902 -1.0238  0.1744
12937TIP3   OH260301   0.071   5.790  16.000  0.3953  0.0830  0.0837
12937TIP3    H160302   0.048   5.844  16.076 -0.0337 -0.3711  0.2907
12937TIP3    H260303   0.155   5.750  16.023  1.5260  1.8825 -0.7462
12938TIP3   OH260304   5.617   2.939   2.107  0.0294 -0.3974  0.2148
12938TIP3    H160305   5.615   2.897   2.193 -0.6017 -1.5093 -0.3219
12938TIP3    H260306   5.525   2.954   2.085  0.2296  2.3557  0.8578
12939TIP3   OH260307   6.293   5.229  12.437 -1.0143  0.4823  0.1333
12939TIP3    H160308   6.207   5.187  12.429 -0.6871 -0.2460  0.3263
12939TIP3    H260309   6.273   5.320  12.458 -1.8133  1.1731 -3.0814
12940TIP3   OH260310   1.055   4.567  15.352  0.0349 -0.1268  0.0943
12940TIP3    H160311   1.031   4.625  15.425 -1.4856  0.5042 -0.8618
12940TIP3    H260312   0.989   4.497  15.354 -0.1584  0.0209 -0.7944
12941TIP3   OH260313   4.763   6.036  14.043 -0.2347 -0.1501  0.7090
12941TIP3    H160314   4.767   5.940  14.039 -0.7923 -0.1410 -0.9555
12941TIP3    H260315   4.700   6.060  13.976  0.4789  1.4292  0.5508
12942TIP3   OH260316   5.643   2.835   5.666 -0.2457  0.6985 -0.2345
12942TIP3    H160317   5.709   2.869   5.605 -1.1962  2.3334 -0.4176
12942TIP3    H260318   5.571   2.898   5.660 -0.8207  0.2870  1.7655
12943TIP3   OH260319   3.390   0.644  16.746 -0.3347 -0.1255  0.1898
12943TIP3    H160320   3.387   0.554  16.779 -2.4342 -0.1972 -0.0273
12943TIP3    H260321   3.360   0.697  16.819  0.5990  0.3841  0.2151
12944TIP3   OH260322   3.880   1.671   1.685 -0.3192  0.0700  0.0090
12944TIP3    H160323   3.820   1.731   1.730 -0.3330  1.1115 -1.3392
12944TIP3    H260324   3.878   1.699   1.593  1.2671 -0.6744 -0.2895
12945TIP3   OH260325   4.093   2.849  12.252 -0.3561  0.7465 -0.4806
12945TIP3    H160326   4.012   2.899  12.244 -0.1891  0.8014 -2.4206
12945TIP3    H260327   4.160   2.906  12.213 -0.0151 -0.5702 -1.9363
12946TIP3   OH260328   4.746   1.217   3.188  0.1948  0.6369 -0.5829
12946TIP3    H160329   4.707   1.290   3.141  0.3141  0.5206 -0.8677
12946TIP3    H260330   4.673   1.178   3.237  0.0067  0.5892 -0.8944
12947TIP3   OH260331   2.499   0.411  14.412 -0.0567 -0.5303  0.3673
12947TIP3    H160332   2.483   0.483  14.352  2.5252  0.3098  0.5404
12947TIP3    H260333   2.590   0.385  14.395  0.2267 -1.3812  2.7010
12948TIP3   OH260334   3.516   1.451  11.268  0.7089 -0.7929  0.1391
12948TIP3    H160335   3.583   1.409  11.321  2.1380  1.1643  0.0128
12948TIP3    H260336   3.560   1.475  11.187 -0.7911 -1.5214 -0.9471
12949TIP3   OH260337   1.959   2.986   5.996 -0.3179 -0.0977  0.3117
12949TIP3    H160338   1.904   2.912   6.023 -0.4765  0.0456  0.3847
12949TIP3    H260339   1.963   3.042   6.074 -0.7678  0.3151  0.0396
12950TIP3   OH260340   3.990   2.313   5.530 -0.0587  0.0945  0.2049
12950TIP3    H160341   4.066   2.256   5.544 -0.4352 -0.1669  1.3085
12950TIP3    H260342   3.948   2.317   5.616 -0.7615  1.0078 -0.1721
12951TIP3   OH260343   2.919   4.283  13.661  0.1303 -0.1677 -0.2531
12951TIP3    H160344   2.923   4.376  13.636 -2.5531  0.0772  0.0049
12951TIP3    H260345   2.975   4.278  13.739  0.2148  1.2528 -0.1859
12952TIP3   OH260346   1.409   5.179   1.731 -0.1020 -0.4623  0.0211
12952TIP3    H160347   1.493   5.218   1.754  0.8932 -2.5382  0.1043
12952TIP3    H260348   1.417   5.160   1.637 -0.7917  0.0345 -0.1451
12953TIP3   OH260349   3.464   4.138  11.693 -0.3960 -0.2783  0.1838
12953TIP3    H160350   3.369   4.137  11.699 -0.4095  1.1383  0.6304
12953TIP3    H260351   3.490   4.046  11.693 -1.8028 -0.7042 -0.8017
12954TIP3   OH260352   0.323   4.008  15.368 -0.0559 -0.5000 -0.3744
12954TIP3    H160353   0.245   3.957  15.349 -0.5286  0.4121 -0.9323
12954TIP3    H260354   0.395   3.957  15.330 -0.4424 -1.0196 -0.4218
12955TIP3   OH260355   5.830   5.527  11.394 -0.5946  0.0739  0.6587
12955TIP3    H160356   5.897   5.468  11.426 -0.4034  0.0741  0.2629
12955TIP3    H260357   5.765   5.470  11.352 -0.0597  0.1861 -0.3578
12956TIP3   OH260358   5.180   4.178  17.665 -0.1550  0.0003  0.0001
12956TIP3    H160359   5.137   4.183  17.750 -0.0372  3.1842  0.0249
12956TIP3    H260360   5.119   4.220  17.604  0.9623  0.4373 -0.8687
12957TIP3   OH260361   1.954   4.935  15.830 -0.3821 -0.0583  0.0041
12957TIP3    H160362   1.994   4.859  15.872 -0.3921 -0.7333 -1.1681
12957TIP3    H260363   1.869   4.945  15.873 -0.2834 -0.5553  0.3229
12958TIP3   OH260364   4.554   6.444   5.039 -0.1241 -0.1594  0.2635
12958TIP3    H160365   4.645   6.423   5.060 -0.2124 -0.4247  0.3842
12958TIP3    H260366   4.517   6.477   5.120 -0.2837 -0.5658  0.3607
12959TIP3   OH260367   1.925   3.938  11.382  0.3753  0.3341 -0.4250
12959TIP3    H160368   1.848   3.986  11.414 -1.5003 -0.9991 -2.6315
12959TIP3    H260369   1.892   3.851  11.363  2.6771 -0.5360 -0.7113
12960TIP3   OH260370   4.938   5.286  16.176  0.2063 -0.1319  0.3793
12960TIP3    H160371   4.980   5.362  16.137  0.7566 -0.6169  0.0134
12960TIP3    H260372   4.899   5.239  16.102  1.0547 -0.9340  0.4244
12961TIP3   OH260373   2.816   3.181  16.141  0.4908 -0.0981 -0.3409
12961TIP3    H160374   2.741   3.121  16.137  1.2770 -1.1420  0.0650
12961TIP3    H260375   2.877   3.147  16.076  0.7500  0.5607 -0.4504
12962TIP3   OH260376   2.415   0.665   5.139 -0.3316  0.0433 -0.0450
12962TIP3    H160377   2.321   0.661   5.154 -0.3174 -1.6220 -0.2057
12962TIP3    H260378   2.448   0.582   5.173  1.0931  0.6311  0.0592
12963TIP3   OH260379   6.150   2.514   1.207 -0.6675  0.0592 -0.5754
12963TIP3    H160380   6.128   2.566   1.130 -1.1392 -0.4260 -0.7779
12963TIP3    H260381   6.232   2.471   1.186 -0.4696  0.4249 -0.5544
12964TIP3   OH260382   4.694   3.992   3.204 -0.0411 -0.0960 -0.4082
12964TIP3    H160383   4.701   3.986   3.109 -0.5610 -0.1510 -0.4454
12964TIP3    H260384   4.600   3.989   3.222  0.0841 -1.2456  0.1817
12965TIP3   OH260385   0.742   6.253  17.484 -0.1688  0.2043  0.1439
12965TIP3    H160386   0.775   6.262  17.573  0.7706  1.7700 -0.3311
12965TIP3    H260387   0.819   6.237  17.430 -0.5123  0.9573 -0.6010
12966TIP3   OH260388   0.817   4.728  12.461 -0.2203  0.3388 -0.3575
12966TIP3    H160389   0.795   4.740  12.368 -1.8752 -1.5999 -0.2696
12966TIP3    H260390   0.867   4.647  12.463  1.2341  1.2131  0.3038
12967TIP3   OH260391   4.139   1.713   5.926 -0.1126 -0.8981  0.0259
12967TIP3    H160392   4.124   1.620   5.943  0.2857 -0.8949  0.4444
12967TIP3    H260393   4.230   1.717   5.896  0.2853 -0.5123  1.2204
12968TIP3   OH260394   2.532   2.705  16.129 -0.8708  0.0829  0.0691
12968TIP3    H160395   2.525   2.610  16.141 -0.6399  0.1000  0.3442
12968TIP3    H260396   2.624   2.720  16.108 -0.7104  0.3321  0.8953
12969TIP3   OH260397   3.791   4.020   5.655 -0.6590  0.5286 -0.3123
12969TIP3    H160398   3.731   4.091   5.677 -2.0602 -0.4219 -0.9734
12969TIP3    H260399   3.781   4.008   5.561 -1.0379 -1.0675 -0.0973
12970TIP3   OH260400   6.528   2.493   0.737 -0.8615 -0.0247  0.0286
12970TIP3    H160401   6.517   2.398   0.728 -2.7657  0.2833 -1.6119
12970TIP3    H260402   6.601   2.514   0.680  0.0366 -0.5528  0.9427
12971TIP3   OH260403   4.968   0.865   0.643  0.0360  0.0602  0.0173
12971TIP3    H160404   4.970   0.818   0.560 -0.0621  0.4529 -0.2130
12971TIP3    H260405   4.902   0.820   0.696  1.2689 -1.2192  0.5132
12972TIP3   OH260406   2.376   1.082  11.423  0.1334 -0.7869  0.0086
12972TIP3    H160407   2.377   0.993  11.386 -0.7783 -1.1672  0.8637
12972TIP3    H260408   2.348   1.137  11.350  1.3311 -1.0920 -0.7158
12973TIP3   OH260409   5.891   0.323  15.393 -0.2375  0.0044  0.1495
12973TIP3    H160410   5.855   0.412  15.396  2.5014  1.3339 -1.9909
12973TIP3    H260411   5.829   0.275  15.338 -1.7750  0.5223  1.3531
12974TIP3   OH260412   1.382   0.386  13.214  0.6774 -0.4719  0.9371
12974TIP3    H160413   1.353   0.458  13.158 -0.9767 -1.9707 -0.2444
12974TIP3    H260414   1.343   0.405  13.299  0.9724  0.4463  0.8755
12975TIP3   OH260415   5.190   6.222   2.108  0.2785 -0.1400 -0.7402
12975TIP3    H160416   5.189   6.136   2.150 -1.0041  0.6814  1.0315
12975TIP3    H260417   5.233   6.207   2.024  0.6392 -2.3792 -0.2167
12976TIP3   OH260418   5.083   5.570   4.518  0.2248  0.0071 -0.1180
12976TIP3    H160419   5.024   5.530   4.582  2.1742 -0.7485  1.3336
12976TIP3    H260420   5.145   5.621   4.571  0.4771  1.3738 -1.6196
12977TIP3   OH260421   4.040   1.288  14.264  0.1553 -0.0691 -0.0305
12977TIP3    H160422   4.031   1.285  14.359  0.3855  0.5756  0.0151
12977TIP3    H260423   3.973   1.227  14.232 -0.3235  0.1588  0.5195
12978TIP3   OH260424   0.823   6.620  13.274 -0.0499 -0.6019 -0.5934
12978TIP3    H160425   0.786   6.695  13.319  0.9406 -1.1881  1.2760
12978TIP3    H260426   0.747   6.579  13.231 -0.5672  1.5106 -1.8151
12979TIP3   OH260427   6.360   4.455   5.251  0.3091 -0.2996 -0.3024
12979TIP3    H160428   6.299   4.466   5.324  0.1833 -1.1404 -0.2703
12979TIP3    H260429   6.387   4.364   5.256  1.8218  0.1188 -0.1257
12980TIP3   OH260430   5.103   5.068   1.143  0.4067 -0.0763  0.1162
12980TIP3    H160431   5.052   5.002   1.095 -1.6083  0.8102  0.9207
12980TIP3    H260432   5.099   5.146   1.087  1.7275 -0.2572 -0.2516
12981TIP3   OH260433   4.190   5.187  14.146 -0.2939  0.2555 -0.7141
12981TIP3    H160434   4.163   5.149  14.062  1.3595  0.3488 -1.3105
12981TIP3    H260435   4.243   5.120  14.187  1.4292  1.3050 -1.1220
12982TIP3   OH260436   4.211   5.065   4.057  0.5065 -0.8323 -0.0702
12982TIP3    H160437   4.121   5.095   4.051  0.4538 -1.2446 -2.0602
12982TIP3    H260438   4.243   5.101   4.140 -1.1037  0.3215  0.1006
12983TIP3   OH260439   1.829   1.879   0.003  0.4786 -0.0369 -0.3987
12983TIP3    H160440   1.775   1.806  -0.026  2.7153 -1.8551 -0.3404
12983TIP3    H260441   1.848   1.928  -0.077 -0.0817 -0.2012 -0.6373
12984TIP3   OH260442   3.535   5.304   3.095 -0.4551 -0.2927 -0.3701
12984TIP3    H160443   3.506   5.294   3.185  1.9973 -0.9509  0.4218
12984TIP3    H260444   3.485   5.239   3.046 -1.3837 -0.3360  0.6184
12985TIP3   OH260445   1.223   2.507   5.204 -1.0752 -0.3832  0.5012
12985TIP3    H160446   1.308   2.476   5.234 -0.5514  0.4498 -0.0962
12985TIP3    H260447   1.168   2.505   5.282 -0.0993  0.5112  1.2301
12986TIP3   OH260448   0.637   3.753   6.195  0.8049 -0.2406  0.6700
12986TIP3    H160449   0.700   3.769   6.125 -1.4786  0.2011 -1.3999
12986TIP3    H260450   0.604   3.840   6.219 -1.9110 -0.6622 -1.1852
12987TIP3   OH260451   2.065   2.918  14.865  0.2144 -0.3287  0.2054
12987TIP3    H160452   2.036   2.980  14.798 -2.1040 -1.6691 -0.1389
12987TIP3    H260453   1.988   2.906  14.921  1.1382 -1.6084  1.2450
12988TIP3   OH260454   4.803   3.718   3.249 -0.2446  0.0236  0.7144
12988TIP3    H160455   4.764   3.795   3.207 -0.9079 -0.7863 -0.1850
12988TIP3    H260456   4.738   3.649   3.238  1.6725 -1.5968 -1.4726
12989TIP3   OH260457   4.347   1.506  14.460 -0.4104  0.7096  0.3685
12989TIP3    H160458   4.389   1.590  14.479 -0.1742  1.1405 -1.8489
12989TIP3    H260459   4.420   1.447  14.438 -0.7098  0.4193  0.1479
12990TIP3   OH260460   2.565   6.169   5.843  0.1751 -0.2551  0.6218
12990TIP3    H160461   2.524   6.211   5.919 -0.2301 -1.0186  0.8364
12990TIP3    H260462   2.566   6.237   5.776 -2.6506 -0.5344  0.1679
12991TIP3   OH260463   5.063   5.002  11.082  0.0083 -0.6418 -0.4320
12991TIP3    H160464   5.119   5.067  11.040  0.2764  0.8002  2.0028
12991TIP3    H260465   4.977   5.043  11.087 -1.0880 -2.3412 -2.9523
12992TIP3   OH260466   2.943   4.391   0.112  0.4559  0.3599  0.2034
12992TIP3    H160467   3.024   4.432   0.141 -0.4701  1.1108  1.8410
12992TIP3    H260468   2.938   4.310   0.163 -0.1071  0.6080  0.5464
12993TIP3   OH260469   0.945   0.251   1.692  0.2373  0.3385 -0.2092
12993TIP3    H160470   1.005   0.308   1.740  0.1409  2.3759 -2.3414
12993TIP3    H260471   1.001   0.179   1.662  0.9902  0.7099  0.2576
12994TIP3   OH260472   5.396   5.916   6.541 -0.2832  0.0332  0.4726
12994TIP3    H160473   5.365   5.910   6.451  1.1850  1.7823 -0.2197
12994TIP3    H260474   5.393   5.826   6.575 -2.5350 -0.3847 -0.7036
12995TIP3   OH260475   2.455   5.922   4.924  0.2451 -0.0289  0.2564
12995TIP3    H160476   2.418   5.931   4.837  0.7227  0.9238  0.1282
12995TIP3    H260477   2.414   5.844   4.961 -0.3889 -0.1107 -0.6012
12996TIP3   OH260478   0.443   1.288   2.177  0.1808  0.3240  0.7553
12996TIP3    H160479   0.448   1.251   2.089 -1.6933  1.9833 -0.1242
12996TIP3    H260480   0.526   1.334   2.188  0.5646 -0.1645 -0.0217
12997TIP3   OH260481   0.687   4.279   2.928  0.0834  0.1322  0.1039
12997TIP3    H160482   0.642   4.300   2.847 -1.0453 -0.4760  0.5558
12997TIP3    H260483   0.655   4.192   2.953  0.7746  0.0953  0.9477
12998TIP3   OH260484   2.516   3.697  13.430 -0.0593  0.3919 -0.4578
12998TIP3    H160485   2.507   3.619  13.374  1.5097  1.1210 -1.7738
12998TIP3    H260486   2.490   3.770  13.374  0.9891  1.0834 -0.0641
12999TIP3   OH260487   2.124   3.652   2.026  0.0167  0.3161 -0.0760
12999TIP3    H160488   2.181   3.611   2.091  0.4589 -0.2035 -0.7662
12999TIP3    H260489   2.090   3.579   1.974  1.7789  0.8162 -2.1180
13000TIP3   OH260490   2.542   4.934  15.169 -0.0395  0.3591 -0.0298
13000TIP3    H160491   2.529   4.925  15.263 -0.2301 -0.4222 -0.1282
13000TIP3    H260492   2.539   4.845  15.135  0.4053  0.6023 -0.7306
13001TIP3   OH260493   1.547   4.152   1.482  0.4710  0.4284 -0.0766
13001TIP3    H160494   1.518   4.063   1.500 -0.3038  1.2020  3.2536
13001TIP3    H260495   1.642   4.145   1.476  0.5372 -0.5254  1.3929
13002TIP3   OH260496   2.199   2.808  11.104  0.2036 -0.4639  0.0328
13002TIP3    H160497   2.232   2.718  11.095 -0.1665 -0.7053  1.0023
13002TIP3    H260498   2.119   2.799  11.155  0.3782  0.4632  0.4892
13003TIP3   OH260499   5.269   5.408   2.993 -0.3888 -0.2260  0.4166
13003TIP3    H160500   5.324   5.465   3.046 -0.4351  0.2275 -0.0240
13003TIP3    H260501   5.330   5.362   2.935 -0.3700 -0.4995  0.6496
13004TIP3   OH260502   2.625   4.945   0.964 -0.0894 -0.5176 -0.1997
13004TIP3    H160503   2.610   4.952   1.059  0.4469  0.9511 -0.2037
13004TIP3    H260504   2.538   4.952   0.926 -0.1165  1.2170  0.0977
13005TIP3   OH260505   3.290   0.918   3.359  0.4702  0.0064  0.0924
13005TIP3    H160506   3.217   0.913   3.298  0.3257 -2.3145  0.3469
13005TIP3    H260507   3.274   0.998   3.409 -0.5540  0.8178 -1.4520
13006TIP3   OH260508   0.518   5.152  11.322 -0.6466 -0.0781 -0.1380
13006TIP3    H160509   0.528   5.209  11.246 -0.1881 -0.8148 -0.6410
13006TIP3    H260510   0.427   5.123  11.319 -1.7002  2.6023  1.5665
13007TIP3   OH260511   1.424   4.302  15.209  0.0074 -0.0500 -0.0714
13007TIP3    H160512   1.477   4.297  15.129 -0.2387  1.6037 -0.3785
13007TIP3    H260513   1.393   4.392  15.211 -0.1909 -0.1236  1.7791
13008TIP3   OH260514   5.518   0.564  13.857 -0.3304 -0.1797 -0.4145
13008TIP3    H160515   5.455   0.620  13.810  1.3054  0.3661 -2.0657
13008TIP3    H260516   5.577   0.626  13.900 -0.7448 -0.6915  0.9335
13009TIP3   OH260517   0.776   6.547   2.199  0.0630  0.0234  0.1216
13009TIP3    H160518   0.689   6.588   2.206 -0.1652 -0.2374 -1.0168
13009TIP3    H260519   0.805   6.538   2.290 -2.1106 -2.0219  0.7275
13010TIP3   OH260520   4.772   2.659  13.707  0.0426  0.0103 -0.3466
13010TIP3    H160521   4.787   2.730  13.645  2.3661  0.7115  0.8945
13010TIP3    H260522   4.740   2.703  13.786  0.9743 -0.3512  0.2497
13011TIP3   OH260523   3.766   1.280  11.141  0.5131  0.8523 -0.2708
13011TIP3    H160524   3.793   1.189  11.153  1.8168  0.9780 -1.9489
13011TIP3    H260525   3.673   1.280  11.164 -0.3315 -1.5941 -3.0971
13012TIP3   OH260526   0.770   1.014  15.756 -0.3767 -0.0443 -0.2938
13012TIP3    H160527   0.795   0.950  15.690 -0.3349 -0.0683 -0.2549
13012TIP3    H260528   0.675   1.024  15.745 -0.5583 -0.8956  0.3910
13013TIP3   OH260529   3.234   2.432  13.403  0.3848  0.1225 -0.1811
13013TIP3    H160530   3.151   2.437  13.355  0.6948  0.0244 -0.7429
13013TIP3    H260531   3.299   2.413  13.335  0.6263 -1.5804  0.4816
13014TIP3   OH260532   2.182   2.791  13.852  0.5555  0.0497 -0.0061
13014TIP3    H160533   2.253   2.789  13.789  0.4054 -3.1054 -0.2423
13014TIP3    H260534   2.119   2.853  13.816  1.8161  0.5807 -1.3796
13015TIP3   OH260535   0.957   3.985  13.133  0.6966  0.2386  0.4616
13015TIP3    H160536   0.924   3.902  13.098 -0.1442  0.2233  1.2340
13015TIP3    H260537   0.911   4.052  13.084 -0.4556  0.2173  1.4453
13016TIP3   OH260538   2.500   0.312   6.187 -0.3927 -0.0093  0.1409
13016TIP3    H160539   2.554   0.312   6.108  0.6265  2.5752  0.7270
13016TIP3    H260540   2.495   0.404   6.212  0.2863 -0.8074  3.7356
13017TIP3   OH260541   4.052   1.458  12.659  0.5993  0.2093 -0.0842
13017TIP3    H160542   3.957   1.454  12.647  0.6591 -0.1895 -0.4619
13017TIP3    H260543   4.073   1.551  12.652  0.2414  0.2974 -0.0275
13018TIP3   OH260544   4.406   0.788  14.847 -0.0871  0.3192 -0.1480
13018TIP3    H160545   4.348   0.721  14.883  0.7658 -0.2135  0.2594
13018TIP3    H260546   4.419   0.850  14.919 -0.3777  0.6020 -0.3327
13019TIP3   OH260547   6.398   1.429   5.847  0.0834 -0.1807  0.3780
13019TIP3    H160548   6.414   1.498   5.912  2.4616  0.3538 -0.6851
13019TIP3    H260549   6.328   1.465   5.792 -0.1312  0.4914  1.0616
13020TIP3   OH260550   6.399   5.492   0.178  0.3857 -0.3804 -1.0373
13020TIP3    H160551   6.324   5.546   0.155 -1.7346 -3.2954 -1.6351
13020TIP3    H260552   6.372   5.445   0.257  2.5912  0.1967  0.1472
13021TIP3   OH260553   6.402   3.232  12.728 -0.4042 -0.2856  1.0001
13021TIP3    H160554   6.467   3.168  12.697  0.1446  0.5002  0.4956
13021TIP3    H260555   6.385   3.207  12.819  0.3016 -0.7447  1.0123
13022TIP3   OH260556   3.735   2.216  16.040 -0.0518 -0.1066  0.3452
13022TIP3    H160557   3.708   2.151  15.975 -0.3994 -0.6166  0.9896
13022TIP3    H260558   3.815   2.254  16.003 -0.9924  0.6089 -1.0412
13023TIP3   OH260559   6.031   5.723  12.513 -0.1062 -0.5067 -0.6733
13023TIP3    H160560   5.950   5.674  12.502 -0.3764  0.1501 -1.7451
13023TIP3    H260561   6.062   5.738  12.424  1.1597 -0.6812 -0.2739
13024TIP3   OH260562   2.457   1.373   1.052 -0.7059 -0.1007  0.0697
13024TIP3    H160563   2.441   1.467   1.064  0.5957  0.3819 -1.5665
13024TIP3    H260564   2.439   1.357   0.960 -0.3047 -1.3340  0.1817
13025TIP3   OH260565   2.544   1.661  12.102 -0.2803  0.4820  0.5406
13025TIP3    H160566   2.565   1.648  12.009 -0.1276 -1.0942  0.7708
13025TIP3    H260567   2.615   1.617  12.149 -0.7629  0.6068  1.3944
13026TIP3   OH260568   2.628   3.323   3.577 -0.1274  0.4168 -0.2634
13026TIP3    H160569   2.606   3.231   3.586  2.0615 -0.1682 -0.1868
13026TIP3    H260570   2.681   3.343   3.655  1.5861  0.9761 -1.4989
13027TIP3   OH260571   5.951   6.652   5.914 -0.0631 -0.0903  0.1232
13027TIP3    H160572   5.934   6.572   5.864 -0.1647  0.4881 -0.8040
13027TIP3    H260573   5.982   6.714   5.848  1.2515  0.2620  1.0348
13028TIP3   OH260574   6.693   4.291  13.187  0.2458  0.1163  0.6037
13028TIP3    H160575   6.609   4.313  13.227  0.2645  3.4239 -0.8734
13028TIP3    H260576   6.670   4.264  13.098  0.6396 -0.9182  0.8056
13029TIP3   OH260577   4.895   6.471  13.502  0.2971 -0.0553  0.7029
13029TIP3    H160578   4.808   6.434  13.520  0.5029  0.0902  2.1080
13029TIP3    H260579   4.955   6.398  13.517  0.4095 -0.2359 -0.5570
13030TIP3   OH260580   3.144   3.999  11.879 -0.3477 -0.1634  0.3861
13030TIP3    H160581   3.131   4.057  11.803  0.8390 -0.7489 -0.2957
13030TIP3    H260582   3.222   3.948  11.857 -1.7112 -2.5060  0.6526
13031TIP3   OH260583   5.370   4.113   1.747 -0.2595 -0.4662 -0.4993
13031TIP3    H160584   5.280   4.095   1.771  0.1324  1.0720  2.5474
13031TIP3    H260585   5.415   4.029   1.754 -0.6312 -0.4984  2.3743
13032TIP3   OH260586   2.925   2.247  16.573  0.0526  0.0815  0.3974
13032TIP3    H160587   2.913   2.288  16.487 -0.5117 -0.4951  0.1901
13032TIP3    H260588   2.916   2.319  16.635  0.6195  0.5343 -0.0262
13033TIP3   OH260589   5.772   3.255   5.082 -0.4424  0.0415 -0.2370
13033TIP3    H160590   5.746   3.210   5.002  0.1086  1.6046 -1.3319
13033TIP3    H260591   5.700   3.316   5.100  0.2555  0.9880 -0.5873
13034TIP3   OH260592   6.556   4.794   0.962  0.0630  0.2778 -0.2307
13034TIP3    H160593   6.598   4.831   1.039 -0.4221  0.8524 -0.2358
13034TIP3    H260594   6.496   4.862   0.932 -2.4858 -1.2767  1.0133
13035TIP3   OH260595   4.255   4.759  16.298 -0.0995  0.4953  0.0979
13035TIP3    H160596   4.204   4.715  16.230 -0.3510  2.2759 -0.9135
13035TIP3    H260597   4.316   4.692  16.328 -1.6912 -1.0905 -0.0588
13036TIP3   OH260598   6.173   1.793   0.936 -0.1805  0.9982  0.4119
13036TIP3    H160599   6.102   1.857   0.932 -0.2416  1.0730  1.9836
13036TIP3    H260600   6.136   1.719   0.984  0.1383  0.0964 -0.6894
13037TIP3   OH260601   3.714   6.001  15.294  0.1230 -0.4157  0.0046
13037TIP3    H160602   3.634   6.053  15.290 -0.1060 -0.7464  0.2227
13037TIP3    H260603   3.715   5.952  15.212  0.1965 -0.2714 -0.0808
13038TIP3   OH260604   4.119   1.559   1.434  0.0205 -0.0271  0.3266
13038TIP3    H160605   4.158   1.496   1.373 -0.5407  1.1066 -1.2805
13038TIP3    H260606   4.164   1.642   1.415 -1.5720  0.8012  0.0068
13039TIP3   OH260607   3.326   2.884  17.100 -0.3388  0.3053  0.0078
13039TIP3    H160608   3.313   2.895  17.006 -0.4972 -1.4248 -0.2153
13039TIP3    H260609   3.240   2.902  17.139 -1.4115 -2.8188 -0.6235
13040TIP3   OH260610   2.824   6.618   2.881  0.1579 -0.3393  0.2451
13040TIP3    H160611   2.736   6.618   2.844  1.0031 -2.0176 -1.9991
13040TIP3    H260612   2.883   6.614   2.805  2.1553 -0.1426  1.6921
13041TIP3   OH260613   0.036   6.705  12.529  0.3475  0.5252 -0.2550
13041TIP3    H160614   0.037   6.761  12.606  1.0228 -0.7167  0.6775
13041TIP3    H260615   0.124   6.714  12.492  0.2993  0.4554 -0.3859
13042TIP3   OH260616   3.894   3.941   3.712  0.6425  0.0305  0.2096
13042TIP3    H160617   3.935   3.874   3.657  1.9481  1.4606 -0.6107
13042TIP3    H260618   3.868   3.894   3.792 -0.9329 -2.0129 -1.4002
13043TIP3   OH260619   6.268   0.132   6.216 -0.4728 -0.2387 -0.4902
13043TIP3    H160620   6.231   0.045   6.206 -0.3631 -0.3563  0.0972
13043TIP3    H260621   6.305   0.133   6.304  2.7908 -0.8731 -1.7080
13044TIP3   OH260622   3.915   4.415  15.145 -0.2047  0.1037  0.6397
13044TIP3    H160623   3.990   4.462  15.179  1.5279 -1.1839 -1.1404
13044TIP3    H260624   3.891   4.463  15.065 -0.3417 -0.2868  0.4404
13045TIP3   OH260625   2.425   1.672   0.391  0.2677 -0.2393 -0.0076
13045TIP3    H160626   2.454   1.622   0.467  0.6872  1.2706  0.8763
13045TIP3    H260627   2.407   1.760   0.426 -1.6592 -0.0765 -1.2590
13046TIP3   OH260628   3.483   3.468  12.740 -0.0053 -0.2296 -0.1815
13046TIP3    H160629   3.422   3.435  12.806 -0.4948 -0.1388 -0.5869
13046TIP3    H260630   3.490   3.396  12.676  2.9143 -1.6671  1.5228
13047TIP3   OH260631   6.165   2.436  13.215  0.1804  0.1075  0.1396
13047TIP3    H160632   6.242   2.472  13.170  0.4417 -0.7185 -0.0936
13047TIP3    H260633   6.112   2.513  13.237  1.6622  0.8186  1.4379
13048TIP3   OH260634   5.872   2.546   5.105  0.2213  0.8055 -0.2455
13048TIP3    H160635   5.926   2.490   5.161 -0.7285  0.3796  0.2842
13048TIP3    H260636   5.898   2.635   5.127  0.4319  0.6166  0.2969
13049TIP3   OH260637   4.408   0.948  17.348  0.0917  0.0567 -0.3651
13049TIP3    H160638   4.327   0.997  17.362 -1.1746 -2.2522  1.0746
13049TIP3    H260639   4.452   0.950  17.433  0.1550 -0.9505 -0.3551
13050TIP3   OH260640   3.667   2.680  16.691  0.4391  0.6526  0.1131
13050TIP3    H160641   3.608   2.606  16.678  0.2020  0.8347  0.1603
13050TIP3    H260642   3.755   2.642  16.680  0.4503 -0.1678  2.4352
13051TIP3   OH260643   4.064   1.921   4.517 -0.5824  0.1690 -0.2952
13051TIP3    H160644   4.159   1.924   4.506 -0.4828  1.7205  0.7274
13051TIP3    H260645   4.048   1.836   4.558 -0.0361 -1.5804 -3.4252
13052TIP3   OH260646   4.310   6.530   2.941  0.3000  0.4982  0.1441
13052TIP3    H160647   4.404   6.512   2.942  0.1310 -0.4250  0.2391
13052TIP3    H260648   4.289   6.553   3.031 -0.0454 -2.0410  0.7936
13053TIP3   OH260649   2.837   0.205   6.300  0.2638  0.2341 -1.0166
13053TIP3    H160650   2.894   0.152   6.355  0.1579 -0.5175 -1.6003
13053TIP3    H260651   2.854   0.295   6.326 -1.2212 -0.1473  1.6517
13054TIP3   OH260652   2.559   1.586  17.643  0.2771  0.2040 -0.4537
13054TIP3    H160653   2.646   1.626  17.641  0.0385  0.7654 -0.0266
13054TIP3    H260654   2.557   1.528  17.567  1.0994  0.0154 -0.3370
13055TIP3   OH260655   4.433   0.874   6.107 -0.4350 -0.2165 -0.0864
13055TIP3    H160656   4.419   0.799   6.165 -2.3860  0.0837 -0.1061
13055TIP3    H260657   4.431   0.837   6.019  0.6673 -0.4067 -0.0460
13056TIP3   OH260658   3.824   4.775   2.619  0.4490 -0.1215 -0.0057
13056TIP3    H160659   3.826   4.719   2.542 -0.6529 -2.1594  1.3485
13056TIP3    H260660   3.731   4.792   2.634  0.6024 -0.2368  1.1743
13057TIP3   OH260661   4.307   2.064   3.764  0.2105  0.3915  0.2419
13057TIP3    H160662   4.364   2.040   3.836  2.8760 -2.1332 -2.4503
13057TIP3    H260663   4.345   2.145   3.729  2.0880 -1.0145 -1.2279
13058TIP3   OH260664   4.678   3.348   3.652  0.2151  0.0221  0.2165
13058TIP3    H160665   4.731   3.422   3.683  1.1864 -0.8426  0.6615
13058TIP3    H260666   4.592   3.361   3.693  1.0206 -0.2641  2.0677
13059TIP3   OH260667   3.075   0.121  15.511  0.4636 -0.4890 -0.2364
13059TIP3    H160668   3.132   0.183  15.465  0.1001  0.9351  1.1274
13059TIP3    H260669   2.989   0.133  15.471  0.5117 -0.4931 -0.3405
13060TIP3   OH260670   1.280   3.668  16.665 -0.5386 -0.5014 -0.2477
13060TIP3    H160671   1.189   3.639  16.662 -0.4389 -1.0004  1.0724
13060TIP3    H260672   1.331   3.591  16.641 -0.2452 -1.7934  3.7362
13061TIP3   OH260673   4.039   3.906  16.954 -0.0489 -0.3306 -0.1802
13061TIP3    H160674   4.019   3.904  17.048 -1.4243 -2.5197 -0.4451
13061TIP3    H260675   4.121   3.858  16.946 -0.1951 -0.5928 -0.1329
13062TIP3   OH260676   0.181   4.464  11.853  1.1687  0.2664  0.2313
13062TIP3    H160677   0.169   4.520  11.929 -2.1390  0.2106 -0.1125
13062TIP3    H260678   0.104   4.407  11.852  0.8467  0.5157 -3.3251
13063TIP3   OH260679   1.376   1.213   1.900 -0.1990  0.4271  0.3113
13063TIP3    H160680   1.417   1.126   1.891  0.5906  0.7943  0.2636
13063TIP3    H260681   1.450   1.274   1.900 -0.2631  0.8368  5.1624
13064TIP3   OH260682   0.654   2.328  15.124 -0.1022 -0.1595 -0.6572
13064TIP3    H160683   0.587   2.382  15.165 -0.2279 -0.6521 -0.1892
13064TIP3    H260684   0.652   2.351  15.032  0.6135  1.4254 -0.3108
13065TIP3   OH260685   5.707   0.616  12.633  0.1001 -0.0924  0.2553
13065TIP3    H160686   5.711   0.565  12.714 -1.0484 -0.5136  0.0594
13065TIP3    H260687   5.792   0.661  12.630  0.0406  0.2074  1.8688
13066TIP3   OH260688   1.351   6.312   0.668 -0.4822  0.3363 -0.0849
13066TIP3    H160689   1.422   6.272   0.618 -0.9248 -0.3346 -0.1980
13066TIP3    H260690   1.342   6.400   0.632  0.2927  0.4304 -0.0609
13067TIP3   OH260691   3.281   5.013  16.320 -0.0083  0.2777 -0.2741
13067TIP3    H160692   3.244   5.096  16.352 -0.1528  0.2575 -0.3871
13067TIP3    H260693   3.350   4.992  16.382 -2.3991 -1.4682  1.9519
13068TIP3   OH260694   3.006   6.215  15.069  0.5314 -0.2462 -0.0840
13068TIP3    H160695   3.013   6.305  15.038  2.2311 -0.2638  0.1359
13068TIP3    H260696   3.064   6.165  15.012 -1.1110 -1.4213 -0.8224
13069TIP3   OH260697   4.786   3.844   6.718  0.0943 -0.2096 -0.0211
13069TIP3    H160698   4.759   3.757   6.690 -2.8038  0.9515 -1.2246
13069TIP3    H260699   4.716   3.874   6.777  0.3931  1.7471 -0.5832
13070TIP3   OH260700   5.875   0.830  12.740  0.1098  0.4119 -0.1206
13070TIP3    H160701   5.889   0.869  12.654 -1.0758 -2.4067 -1.7193
13070TIP3    H260702   5.938   0.875  12.797  1.9863  1.3829 -2.7405
13071TIP3   OH260703   6.292   5.197  17.562 -0.1666  0.0164 -0.4423
13071TIP3    H160704   6.231   5.123  17.562 -0.0556 -0.0924  1.0658
13071TIP3    H260705   6.349   5.181  17.637  0.7976  0.8776 -0.9699
13072TIP3   OH260706   5.824   3.547  15.215  0.0855  0.0227 -0.1937
13072TIP3    H160707   5.773   3.533  15.135 -0.2500 -0.7161  0.1437
13072TIP3    H260708   5.766   3.520  15.286  1.1449 -1.4551  0.1657
13073TIP3   OH260709   2.482   1.923  13.788  0.0666  0.2549 -0.2214
13073TIP3    H160710   2.546   1.984  13.825  0.4500  0.5518 -1.3327
13073TIP3    H260711   2.402   1.975  13.779  0.5338  0.7781 -1.6410
13074TIP3   OH260712   4.239   6.517   3.667  0.8444 -0.1136 -0.2752
13074TIP3    H160713   4.160   6.565   3.643  0.4928  0.2360  1.4757
13074TIP3    H260714   4.244   6.446   3.603  0.9386  1.7043 -2.4462
13075TIP3   OH260715   1.595   4.778  15.032 -0.3786  0.1820  0.0419
13075TIP3    H160716   1.542   4.847  14.990 -0.1959 -0.6251 -1.6097
13075TIP3    H260717   1.679   4.783  14.987 -0.4990 -1.3769 -0.4166
13076TIP3   OH260718   0.196   4.193  12.936  0.2536 -0.5518  0.0984
13076TIP3    H160719   0.100   4.200  12.939  0.2512 -0.6910  0.3647
13076TIP3    H260720   0.215   4.162  12.848  0.0814 -0.0800 -0.1113
13077TIP3   OH260721   2.154   4.519   3.658  0.0735  0.2679 -0.5542
13077TIP3    H160722   2.176   4.602   3.700 -1.1827 -0.5760  1.9481
13077TIP3    H260723   2.238   4.473   3.653  0.2465  0.3085  1.3100
13078TIP3   OH260724   1.576   3.966  15.252  0.2548  0.2975 -0.8921
13078TIP3    H160725   1.486   3.980  15.224 -0.5283  1.5031  1.8982
13078TIP3    H260726   1.626   4.037  15.212 -0.1451  0.0337 -1.8772
13079TIP3   OH260727   6.682   0.288  17.055 -0.0061 -0.3254 -0.3526
13079TIP3    H160728   6.696   0.244  16.971 -0.8095 -1.6460  0.1699
13079TIP3    H260729   6.742   0.245  17.115 -2.1134 -2.1226  0.6018
13080TIP3   OH260730   0.483   5.732   2.142  0.2188  0.3974  0.4989
13080TIP3    H160731   0.535   5.808   2.115  1.1436 -0.3372  0.1182
13080TIP3    H260732   0.396   5.766   2.159  1.3516  2.1344  3.5412
13081TIP3   OH260733   1.958   4.406  13.484 -0.3486 -0.8335  0.3416
13081TIP3    H160734   1.892   4.376  13.546 -0.8359  0.2354  0.3732
13081TIP3    H260735   2.011   4.469  13.533 -0.5286 -0.2323 -0.2096
13082TIP3   OH260736   0.403   0.565  12.023 -0.4813 -0.6250  0.1572
13082TIP3    H160737   0.428   0.596  12.111 -0.0953 -2.1136  0.5977
13082TIP3    H260738   0.328   0.619  12.000 -0.8519 -0.4819  1.5885
13083TIP3   OH260739   1.802   3.247   4.994 -0.2708 -0.1512  0.0458
13083TIP3    H160740   1.740   3.256   4.922 -0.2107  1.2454  0.1490
13083TIP3    H260741   1.775   3.167   5.039 -1.3537 -0.1225 -0.5269
13084TIP3   OH260742   4.283   0.172  15.755 -0.1972 -0.2924 -0.1750
13084TIP3    H160743   4.199   0.128  15.768 -0.1558 -0.9804 -2.0205
13084TIP3    H260744   4.347   0.100  15.752  0.7268  0.2802  2.6111
13085TIP3   OH260745   5.032   2.520  14.878 -0.1348  0.0712 -0.4109
13085TIP3    H160746   4.943   2.555  14.869  0.0262  1.2634  1.9121
13085TIP3    H260747   5.065   2.516  14.788 -2.2278  0.3929 -1.2569
13086TIP3   OH260748   0.947   6.462  16.285  0.1444  0.2274  0.2314
13086TIP3    H160749   0.918   6.553  16.299  0.5840  0.2392  1.0669
13086TIP3    H260750   0.967   6.429  16.372  1.3010 -0.2396 -0.1939
13087TIP3   OH260751   3.508   6.369   6.546  0.3360  0.1447 -0.4311
13087TIP3    H160752   3.530   6.318   6.468 -1.1189  1.3622 -1.7141
13087TIP3    H260753   3.553   6.453   6.534 -1.0241  0.8771 -0.7373
13088TIP3   OH260754   3.333   4.876  12.062  0.0748  0.2139  0.0797
13088TIP3    H160755   3.326   4.967  12.089 -0.1211  0.6405 -1.3170
13088TIP3    H260756   3.249   4.837  12.086  0.8183 -0.1187  2.3682
13089TIP3   OH260757   2.401   3.890  15.629 -0.0230  0.0936 -0.1480
13089TIP3    H160758   2.469   3.830  15.661 -0.1198  0.7897  1.4536
13089TIP3    H260759   2.319   3.849  15.654 -0.0986  0.7010  0.6371
13090TIP3   OH260760   5.825   1.606  12.881 -0.3064 -0.2424  0.0144
13090TIP3    H160761   5.888   1.538  12.903 -0.1782  0.1545  0.9069
13090TIP3    H260762   5.781   1.626  12.963 -0.0373  1.0628 -0.1300
13091TIP3   OH260763   5.947   6.035   1.470  0.1320  0.0314  0.1202
13091TIP3    H160764   5.898   5.970   1.420 -1.2780 -0.2079  1.7339
13091TIP3    H260765   5.882   6.101   1.494  1.2354  1.2865 -0.2054
13092TIP3   OH260766   4.829   6.577  11.871  0.3019  0.8641  0.5352
13092TIP3    H160767   4.896   6.525  11.916 -0.1574 -0.0581  0.1980
13092TIP3    H260768   4.758   6.514  11.854 -0.0242  1.4646 -0.4086
13093TIP3   OH260769   2.049   3.643   0.379  0.1945  0.1873 -0.1426
13093TIP3    H160770   2.008   3.599   0.454  1.0584  1.6171  1.2358
13093TIP3    H260771   2.126   3.590   0.360 -0.1387 -0.3016 -0.1678
13094TIP3   OH260772   4.254   0.682  16.023 -0.6356  0.2476 -0.0175
13094TIP3    H160773   4.198   0.741  15.973 -1.8350 -1.5065 -0.8556
13094TIP3    H260774   4.332   0.672  15.969 -1.2791 -0.4494 -0.8528
13095TIP3   OH260775   2.103   5.020   0.257  0.1080 -0.0662  0.4976
13095TIP3    H160776   2.101   5.113   0.236  0.4217 -0.3004 -0.6251
13095TIP3    H260777   2.193   5.003   0.284  0.7429 -0.5188 -1.7102
13096TIP3   OH260778   5.341   5.072   3.473  0.4273  0.0716  0.0693
13096TIP3    H160779   5.428   5.040   3.447  0.2081 -1.3009  0.8740
13096TIP3    H260780   5.345   5.076   3.568 -0.6773 -0.9457  0.1801
13097TIP3   OH260781   3.972   5.576  13.560 -0.1945  0.3518  0.0763
13097TIP3    H160782   3.974   5.607  13.651 -0.4097 -1.3574  0.7046
13097TIP3    H260783   3.898   5.515  13.558  0.2537 -0.1772 -1.0494
13098TIP3   OH260784   1.843   6.626   0.492 -0.2860  0.2803  0.3867
13098TIP3    H160785   1.891   6.628   0.575  2.0058  0.5674 -0.8413
13098TIP3    H260786   1.807   6.538   0.487  2.0177 -0.7369  0.4538
13099TIP3   OH260787   0.885   4.900  16.551 -0.3359 -0.2665 -0.0524
13099TIP3    H160788   0.792   4.891  16.529 -0.1846 -3.6970  0.1305
13099TIP3    H260789   0.923   4.814  16.530  2.8253  1.0030 -0.1056
13100TIP3   OH260790   1.792   1.415  12.707 -0.2458 -0.4595 -0.3414
13100TIP3    H160791   1.873   1.464  12.696 -0.0449 -0.7444 -0.1098
13100TIP3    H260792   1.814   1.325  12.681 -0.6779 -0.3828 -1.0173
13101TIP3   OH260793   0.302   0.517   6.438 -0.0514  0.0605  0.3436
13101TIP3    H160794   0.231   0.572   6.404  0.2529  0.3556  0.1821
13101TIP3    H260795   0.294   0.435   6.389  0.4859  0.5410 -0.5729
13102TIP3   OH260796   1.648   0.262   6.248 -0.3205  0.2017 -0.1190
13102TIP3    H160797   1.631   0.332   6.311 -0.4218  1.2815 -1.3149
13102TIP3    H260798   1.634   0.302   6.163 -1.5686 -1.5991 -0.8204
13103TIP3   OH260799   1.976   2.756   4.076 -0.2815  0.3225 -0.4395
13103TIP3    H160800   2.024   2.747   3.994 -0.7615  0.6133 -0.7597
13103TIP3    H260801   1.888   2.783   4.050 -0.4334  0.4485  0.1728
13104TIP3   OH260802   5.630   2.975   1.438 -0.4473 -0.3244  0.4798
13104TIP3    H160803   5.648   3.045   1.375 -0.0761 -0.2389  0.6788
13104TIP3    H260804   5.560   3.010   1.493 -1.1545 -0.6061 -0.2119
13105TIP3   OH260805   2.588   5.820   2.953 -0.1298  0.0013  0.3822
13105TIP3    H160806   2.513   5.761   2.947 -0.2121  0.2417 -1.5695
13105TIP3    H260807   2.652   5.785   2.891  1.0719  0.2485  1.4427
13106TIP3   OH260808   1.512   2.771  11.958  0.2123 -0.4085  0.3656
13106TIP3    H160809   1.538   2.780  11.866  0.1804 -0.9056  0.3041
13106TIP3    H260810   1.438   2.832  11.968 -1.9120 -2.6101 -0.8070
13107TIP3   OH260811   5.132   5.661   2.113  0.4445 -0.3555 -0.1018
13107TIP3    H160812   5.144   5.731   2.049  1.3887 -0.9493 -0.5969
13107TIP3    H260813   5.121   5.582   2.060 -0.4548 -0.6171  0.4547
13108TIP3   OH260814   4.660   2.851   2.441  0.4709 -0.3281  0.8365
13108TIP3    H160815   4.617   2.845   2.356 -1.2125  0.3494  1.6081
13108TIP3    H260816   4.754   2.851   2.420  0.1465 -1.9021 -0.8806
13109TIP3   OH260817   2.762   0.234   0.009 -0.1009  0.1184 -0.3303
13109TIP3    H160818   2.838   0.183  -0.020  0.0411 -0.9899  1.8281
13109TIP3    H260819   2.797   0.321   0.026  0.9606 -0.6329  1.6076
13110TIP3   OH260820   6.267   0.838   3.929 -0.4903  0.3071 -0.2608
13110TIP3    H160821   6.212   0.888   3.990 -0.4867  3.0362 -2.2822
13110TIP3    H260822   6.225   0.852   3.844 -0.1568 -2.8459 -1.0321
13111TIP3   OH260823   1.039   3.538  17.400  0.3074 -0.0041 -0.1298
13111TIP3    H160824   1.046   3.548  17.305 -0.8210 -0.1928 -0.2563
13111TIP3    H260825   1.126   3.511  17.429  1.3581  2.4331 -0.7818
13112TIP3   OH260826   4.673   2.955   6.146 -0.2132 -0.5891  0.4199
13112TIP3    H160827   4.762   2.953   6.112  0.2893 -1.5689  1.7032
13112TIP3    H260828   4.682   2.982   6.238 -1.5794  2.6026 -0.2363
13113TIP3   OH260829   4.936   2.862   6.427  0.0776  0.2034  0.0547
13113TIP3    H160830   5.010   2.868   6.367 -0.1138 -1.8562 -0.4730
13113TIP3    H260831   4.921   2.768   6.437 -1.6726  0.5472  1.1318
13114TIP3   OH260832   1.356   6.702  12.178 -0.2979  0.1100 -0.0726
13114TIP3    H160833   1.433   6.748  12.146  0.9810 -1.3497  0.7499
13114TIP3    H260834   1.282   6.756  12.150  0.9428  1.0124 -1.8222
13115TIP3   OH260835   2.186   1.577   3.277 -0.3254 -0.2762  0.0954
13115TIP3    H160836   2.181   1.622   3.362 -0.8007  1.1856 -0.6779
13115TIP3    H260837   2.103   1.598   3.234 -0.2635 -1.3450 -0.5899
13116TIP3   OH260838   1.882   4.434   0.663 -0.0984 -0.0633  0.1812
13116TIP3    H160839   1.837   4.386   0.594 -0.6305  0.1995  0.3405
13116TIP3    H260840   1.975   4.416   0.648 -0.1317  0.6595 -1.1284
13117TIP3   OH260841   5.314   0.116  17.079 -0.2368 -0.0905  0.0493
13117TIP3    H160842   5.292   0.023  17.078  0.0274 -0.1632 -1.4509
13117TIP3    H260843   5.381   0.126  17.011  0.3825  1.0545  0.7923
13118TIP3   OH260844   3.648   4.088  14.275  0.2697 -0.1550  0.1538
13118TIP3    H160845   3.680   4.001  14.300  0.8517 -0.0639 -0.2658
13118TIP3    H260846   3.692   4.107  14.192 -1.6003 -0.4367 -0.9653
13119TIP3   OH260847   2.867   1.751  12.088  0.0796 -0.0672  0.5134
13119TIP3    H160848   2.878   1.714  12.176  0.0188 -1.2212  0.0483
13119TIP3    H260849   2.815   1.830  12.103  1.0278  0.3795  1.6395
13120TIP3   OH260850   3.661   1.616   4.564 -0.0472 -0.0173  0.4304
13120TIP3    H160851   3.575   1.622   4.522  0.0420 -0.3291  0.2028
13120TIP3    H260852   3.718   1.669   4.509  0.3259 -1.3409 -0.5166
13121TIP3   OH260853   2.952   5.956   4.722  0.4052 -0.4473 -0.1163
13121TIP3    H160854   3.017   5.888   4.739  1.3950  0.1512 -1.3036
13121TIP3    H260855   2.992   6.011   4.654 -0.6942  0.8537  0.2375
13122TIP3   OH260856   0.515   0.992  12.024  0.3141  0.3846  0.1450
13122TIP3    H160857   0.546   0.902  12.031 -1.2488 -0.1755  0.2568
13122TIP3    H260858   0.506   1.022  12.115 -1.4363 -0.1979  0.1999
13123TIP3   OH260859   5.119   2.729  14.233  0.4629  0.6870  0.1636
13123TIP3    H160860   5.113   2.825  14.231 -1.4027  0.6232 -1.4836
13123TIP3    H260861   5.031   2.701  14.260  0.5091 -0.5390 -0.8584
13124TIP3   OH260862   4.507   2.816   1.659  0.1046  0.2335  0.1173
13124TIP3    H160863   4.432   2.877   1.656  0.6902  1.1186  1.9631
13124TIP3    H260864   4.473   2.739   1.704  0.1799  0.4686  0.5834
13125TIP3   OH260865   6.511   5.077  15.577  0.0138 -0.0964  0.2493
13125TIP3    H160866   6.419   5.075  15.602 -0.2311 -1.7330 -0.6758
13125TIP3    H260867   6.547   4.994  15.610  1.2579  0.6711  0.9179
13126TIP3   OH260868   5.945   4.079   2.244  0.3677  0.4488 -0.0228
13126TIP3    H160869   5.962   4.008   2.182 -0.2469  0.3087 -0.0294
13126TIP3    H260870   5.898   4.145   2.194  0.3562  0.5776  0.1544
13127TIP3   OH260871   5.012   6.024  17.405 -0.6755 -0.1339 -0.5369
13127TIP3    H160872   5.095   6.001  17.446  0.2914  0.0903 -2.3286
13127TIP3    H260873   4.994   5.952  17.345 -1.5948 -0.0014 -0.4354
13128TIP3   OH260874   2.493   0.086   4.929  0.3227  0.4198 -0.1647
13128TIP3    H160875   2.454   0.150   4.989  2.2045  1.2547  0.2345
13128TIP3    H260876   2.583   0.076   4.960  0.4979 -1.3622 -1.1012
13129TIP3   OH260877   6.070   1.118   5.340 -0.2475  0.0961  0.3377
13129TIP3    H160878   6.040   1.061   5.411 -0.2129  0.8849  1.0000
13129TIP3    H260879   6.055   1.207   5.373  2.1289  0.5454  0.4399
13130TIP3   OH260880   4.423   3.939  15.142 -0.1288  0.6005  0.0476
13130TIP3    H160881   4.412   3.865  15.202  1.5481  1.4575  1.5457
13130TIP3    H260882   4.359   3.924  15.073  0.3707 -2.4301  0.0916
13131TIP3   OH260883   2.905   1.569  15.094  0.1200  0.6010  0.1070
13131TIP3    H160884   2.992   1.555  15.055 -0.6542  1.1822 -1.9512
13131TIP3    H260885   2.853   1.495  15.064 -0.1588  0.2904  1.2819
13132TIP3   OH260886   1.810   3.929  16.225 -0.3640  0.7216  0.6708
13132TIP3    H160887   1.869   3.943  16.150  0.0435  0.9121  1.0210
13132TIP3    H260888   1.867   3.894  16.294 -0.9070 -0.3127  0.6092
13133TIP3   OH260889   4.868   6.058   1.591 -0.1811 -0.1233 -0.2733
13133TIP3    H160890   4.958   6.032   1.613  0.0866  0.7378 -0.3179
13133TIP3    H260891   4.813   6.003   1.647  0.4648  2.1876  2.8837
13134TIP3   OH260892   5.069   3.018  17.678  0.1607  0.6236 -0.2951
13134TIP3    H160893   5.016   2.952  17.723  0.0970  1.3442  0.7222
13134TIP3    H260894   5.054   3.099  17.727  2.9548  0.6573  0.6568
13135TIP3   OH260895   6.686   1.749  17.574 -0.2915  0.3651  0.1869
13135TIP3    H160896   6.684   1.802  17.654 -0.5339  1.0868 -0.2784
13135TIP3    H260897   6.730   1.805  17.510  0.3153 -0.3859 -0.0614
13136TIP3   OH260898   5.631   5.736   1.531 -0.3452  0.3191  0.0338
13136TIP3    H160899   5.650   5.642   1.538  2.3121  0.4545 -2.9780
13136TIP3    H260900   5.561   5.741   1.466 -0.2576  0.3916 -0.0567
13137TIP3   OH260901   4.417   2.506  12.151  0.0587  0.3123  0.0500
13137TIP3    H160902   4.492   2.473  12.201 -0.3399 -0.8778 -0.0834
13137TIP3    H260903   4.360   2.429  12.141 -0.7388  0.9723 -0.6477
13138TIP3   OH260904   1.537   1.119  17.346 -0.0334  0.6028  0.2442
13138TIP3    H160905   1.533   1.060  17.270 -1.8715  2.7864 -1.5206
13138TIP3    H260906   1.621   1.163  17.339  0.5708 -0.4814  0.5357
13139TIP3   OH260907   5.835   4.316  14.446  0.1512  0.2974 -0.4304
13139TIP3    H160908   5.858   4.224  14.452 -0.6188  0.1585  1.1245
13139TIP3    H260909   5.908   4.357  14.400 -0.5684 -1.4136 -3.3598
13140TIP3   OH260910   3.003   0.550  15.175  0.0565 -0.3339  0.4831
13140TIP3    H160911   3.094   0.568  15.152 -0.1614  0.2468  0.0435
13140TIP3    H260912   2.974   0.627  15.223 -0.8044  0.4492 -1.1751
13141TIP3   OH260913   5.247   3.122  13.830 -0.1981  0.2468  0.3951
13141TIP3    H160914   5.215   3.076  13.752  1.4757 -0.2973 -0.0154
13141TIP3    H260915   5.334   3.085  13.845  0.0347  1.2854  1.7494
13142TIP3   OH260916   3.330   1.322  13.041  0.1625  0.3913 -0.0640
13142TIP3    H160917   3.410   1.338  12.991  0.5499 -1.5481 -0.1534
13142TIP3    H260918   3.278   1.402  13.030  2.3370  1.9906  0.5430
13143TIP3   OH260919   3.608   1.711   0.768 -0.1774 -0.0666  0.4032
13143TIP3    H160920   3.640   1.799   0.748  0.6902  0.0232  1.9917
13143TIP3    H260921   3.687   1.657   0.768 -0.7669 -0.9949 -1.1290
13144TIP3   OH260922   3.773   6.725   1.477 -0.0390  0.0090 -0.2866
13144TIP3    H160923   3.748   6.682   1.395  0.0082  2.0578 -1.4268
13144TIP3    H260924   3.856   6.767   1.458 -0.9575  2.1724  0.1409
13145TIP3   OH260925   2.069   2.591  15.890  0.0988  0.1034  0.1808
13145TIP3    H160926   2.041   2.502  15.872 -0.2218  0.0070  1.1350
13145TIP3    H260927   2.164   2.585  15.903 -0.0628 -0.2645  1.2390
13146TIP3   OH260928   6.700   3.221  13.935 -0.5513  0.4313 -0.5746
13146TIP3    H160929   6.765   3.289  13.950 -2.0423  1.4791  1.5215
13146TIP3    H260930   6.649   3.218  14.015 -2.6570 -0.8438 -1.8774
13147TIP3   OH260931   1.348   5.220  16.724 -0.8221  0.1978  0.3190
13147TIP3    H160932   1.415   5.154  16.741 -0.3979  1.0983  2.3569
13147TIP3    H260933   1.362   5.245  16.632  2.5621  1.3309  1.0254
13148TIP3   OH260934   6.325   5.357  16.849  0.0378  0.3737  0.3849
13148TIP3    H160935   6.271   5.315  16.782  1.2388  0.5591 -0.7443
13148TIP3    H260936   6.332   5.448  16.819 -0.0718  0.6628  1.2136
13149TIP3   OH260937   2.441   3.699   6.243  0.3291  0.0822 -0.0023
13149TIP3    H160938   2.418   3.723   6.333 -2.2242  0.1530 -0.6002
13149TIP3    H260939   2.380   3.629   6.220  2.4432 -1.5765 -0.9677
13150TIP3   OH260940   4.868   1.781   3.108 -0.1793  0.0917 -0.0237
13150TIP3    H160941   4.847   1.806   3.018 -0.7842  0.1442  0.1331
13150TIP3    H260942   4.847   1.858   3.161 -2.1401 -0.7405  0.4695
13151TIP3   OH260943   5.312   1.294  14.825 -0.0479  0.1882  0.3057
13151TIP3    H160944   5.342   1.218  14.874 -2.9344  0.0156  1.9869
13151TIP3    H260945   5.341   1.278  14.735  0.0708 -2.5128  0.7585
13152TIP3   OH260946   6.617   2.897  12.517  0.2148 -0.0500 -0.4373
13152TIP3    H160947   6.654   2.985  12.508  0.0180 -0.0564 -1.4801
13152TIP3    H260948   6.589   2.892  12.608 -3.3530  2.4504 -1.1503
13153TIP3   OH260949   3.074   0.638   2.878 -0.2494  0.4499 -0.1727
13153TIP3    H160950   3.016   0.592   2.818  0.0267  2.0714 -1.7866
13153TIP3    H260951   3.038   0.621   2.965 -0.7918 -1.8014 -0.7838
13154TIP3   OH260952   4.967   6.605  15.063  0.6025  0.3792 -0.1030
13154TIP3    H160953   4.951   6.678  15.003  0.0900  1.0690  0.8406
13154TIP3    H260954   4.925   6.530  15.021  2.0133  0.3625 -1.5850
13155TIP3   OH260955   1.741   3.497   5.118 -0.0518 -0.6800  0.0186
13155TIP3    H160956   1.768   3.417   5.074 -0.5476 -0.8212 -0.0332
13155TIP3    H260957   1.735   3.473   5.211  0.0653 -0.6309  0.0390
13156TIP3   OH260958   0.848   2.485  17.265 -0.1641 -0.0695 -0.1022
13156TIP3    H160959   0.892   2.481  17.350  0.0528  0.7860 -0.1732
13156TIP3    H260960   0.901   2.545  17.213 -0.5982 -0.1752 -0.6756
13157TIP3   OH260961   5.401   5.691  17.139 -0.0155  0.3256 -0.4426
13157TIP3    H160962   5.308   5.673  17.131  0.0904  0.2853 -1.8314
13157TIP3    H260963   5.410   5.783  17.111  0.4465  0.1090 -1.0236
13158TIP3   OH260964   6.182   5.238   2.625  0.4978 -0.0737  0.4913
13158TIP3    H160965   6.127   5.192   2.562  0.1235 -0.3461  1.0097
13158TIP3    H260966   6.131   5.314   2.651  0.3501 -0.3403  0.9910
13159TIP3   OH260967   5.791   1.581  15.597  0.1575  0.0548  0.0326
13159TIP3    H160968   5.746   1.664  15.612 -3.6282 -1.4697 -1.7200
13159TIP3    H260969   5.788   1.568  15.502  1.4439 -1.6984  0.1712
13160TIP3   OH260970   2.181   0.060  15.503 -0.1251  0.0527  0.0085
13160TIP3    H160971   2.109   0.040  15.443  1.0757 -0.8299 -1.2109
13160TIP3    H260972   2.213   0.145  15.474 -0.0889  0.0164 -0.0592
13161TIP3   OH260973   3.973   3.842   5.048 -0.8650  0.3589 -0.1431
13161TIP3    H160974   3.923   3.774   5.002  1.3110 -0.8442 -0.8492
13161TIP3    H260975   4.012   3.895   4.978  0.7181 -0.1576  0.3054
13162TIP3   OH260976   2.121   0.254  11.366  0.2651  0.0677  0.3071
13162TIP3    H160977   2.090   0.277  11.279 -1.0646  0.1106  0.7678
13162TIP3    H260978   2.182   0.324  11.389 -0.3240  0.7252 -0.0936
13163TIP3   OH260979   4.053   4.082  17.667 -0.0068  0.0662  0.1799
13163TIP3    H160980   4.017   4.169  17.685  1.2787  0.3855  1.4525
13163TIP3    H260981   4.028   4.063  17.577 -1.4486  1.1723  0.3118
13164TIP3   OH260982   3.620   3.066   5.552 -0.1537 -0.3329  0.5566
13164TIP3    H160983   3.633   3.152   5.591  1.7450 -0.8296  1.1289
13164TIP3    H260984   3.602   3.083   5.460  1.3143  0.6553  0.4232
13165TIP3   OH260985   0.461   4.412  11.885 -0.1992 -0.1596  0.1238
13165TIP3    H160986   0.463   4.330  11.935 -2.0544 -0.0229  0.4927
13165TIP3    H260987   0.368   4.430  11.872  0.1981  1.0885 -1.3099
13166TIP3   OH260988   4.424   5.288  15.555  0.3012  0.0686 -0.3492
13166TIP3    H160989   4.349   5.234  15.530  0.4210  0.7795 -2.5150
13166TIP3    H260990   4.495   5.258  15.498  0.8032  1.3836 -0.4582
13167TIP3   OH260991   3.772   4.104   3.384 -0.3109  0.2599 -0.5726
13167TIP3    H160992   3.696   4.159   3.404  0.1295  1.2175 -1.4665
13167TIP3    H260993   3.763   4.029   3.443 -0.1299  1.9849  1.8032
13168TIP3   OH260994   4.662   2.898  16.807  0.4767 -0.1359  1.0130
13168TIP3    H160995   4.583   2.913  16.755 -0.3776 -0.1277  2.2677
13168TIP3    H260996   4.683   2.805  16.793  0.0393 -0.2265  0.9446
13169TIP3   OH260997   0.129   4.466  15.189 -0.0644  0.1595  0.6141
13169TIP3    H160998   0.190   4.421  15.129 -0.9353  0.0035 -0.1770
13169TIP3    H260999   0.101   4.543  15.140 -0.3405  0.3455  1.0656
13170TIP3   OH261000   2.918   4.162   2.751  0.3229  0.1406 -0.2777
13170TIP3    H161001   2.825   4.147   2.764 -0.0350  1.2426 -1.3673
13170TIP3    H261002   2.923   4.237   2.692  1.9348  1.8028  1.8087
13171TIP3   OH261003   2.398   6.276  15.305  0.1769 -0.1984  0.2592
13171TIP3    H161004   2.314   6.255  15.264 -0.2631  1.7470  0.0301
13171TIP3    H261005   2.414   6.204  15.366 -1.6754 -0.6269  0.3177
13172TIP3   OH261006   6.526   5.196  14.837 -0.7680  0.4621 -0.3680
13172TIP3    H161007   6.587   5.268  14.855  0.5890 -0.8650  0.5510
13172TIP3    H261008   6.506   5.204  14.744  0.8544  0.9092 -0.6999
13173TIP3   OH261009   0.676   4.261   6.197  0.1622 -0.5806  0.1849
13173TIP3    H161010   0.587   4.294   6.196  1.0937  2.1613 -0.1682
13173TIP3    H261011   0.717   4.300   6.120  2.3440  0.3740  1.7278
13174TIP3   OH261012   1.104   1.534   1.565 -0.0187 -0.7187  0.5357
13174TIP3    H161013   1.179   1.586   1.594  0.4245 -0.0822 -1.5678
13174TIP3    H261014   1.032   1.597   1.561  0.1594 -0.5752 -0.6120
13175TIP3   OH261015   6.461   5.549   5.849 -0.0418  0.1414  0.5371
13175TIP3    H161016   6.508   5.617   5.801 -0.0161 -0.4608 -0.3342
13175TIP3    H261017   6.423   5.494   5.780 -1.2071  0.0611  1.2292
13176TIP3   OH261018   0.532   1.301  13.860 -0.4826  0.1126 -0.3198
13176TIP3    H161019   0.449   1.272  13.898  0.1871 -1.1115  0.2748
13176TIP3    H261020   0.581   1.220  13.846  0.3107  0.7498 -1.4104
13177TIP3   OH261021   5.505   3.749  16.970  0.0995  0.7228 -0.3761
13177TIP3    H161022   5.468   3.797  16.896  0.5059  0.5156 -0.7151
13177TIP3    H261023   5.565   3.686  16.931 -0.2319  0.1043  0.0828
13178TIP3   OH261024   3.439   2.089  12.130 -0.4292  0.1890 -0.6285
13178TIP3    H161025   3.438   2.116  12.221 -0.3526 -0.4636 -0.4296
13178TIP3    H261026   3.422   1.995  12.132  0.2306  0.0419 -1.2384
13179TIP3   OH261027   0.527   6.490   1.682 -0.1094 -0.3051  0.1351
13179TIP3    H161028   0.595   6.533   1.631  0.5270  0.1873  1.3471
13179TIP3    H261029   0.560   6.401   1.696 -0.3770 -0.5008 -0.4756
13180TIP3   OH261030   1.984   0.664  15.176 -0.3559 -0.2226 -0.1217
13180TIP3    H161031   2.035   0.583  15.179 -2.0603 -1.3403 -0.3403
13180TIP3    H261032   2.016   0.710  15.098 -0.1607 -1.2347 -0.6473
13181TIP3   OH261033   5.057   3.325  16.253  0.2447 -0.0304  0.0836
13181TIP3    H161034   5.003   3.268  16.197 -0.1844  0.0064  0.4532
13181TIP3    H261035   5.007   3.407  16.258  1.8137  1.1849 -2.1292
13182TIP3   OH261036   0.744   3.174  10.741  0.3692 -0.2949  0.7078
13182TIP3    H161037   0.745   3.078  10.737  1.0377 -0.2732  0.1509
13182TIP3    H261038   0.745   3.194  10.834 -2.5900 -0.8238  0.9449
13183TIP3   OH261039   4.748   0.277  16.480 -0.2810 -0.1844 -0.4302
13183TIP3    H161040   4.693   0.216  16.432 -0.3914  0.0656 -0.6220
13183TIP3    H261041   4.831   0.278  16.433 -0.4289  0.1507 -0.6899
13184TIP3   OH261042   5.087   4.180  14.604  0.1776 -0.7575 -0.2917
13184TIP3    H161043   4.998   4.159  14.634  0.4318  0.4289  1.4150
13184TIP3    H261044   5.080   4.270  14.572  1.4811  0.9775  3.6620
13185TIP3   OH261045   1.163   3.283  16.285  0.3810  0.0137 -0.4885
13185TIP3    H161046   1.121   3.197  16.281  0.7500 -0.1482 -0.9108
13185TIP3    H261047   1.250   3.265  16.321  0.8678  0.0522 -1.6181
13186TIP3   OH261048   4.670   0.057  11.788  0.2954 -0.1867  0.3192
13186TIP3    H161049   4.624   0.085  11.867 -0.7402 -0.3083 -0.2232
13186TIP3    H261050   4.722  -0.019  11.815 -1.5181 -1.4260  0.4866
13187TIP3   OH261051   4.045   2.558   7.106 -0.2501  0.4642 -0.5257
13187TIP3    H161052   4.079   2.588   7.021  0.1892  1.2543 -0.0869
13187TIP3    H261053   4.122   2.520   7.149  0.5201  3.4722  1.0245
13188TIP3   OH261054   3.755   3.843  12.080 -0.0508 -0.0352 -0.0396
13188TIP3    H161055   3.699   3.770  12.054 -1.4984  0.9526  0.1689
13188TIP3    H261056   3.709   3.883  12.154  0.4944  1.3201 -0.4065
13189TIP3   OH261057   2.530   0.568  14.810  0.3989 -0.1468  0.1988
13189TIP3    H161058   2.443   0.607  14.795  0.3510 -0.4316 -0.2763
13189TIP3    H261059   2.560   0.608  14.891 -0.8173 -1.1631  1.1938
13190TIP3   OH261060   2.061   2.577   2.164 -0.1536  0.3149 -0.4601
13190TIP3    H161061   1.996   2.595   2.096 -2.1879 -0.6849  1.1319
13190TIP3    H261062   2.128   2.645   2.151 -0.7382  0.4836 -3.0681
13191TIP3   OH261063   6.101   2.996  13.988  0.5322  0.4322 -0.3251
13191TIP3    H161064   6.081   3.058  14.059  1.1759 -0.6257  0.8191
13191TIP3    H261065   6.024   2.999  13.932  0.0004  1.2965  0.4160
13192TIP3   OH261066   4.771   2.482  16.149  0.2341  0.4395  0.2204
13192TIP3    H161067   4.725   2.429  16.214 -1.8387  0.5006 -1.1146
13192TIP3    H261068   4.764   2.432  16.067  2.9268  0.2827 -0.0154
13193TIP3   OH261069   5.716   1.670  17.655  0.5225  0.5770  0.5557
13193TIP3    H161070   5.642   1.661  17.715  0.1044 -1.4510 -0.1876
13193TIP3    H261071   5.755   1.754  17.677  1.2743 -0.6197  4.6744
13194TIP3   OH261072   1.555   1.324   0.354  0.0285  0.5031  0.2041
13194TIP3    H161073   1.637   1.353   0.313 -0.2539  0.2723 -0.5285
13194TIP3    H261074   1.503   1.287   0.283 -0.1477 -0.6567  0.9041
13195TIP3   OH261075   5.217   1.760   1.062 -0.3802  0.0299 -0.1019
13195TIP3    H161076   5.306   1.726   1.069 -0.0525  0.5993 -1.3003
13195TIP3    H261077   5.179   1.746   1.149  0.7562 -0.5372  0.3203
13196TIP3   OH261078   0.416   1.547   2.366 -0.2864 -0.0596 -0.4588
13196TIP3    H161079   0.425   1.492   2.288 -1.6343 -1.5100  0.3612
13196TIP3    H261080   0.354   1.615   2.339  0.4889  0.4057 -1.1207
13197TIP3   OH261081   5.325   6.073  15.241 -0.2779 -0.3639 -0.1208
13197TIP3    H161082   5.409   6.077  15.287 -0.4803 -0.9938  0.3181
13197TIP3    H261083   5.344   6.106  15.153  0.1593  0.6926  0.3530
13198TIP3   OH261084   5.165   1.912   1.905  0.9478 -0.3306  0.1850
13198TIP3    H161085   5.139   1.982   1.965  1.9802 -0.5797  0.9413
13198TIP3    H261086   5.092   1.905   1.844  0.9389  1.5764 -0.0608
13199TIP3   OH261087   0.659   1.313   4.716  0.1065  0.5220 -0.2278
13199TIP3    H161088   0.726   1.290   4.781  0.4981 -0.5298 -0.9801
13199TIP3    H261089   0.582   1.335   4.768  0.1649 -1.0975  0.5945
13200TIP3   OH261090   0.534   5.413   5.589  0.3077 -0.4379 -0.1163
13200TIP3    H161091   0.487   5.375   5.515  1.8038 -0.7716 -0.9328
13200TIP3    H261092   0.619   5.439   5.553  0.7210  0.2608  1.2756
13201TIP3   OH261093   1.944   3.687   5.861  0.4619 -0.4720  0.2633
13201TIP3    H161094   1.951   3.764   5.918  0.3407 -1.5013  1.7290
13201TIP3    H261095   1.887   3.715   5.790  0.5913  0.8568  0.6489
13202TIP3   OH261096   6.319   6.192   5.490  0.2485  0.7914 -0.0804
13202TIP3    H161097   6.234   6.189   5.534  0.3466  0.8117  0.1111
13202TIP3    H261098   6.326   6.107   5.446 -1.8210  2.3067 -3.8024
13203TIP3   OH261099   4.864   6.088  12.077 -0.0542  0.8121  0.1409
13203TIP3    H161100   4.921   6.158  12.044 -1.6439  2.2644  0.3116
13203TIP3    H261101   4.860   6.103  12.171  1.2170 -0.8129  0.4846
13204TIP3   OH261102   6.106   0.169   4.433  0.1144 -0.6153  0.1378
13204TIP3    H161103   6.015   0.146   4.449 -0.1216 -1.1605 -1.7696
13204TIP3    H261104   6.156   0.119   4.498 -0.9429  0.2181  1.6535
13205TIP3   OH261105   3.234   4.123  17.194 -0.3181 -0.3692  0.3999
13205TIP3    H161106   3.278   4.184  17.253 -0.0328  0.3047 -0.4976
13205TIP3    H261107   3.193   4.059  17.253 -1.1324  1.0029  1.3889
13206TIP3   OH261108   3.378   0.140   4.189 -0.1897  0.3904 -0.6150
13206TIP3    H161109   3.451   0.199   4.206 -0.6942  1.3565 -1.6579
13206TIP3    H261110   3.415   0.052   4.198  0.3738  0.8131  1.8322
13207TIP3   OH261111   2.715   0.622   6.078  0.8486 -0.4339  0.0336
13207TIP3    H161112   2.635   0.589   6.119  0.8374 -1.9363 -1.0983
13207TIP3    H261113   2.781   0.618   6.148  0.3002 -0.7126  0.5469
13208TIP3   OH261114   1.819   3.431  11.832 -0.2823  0.4692  0.5298
13208TIP3    H161115   1.725   3.420  11.816  0.1585 -1.2757 -1.2820
13208TIP3    H261116   1.847   3.498  11.770 -0.1726  0.3295  0.4277
13209TIP3   OH261117   1.185   4.212  12.732 -0.2267  0.3015 -0.3940
13209TIP3    H161118   1.262   4.185  12.782 -0.4385  0.2143 -0.1101
13209TIP3    H261119   1.141   4.130  12.710 -0.4519  0.3721 -0.2102
13210TIP3   OH261120   0.680   0.051  12.919 -0.2208  0.0197  0.1076
13210TIP3    H161121   0.680  -0.044  12.914 -1.3209  0.0248 -0.1260
13210TIP3    H261122   0.748   0.071  12.983 -0.3651 -0.9467  0.5806
13211TIP3   OH261123   5.736   4.305  12.765  0.0065 -0.1033 -0.6436
13211TIP3    H161124   5.659   4.311  12.822 -1.0300  1.2242 -2.0987
13211TIP3    H261125   5.709   4.245  12.696  0.8808 -0.8926 -0.3118
13212TIP3   OH261126   5.034   4.741  10.915  0.0932 -0.1989  0.0373
13212TIP3    H161127   5.035   4.820  10.969  0.4011  0.5878 -1.1130
13212TIP3    H261128   4.946   4.738  10.879  0.8761  1.2249 -2.1993
13213TIP3   OH261129   5.589   2.976   2.912 -0.3548 -0.1215 -0.6601
13213TIP3    H161130   5.585   2.896   2.964  0.9831 -0.0720 -0.4276
13213TIP3    H261131   5.499   2.993   2.886 -0.6540 -1.7173 -0.7376
13214TIP3   OH261132   6.100   2.126   5.095 -0.1725  0.2710 -0.5689
13214TIP3    H161133   6.025   2.076   5.127  0.5029 -0.2148  0.2949
13214TIP3    H261134   6.175   2.090   5.141  0.3630  1.9895  0.0013
13215TIP3   OH261135   6.161   1.923  15.928  0.0881  0.1194  0.2361
13215TIP3    H161136   6.096   1.993  15.930 -1.1180 -0.9715  1.2471
13215TIP3    H261137   6.156   1.884  16.015  0.5604 -1.3577 -0.3747
13216TIP3   OH261138   2.039   4.261  12.272 -0.4204  0.1669  0.2571
13216TIP3    H161139   2.023   4.205  12.348 -1.9422  1.4331  0.9258
13216TIP3    H261140   1.955   4.303  12.256 -0.0369  0.2208 -1.9224
13217TIP3   OH261141   2.352   3.947  16.274 -0.7013  0.2292 -0.1434
13217TIP3    H161142   2.356   3.882  16.203  1.7159 -0.7284  0.7465
13217TIP3    H261143   2.351   4.031  16.229  0.2371 -0.3714 -1.3416
13218TIP3   OH261144   3.874   1.018  11.188 -0.1351  0.5053  0.4576
13218TIP3    H161145   3.967   1.036  11.204  0.6468 -3.4018  1.4713
13218TIP3    H261146   3.872   0.982  11.099 -0.4685 -0.2576  0.7632
13219TIP3   OH261147   2.229   4.483   5.618 -0.5139 -0.5645 -0.4131
13219TIP3    H161148   2.233   4.544   5.544 -0.2315  0.3740  0.3463
13219TIP3    H261149   2.137   4.459   5.624 -0.4187 -1.3058 -1.5617
13220TIP3   OH261150   3.907   1.752   0.573 -0.3890 -0.0694 -0.3411
13220TIP3    H161151   3.861   1.753   0.489  0.2724 -1.9466 -0.7737
13220TIP3    H261152   4.000   1.747   0.549 -0.2308 -1.7437  0.4386
13221TIP3   OH261153   1.583   1.172  17.071  0.4990 -0.0431 -0.3579
13221TIP3    H161154   1.498   1.158  17.029  0.1811  1.1286 -0.1337
13221TIP3    H261155   1.612   1.257  17.040  0.7611  0.3723  0.9351
13222TIP3   OH261156   4.252   4.885   5.695 -0.4156 -0.1714 -0.0196
13222TIP3    H161157   4.265   4.934   5.776 -0.3491  2.2667 -1.4121
13222TIP3    H261158   4.244   4.794   5.723  0.3635  0.4929  2.6321
13223TIP3   OH261159   5.098   4.716  12.903  0.3945  0.6947  0.0316
13223TIP3    H161160   5.051   4.772  12.843 -2.1396  4.8729  5.1141
13223TIP3    H261161   5.191   4.734  12.887 -0.2621  3.1644 -1.2969
13224TIP3   OH261162   4.197   3.947  11.439 -0.2553 -0.0371  0.4622
13224TIP3    H161163   4.266   3.880  11.441 -0.4773 -0.4011 -1.5074
13224TIP3    H261164   4.161   3.948  11.527  0.3898 -1.8666  0.7850
13225TIP3   OH261165   5.674   0.386  12.860  0.1404 -0.4293  0.1856
13225TIP3    H161166   5.617   0.447  12.906  0.3520  0.5526 -0.8115
13225TIP3    H261167   5.615   0.332  12.808  0.1228  1.3052 -1.7026
13226TIP3   OH261168   5.970   2.667  15.085  0.0267  0.3791  0.2162
13226TIP3    H161169   5.877   2.647  15.093  0.2333 -0.1903  1.3332
13226TIP3    H261170   6.013   2.605  15.144  0.9496  1.9827  1.2793
13227TIP3   OH261171   4.691   4.902   0.729  0.1464  0.5160 -0.4464
13227TIP3    H161172   4.740   4.877   0.807 -0.4582 -0.4136 -0.3562
13227TIP3    H261173   4.632   4.971   0.759  0.0590  0.3032 -0.1269
13228TIP3   OH261174   3.474   2.625  15.946  0.1630 -0.5644 -0.2050
13228TIP3    H161175   3.507   2.578  16.023  0.1870 -2.4477 -1.3096
13228TIP3    H261176   3.380   2.632  15.962  0.3492  0.2740  0.6040
13229TIP3   OH261177   5.506   0.697   3.698  0.1478 -0.5598 -0.0056
13229TIP3    H161178   5.449   0.756   3.649  0.2488 -0.3683  0.1072
13229TIP3    H261179   5.586   0.747   3.712 -0.2508 -0.2480  1.2373
13230TIP3   OH261180   0.054   1.917  17.375 -0.0890  0.1908  0.3572
13230TIP3    H161181   0.059   1.869  17.292  2.5331  1.2704 -0.2063
13230TIP3    H261182  -0.031   1.962  17.371  0.7530  1.8184 -2.7741
13231TIP3   OH261183   1.956   5.118  13.505  0.1086  0.1719  0.3931
13231TIP3    H161184   1.870   5.086  13.477 -0.1253 -0.0534  1.3390
13231TIP3    H261185   1.945   5.139  13.598  0.5600  1.9182  0.0999
13232TIP3   OH261186   1.910   0.090   1.343  0.4584  0.5598  0.3775
13232TIP3    H161187   1.836   0.078   1.283 -1.5264 -1.3117  2.9756
13232TIP3    H261188   1.957   0.166   1.308 -1.6290  0.7389 -2.4030
13233TIP3   OH261189   2.972   1.271   4.027  0.3918 -0.0626 -0.1430
13233TIP3    H161190   2.987   1.186   3.984 -0.9386  0.4131 -1.6360
13233TIP3    H261191   3.059   1.309   4.035  1.0793 -1.7479  0.9914
13234TIP3   OH261192   6.518   2.267  12.200  0.4804  0.5942 -0.1956
13234TIP3    H161193   6.551   2.181  12.222 -1.5758 -0.9328 -2.5160
13234TIP3    H261194   6.454   2.287  12.269  0.1272 -0.2988 -0.2492
13235TIP3   OH261195   1.350   4.102   2.966 -0.3804 -0.1753 -0.5552
13235TIP3    H161196   1.334   4.008   2.961 -0.7733 -0.0624 -1.5147
13235TIP3    H261197   1.397   4.123   2.886 -2.0138  0.7630 -1.3189
13236TIP3   OH261198   0.677   0.217  11.880  0.2565 -0.0231 -0.5588
13236TIP3    H161199   0.717   0.136  11.911  0.3964  0.5659  0.8943
13236TIP3    H261200   0.614   0.189  11.813  0.7835 -1.2542 -0.5595
13237TIP3   OH261201   2.249   3.732   4.096  0.1808  0.4145  0.5941
13237TIP3    H161202   2.334   3.746   4.054 -0.5476  1.5209 -0.5966
13237TIP3    H261203   2.204   3.670   4.039 -1.3495  2.9844 -1.1740
13238TIP3   OH261204   1.806   5.866   3.060  0.0369  0.0368 -0.0442
13238TIP3    H161205   1.780   5.959   3.060 -1.4169 -0.3429 -0.6314
13238TIP3    H261206   1.898   5.868   3.035 -0.0219  1.3194 -0.2717
13239TIP3   OH261207   4.913   1.942  12.113  0.0915  0.0698  0.2071
13239TIP3    H161208   4.912   2.037  12.126 -0.1016  0.2930 -1.2590
13239TIP3    H261209   4.820   1.918  12.113  0.1141 -0.0195 -0.0165
13240TIP3   OH261210   1.906   5.021   1.184  0.4218  0.0471 -0.1578
13240TIP3    H161211   1.937   4.931   1.187  2.2426  0.6668  1.6051
13240TIP3    H261212   1.985   5.074   1.179 -0.4838  1.5991  0.9042
13241TIP3   OH261213   2.692   3.513   1.288  0.0273  0.4245 -0.5049
13241TIP3    H161214   2.634   3.487   1.216  1.6276 -0.5326 -1.5162
13241TIP3    H261215   2.780   3.507   1.251  0.8822  0.2535  1.4518
13242TIP3   OH261216   5.063   5.499   0.784  0.3738  0.5870 -0.4179
13242TIP3    H161217   5.036   5.576   0.734  0.2080 -0.1280 -1.4821
13242TIP3    H261218   5.012   5.427   0.746  0.8706 -0.1290  0.2261
13243TIP3   OH261219   4.307   2.622  16.835 -0.5530 -0.5065  0.2442
13243TIP3    H161220   4.236   2.652  16.779 -1.5033 -0.9780  1.1539
13243TIP3    H261221   4.308   2.527  16.824  2.2967 -0.3252 -2.4657
13244TIP3   OH261222   2.054   6.405   5.004  0.1216  0.1300  0.1769
13244TIP3    H161223   2.016   6.394   4.917  0.5705  3.6394 -0.5740
13244TIP3    H261224   2.078   6.316   5.030 -2.1841 -1.3580 -2.2229
13245TIP3   OH261225   4.412   6.434  15.857  0.0267  0.1602  0.6478
13245TIP3    H161226   4.374   6.498  15.917  0.0006  1.5886 -0.8173
13245TIP3    H261227   4.358   6.439  15.778  2.0900  0.9548 -0.8246
13246TIP3   OH261228   4.474   2.766  15.400  0.3037  0.7482 -0.3577
13246TIP3    H161229   4.526   2.840  15.369 -1.4743  1.8780 -0.7836
13246TIP3    H261230   4.386   2.802  15.415 -0.3873 -1.0726  0.3400
13247TIP3   OH261231   5.448   0.714   0.967  0.1677 -0.0567 -0.5778
13247TIP3    H161232   5.391   0.756   1.032 -1.0168 -0.5942 -1.2395
13247TIP3    H261233   5.531   0.761   0.974 -0.5089  1.0866  0.0667
13248TIP3   OH261234   5.750   3.974  14.401 -0.2412  0.0393  0.0805
13248TIP3    H161235   5.845   3.983  14.390 -0.0231 -1.8040  0.1793
13248TIP3    H261236   5.724   3.908  14.336 -1.7139  1.5071 -0.9200
13249TIP3   OH261237   1.386   4.691  15.554  1.2915 -0.1453  0.1816
13249TIP3    H161238   1.444   4.759  15.520  0.4054  0.6123  0.1292
13249TIP3    H261239   1.423   4.669  15.640  0.9433  1.2902  0.7375
13250TIP3   OH261240   1.679   3.035  13.284  0.2289 -0.0010  0.1543
13250TIP3    H161241   1.626   3.069  13.355  1.1677  0.4326  0.6662
13250TIP3    H261242   1.767   3.069  13.301  0.2989  0.9416 -1.7441
13251TIP3   OH261243   0.355   5.982  13.699  0.1306 -0.3367 -0.1911
13251TIP3    H161244   0.376   6.070  13.729  0.9324 -0.3383 -0.7312
13251TIP3    H261245   0.361   5.987  13.604  1.4991 -1.2874 -0.1833
13252TIP3   OH261246   1.267   3.818   0.384 -0.2758  0.5985 -0.6808
13252TIP3    H161247   1.233   3.885   0.324  1.2581  1.2909 -0.8302
13252TIP3    H261248   1.196   3.804   0.447 -2.0657 -0.3575 -2.7728
13253TIP3   OH261249   1.294   0.428   3.388  0.3451 -0.0517 -0.1530
13253TIP3    H161250   1.321   0.346   3.428  0.0605 -0.7972 -1.4386
13253TIP3    H261251   1.224   0.461   3.445  1.3723  0.0169  1.1211
13254TIP3   OH261252   5.576   2.659  13.723  0.4504  0.6654 -0.3838
13254TIP3    H161253   5.550   2.571  13.694 -0.1862  0.5478  0.5211
13254TIP3    H261254   5.619   2.645  13.807  2.4214  0.9940 -1.2584
13255TIP3   OH261255   1.236   6.665  16.364 -0.3899 -0.3334 -0.2651
13255TIP3    H161256   1.230   6.622  16.449 -0.4466 -1.2220 -0.7159
13255TIP3    H261257   1.179   6.742  16.372  1.2092  0.7587  1.1824
13256TIP3   OH261258   5.131   4.742   5.282  0.3560 -0.3433  0.1998
13256TIP3    H161259   5.132   4.672   5.347  0.0899  0.0357  0.6087
13256TIP3    H261260   5.123   4.696   5.198 -0.0217 -0.7916  0.4804
13257TIP3   OH261261   4.742   2.050   1.169 -0.2279  0.0501 -0.3357
13257TIP3    H161262   4.778   2.125   1.217  2.8051  0.1532 -2.4477
13257TIP3    H261263   4.807   1.981   1.182 -1.9243 -1.5751 -0.1468
13258TIP3   OH261264   1.524   2.379   3.112 -0.1082 -0.3333  0.4522
13258TIP3    H161265   1.536   2.331   3.194  0.5183 -0.4548  0.2952
13258TIP3    H261266   1.435   2.414   3.117 -1.3411 -3.0975 -0.2630
13259TIP3   OH261267   0.364   4.397  16.265 -0.2707  0.2697  0.1334
13259TIP3    H161268   0.400   4.473  16.219  0.3784 -0.1051  0.0170
13259TIP3    H261269   0.416   4.323  16.235 -1.9745 -0.5100 -1.0358
13260TIP3   OH261270   6.395   4.639  15.703 -0.3647 -0.0476  0.1923
13260TIP3    H161271   6.430   4.628  15.792  0.2631 -0.8943 -0.1414
13260TIP3    H261272   6.413   4.555  15.660 -2.7256 -0.4889 -0.0555
13261TIP3   OH261273   1.196   5.469   4.554 -0.0826 -0.2841  0.4327
13261TIP3    H161274   1.162   5.401   4.497 -0.8703 -0.3606  0.9852
13261TIP3    H261275   1.288   5.479   4.528 -0.5623  0.0722 -1.2233
13262TIP3   OH261276   4.510   4.765  12.716 -0.4264 -0.3826 -0.4754
13262TIP3    H161277   4.548   4.705  12.652 -0.6220  0.0520 -1.0118
13262TIP3    H261278   4.458   4.827  12.663 -1.4911 -0.6778  0.1963
13263TIP3   OH261279   5.686   3.438   2.962 -0.3222  0.0888  0.5227
13263TIP3    H161280   5.767   3.411   2.918 -0.9252 -1.1284  0.1011
13263TIP3    H261281   5.672   3.528   2.934 -0.0572 -0.2695 -0.8774
13264TIP3   OH261282   1.678   2.694  17.000 -0.2895 -0.2802 -0.6607
13264TIP3    H161283   1.766   2.658  16.991 -1.0233 -2.1620 -0.8625
13264TIP3    H261284   1.663   2.695  17.095  0.3049  1.0334 -0.5628
13265TIP3   OH261285   1.290   0.643  13.798 -0.3783 -0.5239 -0.2887
13265TIP3    H161286   1.260   0.556  13.826 -0.6852 -0.4348 -0.3326
13265TIP3    H261287   1.371   0.657  13.845 -0.3085 -0.8507 -0.3045
13266TIP3   OH261288   1.568   3.691  11.850  0.4268  0.3034 -0.3724
13266TIP3    H161289   1.492   3.659  11.898  0.1258  0.9419 -0.4105
13266TIP3    H261290   1.565   3.645  11.766  1.5022 -1.5620  0.5363
13267TIP3   OH261291   3.982   1.789  17.288 -0.5457  0.5329 -0.1357
13267TIP3    H161292   4.021   1.851  17.350 -0.8978 -0.2784  0.9350
13267TIP3    H261293   3.910   1.837  17.247 -0.1975  1.1379 -0.0438
13268TIP3   OH261294   3.319   0.425  16.866 -0.9573  0.1014  0.0031
13268TIP3    H161295   3.227   0.430  16.889 -1.0048 -0.6132  0.0043
13268TIP3    H261296   3.330   0.338  16.828  0.3201 -1.1318  2.8543
13269TIP3   OH261297   6.075   2.545   0.414 -0.7317  0.1961 -0.3548
13269TIP3    H161298   6.138   2.539   0.486 -0.5504 -1.6622 -0.6323
13269TIP3    H261299   5.995   2.507   0.448 -1.2697  1.1660 -0.5016
13270TIP3   OH261300   6.431   0.475   1.522 -0.3484  0.5779 -0.5410
13270TIP3    H161301   6.484   0.431   1.456 -0.7479 -0.2553 -0.3198
13270TIP3    H261302   6.341   0.461   1.494 -0.4808  2.3654 -1.1528
13271TIP3   OH261303   4.207   2.858   5.684 -0.1111  0.6397 -0.5055
13271TIP3    H161304   4.122   2.812   5.688  0.8603 -1.2353  0.0238
13271TIP3    H261305   4.260   2.815   5.752  1.8515  0.4568 -2.0532
13272TIP3   OH261306   2.502   5.045   5.039  0.1411  0.1784 -0.4721
13272TIP3    H161307   2.496   4.949   5.044  0.4752  0.1993  0.9370
13272TIP3    H261308   2.433   5.076   5.099  1.7424  0.7424  1.1770
13273TIP3   OH261309   1.056   0.929  13.855  0.2485 -0.5606  0.7511
13273TIP3    H161310   1.087   0.869  13.922 -0.8928 -1.5388  0.4189
13273TIP3    H261311   1.101   0.901  13.775  1.0942  0.1862  0.9427
13274TIP3   OH261312   1.079   1.445  13.807  0.7550  0.5681 -0.2233
13274TIP3    H161313   1.061   1.507  13.736  2.9076 -0.5073 -1.8116
13274TIP3    H261314   1.174   1.435  13.808  0.7094 -0.3806  2.0691
13275TIP3   OH261315   5.173   2.247   2.735  0.4856 -0.4591  0.2634
13275TIP3    H161316   5.130   2.185   2.676 -0.4090  0.5202 -0.1426
13275TIP3    H261317   5.150   2.216   2.822  2.1624 -2.1646  0.1829
13276TIP3   OH261318   0.289   4.969  13.600 -0.2447  0.1562 -0.0796
13276TIP3    H161319   0.199   4.943  13.623 -0.6149  0.4513 -1.1391
13276TIP3    H261320   0.323   5.008  13.680 -1.2757  0.6036  0.1638
13277TIP3   OH261321   6.395   1.709   4.707 -0.2832  0.7918  0.0491
13277TIP3    H161322   6.445   1.642   4.660  1.7873  0.9094  1.9105
13277TIP3    H261323   6.380   1.778   4.642 -0.2032 -0.3306 -1.2105
13278TIP3   OH261324   0.862   6.541   2.456  0.6314  0.1227  0.0920
13278TIP3    H161325   0.943   6.519   2.503  0.4994  0.4633  0.4900
13278TIP3    H261326   0.798   6.479   2.489  0.4002  0.7123  0.7923
13279TIP3   OH261327   3.709   2.982  13.329 -0.1184  0.5514 -0.1927
13279TIP3    H161328   3.733   3.056  13.273  1.4377 -0.9993 -1.6815
13279TIP3    H261329   3.749   3.002  13.413  0.6118  1.2244 -0.6883
13280TIP3   OH261330   5.162   0.418   2.108  0.2251  0.0744 -0.1867
13280TIP3    H161331   5.141   0.406   2.016 -0.9356  2.6671 -0.3463
13280TIP3    H261332   5.257   0.431   2.110  0.1680  0.6742 -1.1084
13281TIP3   OH261333   3.028   1.042   4.540  0.4191 -0.1183 -0.4796
13281TIP3    H161334   2.934   1.027   4.547  0.7302 -1.3379  2.2345
13281TIP3    H261335   3.064   0.959   4.508  0.5894  0.4253 -1.7613
13282TIP3   OH261336   1.544   0.094  15.318 -0.4713 -0.2306  0.0227
13282TIP3    H161337   1.505   0.088  15.231 -0.5910  1.7926 -0.1160
13282TIP3    H261338   1.471   0.117  15.376 -0.1641 -0.2830  0.4341
13283TIP3   OH261339   4.654   3.132   4.384  0.1611  0.3457 -0.3605
13283TIP3    H161340   4.731   3.109   4.332  0.1124 -1.5499  0.3344
13283TIP3    H261341   4.608   3.049   4.398 -0.6266  1.0247  1.4476
13284TIP3   OH261342   5.280   3.977   1.056 -0.3766  0.5686 -0.0828
13284TIP3    H161343   5.256   4.040   1.123 -0.2355 -0.7808  1.2903
13284TIP3    H261344   5.331   3.911   1.102 -0.6712 -0.6475 -1.4186
13285TIP3   OH261345   1.569   6.352  10.992  0.5244 -0.3662 -0.5167
13285TIP3    H161346   1.655   6.327  11.025  0.0738  0.2051  1.2149
13285TIP3    H261347   1.537   6.274  10.947  2.0555 -0.4793 -1.4565
13286TIP3   OH261348   2.098   0.750  11.320 -0.1269  1.2464 -0.2256
13286TIP3    H161349   2.049   0.832  11.316  0.3540  1.5988  0.7560
13286TIP3    H261350   2.036   0.684  11.290 -0.3788  2.0160 -1.4476
13287TIP3   OH261351   5.888   2.600   4.136 -0.0396  0.3183 -0.0288
13287TIP3    H161352   5.814   2.652   4.106 -1.4942 -1.1896  0.7327
13287TIP3    H261353   5.909   2.544   4.061 -0.0764  0.3265 -0.0454
13288TIP3   OH261354   3.198   6.003  15.740 -0.4183  0.0803 -0.3179
13288TIP3    H161355   3.210   6.043  15.654  0.8263 -0.2575 -0.3096
13288TIP3    H261356   3.218   5.911  15.728 -0.4225 -0.0062  0.2857
13289TIP3   OH261357   2.525   5.876   3.653  0.4020 -0.5453 -0.7217
13289TIP3    H161358   2.557   5.860   3.741  1.8915 -0.5408 -1.2374
13289TIP3    H261359   2.449   5.933   3.665  1.3807  0.5606  0.4787
13290TIP3   OH261360   5.543   5.602   5.626 -0.2701 -0.0589 -0.2233
13290TIP3    H161361   5.552   5.561   5.540 -0.1790 -0.2463 -0.1273
13290TIP3    H261362   5.466   5.560   5.665 -1.5640  1.5065 -1.0187
13291TIP3   OH261363   1.989   3.506   1.499 -0.5395 -0.0088 -0.0912
13291TIP3    H161364   2.017   3.477   1.412 -0.0840  0.5959 -0.1477
13291TIP3    H261365   1.941   3.431   1.534  1.3553 -1.1967  0.1184
13292TIP3   OH261366   1.442   1.376  17.240  0.1138 -0.3599  0.0201
13292TIP3    H161367   1.487   1.298  17.274 -0.3910 -0.1060  1.3388
13292TIP3    H261368   1.349   1.356  17.248 -0.0960  1.2430  2.6782
13293TIP3   OH261369   1.954   1.730   1.317 -0.7859 -0.2123  0.8961
13293TIP3    H161370   2.008   1.666   1.272 -0.1484  0.3646  0.8351
13293TIP3    H261371   1.867   1.718   1.279 -0.5595 -0.6768  0.5121
13294TIP3   OH261372   6.491   5.935  15.924 -0.1682 -0.1831 -0.1318
13294TIP3    H161373   6.554   5.981  15.868  0.5760 -0.1627  0.7034
13294TIP3    H261374   6.541   5.866  15.967 -1.3945 -2.2189 -1.7966
13295TIP3   OH261375   2.527   4.202   4.015  0.1911  0.1244  0.2613
13295TIP3    H161376   2.541   4.285   4.059  1.1056 -0.6535  1.5185
13295TIP3    H261377   2.593   4.200   3.946  0.8326  0.0483  0.8566
13296TIP3   OH261378   6.364   2.001   2.184 -0.0474 -0.2926  0.4221
13296TIP3    H161379   6.408   2.002   2.099 -1.5081 -1.2346 -0.3930
13296TIP3    H261380   6.271   2.008   2.162 -0.3559  1.4516  2.0612
13297TIP3   OH261381   4.991   6.344   3.986 -0.6646  0.7857 -0.2461
13297TIP3    H161382   4.990   6.260   3.941 -1.2605  0.4401  0.3928
13297TIP3    H261383   5.069   6.340   4.042 -1.1918  0.2811  0.4663
13298TIP3   OH261384   3.812   3.797   2.376  0.3031  0.4569 -0.3412
13298TIP3    H161385   3.787   3.861   2.443 -0.9377 -0.3302 -0.0398
13298TIP3    H261386   3.892   3.834   2.337  0.9378  1.0321  1.4182
13299TIP3   OH261387   5.166   1.016   5.158  0.2828  0.0978  0.9923
13299TIP3    H161388   5.109   0.948   5.122 -1.3155  1.1408  1.4698
13299TIP3    H261389   5.175   0.993   5.251  0.0163  0.3465  1.0806
13300TIP3   OH261390   4.132   0.153   1.693  0.0388 -0.3586 -0.0700
13300TIP3    H161391   4.067   0.121   1.630  1.9496 -0.0882 -2.2844
13300TIP3    H261392   4.212   0.105   1.672  1.6897  2.2570 -0.2693
13301TIP3   OH261393   4.045   1.106  15.750  0.2444  0.2824  0.2467
13301TIP3    H161394   3.990   1.136  15.823  0.0403 -0.6209  0.4739
13301TIP3    H261395   3.985   1.102  15.675 -0.2385 -1.4765  0.6707
13302TIP3   OH261396   4.750   1.378  14.231 -0.3786 -0.8670  0.0608
13302TIP3    H161397   4.754   1.289  14.267  0.4921 -0.4316  1.0931
13302TIP3    H261398   4.831   1.420  14.261 -1.5798  0.8370  1.1340
13303TIP3   OH261399   6.322   6.215  14.689  0.0613 -0.1332  0.4180
13303TIP3    H161400   6.259   6.171  14.631 -1.2068  2.1987 -0.0747
13303TIP3    H261401   6.406   6.202  14.646 -0.3788 -1.2853 -0.1623
13304TIP3   OH261402   1.025   3.635  16.139  0.0788 -0.2592  0.0696
13304TIP3    H161403   1.035   3.697  16.211  1.0166 -0.8666  0.4878
13304TIP3    H261404   1.115   3.622  16.106 -0.3854  0.4838 -1.6407
13305TIP3   OH261405   1.450   4.712   4.176 -0.0739 -0.1726  0.1534
13305TIP3    H161406   1.534   4.718   4.130  0.1782  4.0644  0.8142
13305TIP3    H261407   1.459   4.634   4.232  3.9478  0.7558  1.0932
13306TIP3   OH261408   0.048   0.427   0.761  0.0703  0.7749  0.0563
13306TIP3    H161409  -0.041   0.401   0.787  0.3676  0.6736  1.0336
13306TIP3    H261410   0.071   0.367   0.690  1.0473 -2.3693  2.7809
13307TIP3   OH261411   1.026   1.811  17.337  0.0167  0.0331 -0.5464
13307TIP3    H161412   1.068   1.895  17.315 -2.7869  1.2968 -1.5955
13307TIP3    H261413   0.986   1.827  17.422 -1.2322  0.0698 -1.1308
13308TIP3   OH261414   4.020   5.420  17.350  0.0014 -0.4578  0.3488
13308TIP3    H161415   4.003   5.358  17.279  2.3772 -2.2565  1.2221
13308TIP3    H261416   4.045   5.501  17.307  0.3705 -1.1971 -0.8494
13309TIP3   OH261417   2.752   5.557   1.805  0.5203 -0.1261 -0.5523
13309TIP3    H161418   2.826   5.513   1.763 -0.4784 -0.3408 -2.1420
13309TIP3    H261419   2.712   5.489   1.859  1.4123 -0.0280  0.2635
13310TIP3   OH261420   3.534   3.669  15.214  0.4682  0.1526  0.6080
13310TIP3    H161421   3.521   3.759  15.242 -0.4548 -0.6376  2.8783
13310TIP3    H261422   3.584   3.629  15.285  0.6866 -1.1947 -0.2721
13311TIP3   OH261423   1.379   4.199   5.435  0.0318 -0.0252 -0.3091
13311TIP3    H161424   1.340   4.153   5.360 -0.4132  0.6155 -0.4735
13311TIP3    H261425   1.471   4.210   5.410  0.6196 -2.4212  0.4984
13312TIP3   OH261426   5.702   0.204  14.514  0.4894  0.1199 -0.3045
13312TIP3    H161427   5.691   0.110  14.525  1.4466 -0.2582 -2.0519
13312TIP3    H261428   5.646   0.226  14.440 -0.4342  1.1265  0.6637
13313TIP3   OH261429   2.540   0.672  13.287  0.3458 -0.0612 -0.0000
13313TIP3    H161430   2.477   0.689  13.217  1.4465  2.0058 -0.5868
13313TIP3    H261431   2.623   0.706  13.253  1.1086  0.1673  1.9458
13314TIP3   OH261432   2.326   2.362  15.724  0.3155  0.2530  0.0858
13314TIP3    H161433   2.321   2.453  15.695  0.5580  0.3866  0.4597
13314TIP3    H261434   2.418   2.338  15.713 -0.1525 -0.7387 -2.3800
13315TIP3   OH261435   3.508   0.816   3.909  0.5273 -0.0945  0.5987
13315TIP3    H161436   3.434   0.862   3.870  0.5791  0.9078  1.6359
13315TIP3    H261437   3.502   0.835   4.003  0.9687 -1.6237  0.9737
13316TIP3   OH261438   1.279   6.218  14.164  0.5629 -0.0832 -0.0099
13316TIP3    H161439   1.279   6.179  14.252  0.9728  0.4834  0.2540
13316TIP3    H261440   1.295   6.311  14.180 -0.6307  0.2409 -0.6130
13317TIP3   OH261441   6.363   1.087  16.835  0.3100 -0.3177 -0.1386
13317TIP3    H161442   6.413   1.059  16.911 -1.4333  0.6712  1.4620
13317TIP3    H261443   6.399   1.173  16.813 -0.4228  0.2535  0.8135
13318TIP3   OH261444   6.022   1.426   6.047  0.3017 -0.0138  0.0796
13318TIP3    H161445   6.003   1.455   6.136 -0.3189 -0.3872  0.0746
13318TIP3    H261446   5.986   1.495   5.991 -0.5309 -0.4425  0.0851
13319TIP3   OH261447   2.335   5.226  13.950 -1.0786  0.4341 -0.4649
13319TIP3    H161448   2.294   5.308  13.924 -3.4193 -0.0929  1.2737
13319TIP3    H261449   2.272   5.185  14.009  0.4011 -2.2153 -0.5732
13320TIP3   OH261450   4.227   3.174   5.038 -0.5171 -0.5828 -0.1295
13320TIP3    H161451   4.157   3.183   4.973 -0.1423  1.5886 -0.3006
13320TIP3    H261452   4.200   3.231   5.110  0.6309 -0.4431  0.2107
13321TIP3   OH261453   1.245   2.201   2.819 -0.4226  0.3604 -0.7463
13321TIP3    H161454   1.326   2.252   2.810  0.4866 -1.0584 -0.8275
13321TIP3    H261455   1.226   2.170   2.730 -0.8695  0.3885 -0.6659
13322TIP3   OH261456   4.965   3.637  12.934 -0.2314  0.2275 -0.1202
13322TIP3    H161457   5.035   3.579  12.965  0.9773  1.6638  0.0009
13322TIP3    H261458   5.010   3.719  12.914 -1.4484  0.3581 -2.7639
13323TIP3   OH261459   2.993   1.265   5.991  0.1055  0.2355  0.0709
13323TIP3    H161460   3.052   1.303   5.926 -1.1821  1.1367 -0.6091
13323TIP3    H261461   2.977   1.335   6.053  0.0586 -0.1275  0.4732
13324TIP3   OH261462   1.987   2.437  16.332  0.2339  0.4041 -0.4827
13324TIP3    H161463   2.059   2.484  16.289 -0.1829  0.5900 -0.9843
13324TIP3    H261464   1.950   2.381  16.264 -1.4541  1.8669 -0.8453
13325TIP3   OH261465   0.850   1.864  15.658  0.2674  0.1548 -0.1335
13325TIP3    H161466   0.845   1.776  15.695 -2.2616  0.2147 -0.1579
13325TIP3    H261467   0.765   1.904  15.679  1.2151  2.4733 -0.4231
13326TIP3   OH261468   6.060   5.717  12.240  0.6224 -0.7212  0.0677
13326TIP3    H161469   6.133   5.725  12.180 -0.1597 -0.4673 -0.8797
13326TIP3    H261470   6.009   5.797  12.228 -0.2716 -1.2671  0.0571
13327TIP3   OH261471   3.512   5.635   5.942 -0.2534 -0.3462 -0.5594
13327TIP3    H161472   3.598   5.675   5.928  0.4923 -0.6987  2.2919
13327TIP3    H261473   3.452   5.710   5.944  0.3379  0.1376 -0.3356
13328TIP3   OH261474   1.380   3.289   4.694  0.9206 -0.3635 -0.9842
13328TIP3    H161475   1.297   3.331   4.671  0.1636 -1.0027  0.3922
13328TIP3    H261476   1.444   3.360   4.697  0.1370  0.3465 -0.7755
13329TIP3   OH261477   4.919   3.971  13.084  0.2136  0.2620  0.5791
13329TIP3    H161478   4.955   3.978  12.996 -0.3884 -1.0060  0.2011
13329TIP3    H261479   4.849   4.037  13.086  0.4431  0.5217  0.2198
13330TIP3   OH261480   0.565   5.164   4.242 -0.0424  0.0022 -0.0695
13330TIP3    H161481   0.562   5.071   4.220 -1.5033 -0.2581  1.0666
13330TIP3    H261482   0.549   5.167   4.336  0.3057  1.3904 -0.0294
13331TIP3   OH261483   2.138   0.239  14.415  0.4025  0.0439 -0.5994
13331TIP3    H161484   2.090   0.158  14.399 -0.1656  0.1253  0.5778
13331TIP3    H261485   2.210   0.238  14.352 -0.1352 -0.9305 -1.2064
13332TIP3   OH261486   1.242   3.552   0.735  0.0696 -0.1584  0.4697
13332TIP3    H161487   1.313   3.591   0.684 -0.9883 -0.5916 -1.4311
13332TIP3    H261488   1.254   3.458   0.724 -1.6716 -0.2325 -1.2282
13333TIP3   OH261489   5.953   2.238   3.625  0.6881 -0.8252  0.8685
13333TIP3    H161490   5.878   2.295   3.642  0.8105 -1.0908  2.5144
13333TIP3    H261491   6.026   2.298   3.607  0.4333 -0.5116  0.8816
13334TIP3   OH261492   5.313   4.257  17.078 -0.4846 -0.4736 -0.0534
13334TIP3    H161493   5.335   4.285  16.989  0.1796  1.1197  0.5752
13334TIP3    H261494   5.288   4.165  17.069 -5.3388  0.7572 -2.6988
13335TIP3   OH261495   4.727   3.599   5.198  0.1448 -0.2535 -0.0041
13335TIP3    H161496   4.730   3.682   5.246  0.3666  1.0810 -2.1750
13335TIP3    H261497   4.819   3.578   5.181  0.0655 -0.5411 -0.0891
13336TIP3   OH261498   2.527   1.530   0.593  0.2051  0.4097 -0.4831
13336TIP3    H161499   2.459   1.487   0.645 -1.8563  0.9324 -2.5995
13336TIP3    H261500   2.586   1.459   0.568 -0.7633 -0.4577 -0.3986
13337TIP3   OH261501   2.293   0.791   3.971 -0.0215  0.3933  0.2359
13337TIP3    H161502   2.226   0.847   4.012  0.0392  1.6920 -1.3403
13337TIP3    H261503   2.246   0.744   3.902  0.4601  0.4902 -0.1655
13338TIP3   OH261504   1.586   5.829  11.279  0.4128  0.3938  0.0432
13338TIP3    H161505   1.670   5.823  11.325  1.2772 -0.9999 -1.5939
13338TIP3    H261506   1.610   5.851  11.189 -0.7398 -2.1764 -0.9846
13339TIP3   OH261507   0.839   1.236   0.355 -0.3492 -0.0498 -0.0430
13339TIP3    H161508   0.761   1.291   0.348  0.5973  1.2262 -0.7554
13339TIP3    H261509   0.873   1.254   0.443 -1.4821 -1.5118  0.7392
13340TIP3   OH261510   1.340   6.636   1.647 -0.6132  0.1331 -0.2142
13340TIP3    H161511   1.314   6.544   1.649 -0.1004 -0.0601 -1.3367
13340TIP3    H261512   1.397   6.647   1.723 -1.1126 -0.3365  0.2307
13341TIP3   OH261513   1.304   1.011  17.217  0.4375  0.3810 -0.5104
13341TIP3    H161514   1.304   1.050  17.130  0.3593  0.1934 -0.5969
13341TIP3    H261515   1.258   1.074  17.272 -1.9234 -0.6412 -1.1519
13342TIP3   OH261516   4.740   1.565   1.904 -0.5620  0.0786 -0.1455
13342TIP3    H161517   4.792   1.565   1.984  0.6255  0.0624 -0.8924
13342TIP3    H261518   4.659   1.519   1.928 -0.3906  0.4027  1.1269
13343TIP3   OH261519   6.513   6.341  16.648 -0.2331  0.0720  0.1634
13343TIP3    H161520   6.587   6.299  16.605 -0.2190  1.4641 -1.2843
13343TIP3    H261521   6.437   6.292  16.618 -0.1760  0.7133 -1.1263
13344TIP3   OH261522   3.907   0.906  13.907 -0.0899  0.4258 -0.0597
13344TIP3    H161523   3.868   0.968  13.969  0.1702  0.6288 -0.0992
13344TIP3    H261524   3.956   0.961  13.846 -0.3304  0.2237 -0.4370
13345TIP3   OH261525   4.980   5.906   2.500 -0.2073  0.2055  0.7895
13345TIP3    H161526   5.072   5.921   2.524 -0.2491  0.4021  0.8277
13345TIP3    H261527   4.984   5.836   2.434  0.1427  1.6770 -0.8026
13346TIP3   OH261528   2.396   1.664   1.054 -0.1108 -0.1997 -0.5056
13346TIP3    H161529   2.457   1.706   0.994 -1.6872  0.9256 -1.3755
13346TIP3    H261530   2.311   1.703   1.035 -1.2510 -2.1184  0.2559
13347TIP3   OH261531   4.092   6.598   1.871 -0.0894 -0.0946  0.2609
13347TIP3    H161532   4.152   6.661   1.832  0.4705 -0.5540  0.3698
13347TIP3    H261533   4.126   6.512   1.845  0.2315 -0.4075  1.6341
13348TIP3   OH261534   0.538   4.072   3.207  0.1369 -0.2198  0.0222
13348TIP3    H161535   0.575   4.156   3.236  2.7176 -1.2188 -0.0867
13348TIP3    H261536   0.551   4.073   3.112  0.4024 -0.8220  0.0518
13349TIP3   OH261537   3.235   4.882  14.146 -0.5226 -0.1756 -0.3389
13349TIP3    H161538   3.186   4.961  14.124 -1.8395 -1.2199 -1.4193
13349TIP3    H261539   3.311   4.884  14.089 -1.0744 -0.1603 -1.0920
13350TIP3   OH261540   1.590   4.698  13.810 -0.1204 -0.4616  0.0898
13350TIP3    H161541   1.567   4.612  13.845 -1.2892  0.1881  0.9773
13350TIP3    H261542   1.678   4.687  13.776  0.0024 -1.8382  0.7869
13351TIP3   OH261543   2.682   1.290   2.244  0.5998 -0.3049  0.2580
13351TIP3    H161544   2.627   1.235   2.300 -0.1052  2.6410  2.7545
13351TIP3    H261545   2.621   1.349   2.201  1.5220  0.3862 -0.1414
13352TIP3   OH261546   5.634   3.776  16.364 -0.0230 -0.2534  0.4838
13352TIP3    H161547   5.716   3.770  16.413 -0.1203  1.4736  0.9263
13352TIP3    H261548   5.646   3.716  16.290  0.7935 -1.6096  1.6563
13353TIP3   OH261549   2.355   4.454  15.491  0.3046 -0.5493 -0.0038
13353TIP3    H161550   2.315   4.470  15.576 -0.2436 -0.6201 -0.2441
13353TIP3    H261551   2.288   4.408  15.441  0.1325  0.6016 -0.8956
13354TIP3   OH261552   6.414   6.492  16.396  0.6923  0.6687  0.0838
13354TIP3    H161553   6.360   6.510  16.474  0.3425 -1.3981  0.3598
13354TIP3    H261554   6.481   6.432  16.426 -0.6158 -1.7812 -1.5615
13355TIP3   OH261555   4.009   2.747   1.775 -0.0550  0.0914  1.0419
13355TIP3    H161556   3.930   2.790   1.810  0.0803  1.6370 -0.4134
13355TIP3    H261557   4.046   2.812   1.715  0.8374 -1.6495 -0.3608
13356TIP3   OH261558   6.729   5.730  12.497 -0.3151  0.7764 -0.2769
13356TIP3    H161559   6.796   5.721  12.565  0.7259  2.3239 -1.0472
13356TIP3    H261560   6.647   5.707  12.541  0.4598  0.7982  1.2347
13357TIP3   OH261561   3.994   0.480  15.767 -0.1471  0.6488 -0.4771
13357TIP3    H161562   3.938   0.405  15.746 -0.3644  0.3949  0.9517
13357TIP3    H261563   3.934   0.546  15.801  0.4414  0.1788  1.5748
13358TIP3   OH261564   0.629   2.204   2.954 -0.4923  0.5127  0.2321
13358TIP3    H161565   0.681   2.259   2.896 -0.2033  1.3172  1.2335
13358TIP3    H261566   0.624   2.252   3.036 -3.1393  0.6493  0.0846
13359TIP3   OH261567   6.425   3.928  15.637  0.3613  0.4336  0.0179
13359TIP3    H161568   6.475   4.003  15.604  0.2547  0.5282  0.0687
13359TIP3    H261569   6.344   3.930  15.586 -0.2022  1.1239  0.9020
13360TIP3   OH261570   5.390   5.208  16.155 -0.3191 -0.3889  0.5824
13360TIP3    H161571   5.299   5.181  16.169 -0.6950 -0.3601 -1.4959
13360TIP3    H261572   5.385   5.273  16.084  1.5162 -2.1120 -1.2539
13361TIP3   OH261573   1.444   5.995   4.376 -0.1009 -0.2605  0.1316
13361TIP3    H161574   1.499   5.959   4.445  1.6016  1.7005 -0.1160
13361TIP3    H261575   1.501   6.001   4.299 -0.9703  0.7300 -0.4725
13362TIP3   OH261576   5.005   5.990  14.496  0.0627  0.1295  0.2001
13362TIP3    H161577   4.964   6.066  14.539  0.6981  1.1253 -0.9041
13362TIP3    H261578   5.036   6.024  14.412 -0.2712 -1.5386 -0.6326
13363TIP3   OH261579   4.441   0.628  14.035  0.6633 -0.3691 -0.1394
13363TIP3    H161580   4.415   0.695  13.971  0.6259 -0.7966 -0.5813
13363TIP3    H261581   4.448   0.548  13.983  0.8011 -0.6876  0.3686
13364TIP3   OH261582   6.325   5.879  10.998  0.0008 -0.0570  0.1036
13364TIP3    H161583   6.333   5.969  11.031 -0.7870  0.4581 -1.0196
13364TIP3    H261584   6.242   5.879  10.949 -0.5789 -1.7127  1.0045
13365TIP3   OH261585   2.695   2.501   4.065 -0.8897 -0.6389 -0.1823
13365TIP3    H161586   2.717   2.529   4.154 -2.5068 -3.1338  1.1156
13365TIP3    H261587   2.751   2.425   4.049 -1.8892 -1.3156 -0.5418
13366TIP3   OH261588   5.407   5.248  11.758  1.3051 -0.1230 -0.6178
13366TIP3    H161589   5.460   5.178  11.720  0.4700 -0.2207 -1.6547
13366TIP3    H261590   5.450   5.329  11.730  0.9556 -0.2013 -1.4009
13367TIP3   OH261591   1.935   4.911  15.291 -0.0455 -0.3066  0.2041
13367TIP3    H161592   1.870   4.979  15.274 -0.9136 -0.7761  1.5644
13367TIP3    H261593   2.011   4.959  15.325 -0.6077  0.0036  1.0486
13368TIP3   OH261594   4.046   6.169   4.644  0.1770 -0.1111 -0.1638
13368TIP3    H161595   4.070   6.114   4.719  1.3858  1.4620  0.6798
13368TIP3    H261596   4.079   6.121   4.568  1.5584 -0.3992  0.5737
13369TIP3   OH261597   0.957   5.306   0.499 -0.2615  0.5118  0.4631
13369TIP3    H161598   0.908   5.275   0.575 -2.4533  0.3698 -0.9170
13369TIP3    H261599   0.956   5.232   0.438  0.3020  1.0580 -0.2260
13370TIP3   OH261600   3.196   2.646  16.060  0.7805 -0.6347  0.0477
13370TIP3    H161601   3.210   2.704  16.136 -1.1623  1.2217 -0.9089
13370TIP3    H261602   3.129   2.584  16.088  2.7443 -2.4605  1.0187
13371TIP3   OH261603   1.465   1.376   0.010  0.2311 -0.0950  0.0736
13371TIP3    H161604   1.460   1.446  -0.055 -2.4396 -2.0802 -2.1479
13371TIP3    H261605   1.374   1.361   0.035  0.9932 -1.0284  2.5102
13372TIP3   OH261606   3.686   5.587  14.716  0.4913 -0.1111 -0.8510
13372TIP3    H161607   3.719   5.514  14.663  0.5890  0.7732 -2.0674
13372TIP3    H261608   3.640   5.643  14.652  1.2255  1.3580 -0.1257
13373TIP3   OH261609   0.094   4.083   4.301  0.2836  0.5222  0.5093
13373TIP3    H161610   0.112   3.990   4.287  1.4301  0.6292  1.1038
13373TIP3    H261611   0.179   4.121   4.323 -0.0214  1.8651 -0.4504
13374TIP3   OH261612   4.391   5.002   3.833  0.0230 -0.1058  0.6409
13374TIP3    H161613   4.446   4.928   3.859  0.1551 -0.1440  0.2494
13374TIP3    H261614   4.344   5.025   3.913  0.6690 -0.0128  0.9976
13375TIP3   OH261615   5.129   1.634  14.480  0.1656 -0.1502 -0.6258
13375TIP3    H161616   5.186   1.608  14.552 -0.2688  0.6413  0.0091
13375TIP3    H261617   5.040   1.621  14.514 -0.0634 -1.1590 -1.5261
13376TIP3   OH261618   6.271   3.518   3.271 -0.6841  0.9304 -0.1456
13376TIP3    H161619   6.277   3.423   3.263 -1.1231  0.8311  0.5993
13376TIP3    H261620   6.182   3.539   3.241 -0.8177  1.0320  0.3235
13377TIP3   OH261621   4.014   4.771   3.088  0.0603  0.1105 -0.5186
13377TIP3    H161622   4.103   4.801   3.073 -0.3855  1.0614 -1.3382
13377TIP3    H261623   3.974   4.767   3.001 -0.6054 -0.5948 -0.1948
13378TIP3   OH261624   5.919   4.615  14.475  0.1451 -1.0215 -0.3459
13378TIP3    H161625   5.832   4.576  14.474 -0.4258  0.2130 -1.5855
13378TIP3    H261626   5.979   4.541  14.486 -0.8964 -2.2566 -2.4524
13379TIP3   OH261627   4.021   6.518  11.537  0.5847 -0.1177 -0.5194
13379TIP3    H161628   4.008   6.423  11.545  0.6800 -0.1489 -0.7332
13379TIP3    H261629   3.970   6.555  11.609  1.1098 -0.3772 -0.0061
13380TIP3   OH261630   2.102   5.458   4.161 -0.2003  0.1888 -0.1656
13380TIP3    H161631   2.039   5.399   4.202  1.8288 -2.1265 -0.1467
13380TIP3    H261632   2.130   5.516   4.232  1.1475 -1.9086  1.1402
13381TIP3   OH261633   0.878   4.157  14.017  0.9157 -0.5967  0.7261
13381TIP3    H161634   0.899   4.071  13.979  0.5574 -0.1080 -0.6250
13381TIP3    H261635   0.963   4.200  14.026  0.8643  0.7257 -3.1663
13382TIP3   OH261636   4.497   1.804   4.133 -0.7952  0.5421 -0.2096
13382TIP3    H161637   4.572   1.856   4.161 -0.5194  0.2280 -0.3564
13382TIP3    H261638   4.431   1.868   4.107 -0.3533  0.8113 -0.6657
13383TIP3   OH261639   4.951   2.786  14.536  0.1725  0.3329  0.0103
13383TIP3    H161640   4.883   2.777  14.469 -0.6616  3.5130  0.2737
13383TIP3    H261641   4.908   2.833  14.607  2.1061  0.5338  1.0933
13384TIP3   OH261642   1.911   0.415  12.232 -0.7165  0.0824 -0.8172
13384TIP3    H161643   1.868   0.441  12.150 -2.2310 -0.4555 -0.2332
13384TIP3    H261644   1.924   0.321  12.223 -1.7267 -0.1399 -0.0925
13385TIP3   OH261645   1.909   3.504   0.575  0.2400 -0.6566  0.3601
13385TIP3    H161646   1.893   3.449   0.499 -1.4358  1.1336 -0.6661
13385TIP3    H261647   1.829   3.554   0.586  1.0964  0.4143  2.2453
13386TIP3   OH261648   4.627   1.538   4.392 -0.0004 -0.0847 -0.2919
13386TIP3    H161649   4.683   1.498   4.325 -1.4344  1.2761 -2.4479
13386TIP3    H261650   4.683   1.604   4.433  0.8556 -0.8250 -0.2202
13387TIP3   OH261651   5.356   0.148  14.718  0.6171  0.0866  0.3630
13387TIP3    H161652   5.436   0.095  14.713  0.7769  0.4117 -0.8341
13387TIP3    H261653   5.372   0.221  14.658 -0.2157  0.6613  0.8228
13388TIP3   OH261654   4.941   6.680   4.181 -0.3114  0.4855 -0.6002
13388TIP3    H161655   4.910   6.674   4.271 -1.6833  2.1962 -0.9014
13388TIP3    H261656   5.032   6.651   4.185 -0.2598  0.7694  1.3875
13389TIP3   OH261657   2.726   4.542   4.389  0.0203 -0.3171  0.3994
13389TIP3    H161658   2.713   4.519   4.297  0.5338 -1.5235  0.6076
13389TIP3    H261659   2.697   4.633   4.396 -0.9734 -0.5338 -0.7340
13390TIP3   OH261660   2.224   4.249  12.071 -0.0172  0.2423  0.2572
13390TIP3    H161661   2.171   4.259  12.150  0.1481  0.5662  0.3309
13390TIP3    H261662   2.160   4.243  12.000 -0.1582  0.6754  0.3405
13391TIP3   OH261663   1.720   4.741   2.954 -0.4547 -0.2794 -1.0480
13391TIP3    H161664   1.666   4.716   3.030 -0.4796  0.6358 -0.7588
13391TIP3    H261665   1.660   4.734   2.879 -1.5252  2.3303 -0.5488
13392TIP3   OH261666   5.937   1.505  17.200  0.0230  0.6396  0.2313
13392TIP3    H161667   5.996   1.432  17.221  0.3700  1.0224  0.6196
13392TIP3    H261668   5.964   1.533  17.113  0.0766  0.4880  0.1992
13393TIP3   OH261669   6.241   2.286   5.635 -0.5605  0.0447  0.0195
13393TIP3    H161670   6.246   2.241   5.720  1.6680  0.8468  0.3704
13393TIP3    H261671   6.262   2.218   5.571 -0.5722 -0.1750  0.2452
13394TIP3   OH261672   3.896   4.306   1.906 -0.0200 -0.2262 -0.0499
13394TIP3    H161673   3.846   4.243   1.959 -1.0746 -0.3381 -1.1351
13394TIP3    H261674   3.986   4.296   1.937 -0.5623 -0.4286  1.5695
13395TIP3   OH261675   4.265   5.658   3.763 -0.0362 -0.4947 -0.1889
13395TIP3    H161676   4.197   5.659   3.695  0.9698  1.5889 -1.2719
13395TIP3    H261677   4.296   5.749   3.767  1.5842 -1.0493  1.4159
13396TIP3   OH261678   4.813   6.240  11.422  0.3216 -0.0218  0.0315
13396TIP3    H161679   4.831   6.146  11.410  1.0314  0.0874  0.1671
13396TIP3    H261680   4.862   6.282  11.352  1.6963  0.3802  1.1792
13397TIP3   OH261681   4.300   1.122  15.879 -0.1009  0.0597  0.2143
13397TIP3    H161682   4.241   1.127  15.804 -1.0401 -2.5874  0.6598
13397TIP3    H261683   4.369   1.061  15.851 -0.8254 -1.5132  1.6395
13398TIP3   OH261684   2.331   5.572  15.278 -0.2368  0.2084  0.2412
13398TIP3    H161685   2.366   5.634  15.214  1.3277 -1.3125 -0.4706
13398TIP3    H261686   2.364   5.602  15.362 -1.5567  1.7065  0.2724
13399TIP3   OH261687   3.459   2.239   1.415  0.2189  0.4512 -0.0101
13399TIP3    H161688   3.450   2.309   1.480  1.0113 -0.0043  0.6097
13399TIP3    H261689   3.439   2.281   1.331  0.0827  1.2689  0.4224
13400TIP3   OH261690   3.119   1.800   3.591 -0.1538 -0.4573  0.0606
13400TIP3    H161691   3.026   1.793   3.612 -0.6758  0.3029 -1.7565
13400TIP3    H261692   3.128   1.750   3.510  1.1026 -0.8000  0.3990
13401TIP3   OH261693   3.334   5.344   2.594 -0.8654  0.0541  0.2279
13401TIP3    H161694   3.405   5.351   2.658 -0.6494  0.0216 -0.0077
13401TIP3    H261695   3.343   5.422   2.539 -0.2129 -0.5828 -0.6092
13402TIP3   OH261696   0.087   5.422  11.650  0.0299 -0.1451  0.4916
13402TIP3    H161697   0.070   5.516  11.640  0.3768 -0.1248  0.0711
13402TIP3    H261698   0.089   5.409  11.745 -2.2557 -0.1501  0.6119
13403TIP3   OH261699   5.624   1.713  16.254  0.8423 -0.1440  0.1497
13403TIP3    H161700   5.665   1.752  16.331 -0.0356  0.7091  0.2086
13403TIP3    H261701   5.695   1.703  16.191  1.0067  2.3607 -0.1806
13404TIP3   OH261702   0.109   1.763  12.549  0.2624  0.2389 -0.2480
13404TIP3    H161703   0.095   1.704  12.475  0.7623  1.6568 -1.5479
13404TIP3    H261704   0.030   1.816  12.553 -0.7508 -1.2691  1.7374
13405TIP3   OH261705   1.595   4.364   1.120  1.0551 -0.0036 -0.3572
13405TIP3    H161706   1.618   4.278   1.083  2.1016  0.4056 -0.6958
13405TIP3    H261707   1.679   4.405   1.140  0.5638  0.8969 -0.0750
13406TIP3   OH261708   5.634   4.932   6.030 -0.1345  0.1225 -0.1254
13406TIP3    H161709   5.637   5.018   5.988  0.0319 -0.0294 -0.4276
13406TIP3    H261710   5.725   4.900   6.027 -0.2184 -0.1194 -0.1280
13407TIP3   OH261711   3.093   0.846   6.020  0.0919 -0.4814  0.8128
13407TIP3    H161712   3.077   0.884   6.106  0.1274 -0.4568  0.8081
13407TIP3    H261713   3.005   0.836   5.983  0.0718 -0.5691  0.8851
13408TIP3   OH261714   2.464   5.918  16.178 -0.4213  0.2146 -0.2841
13408TIP3    H161715   2.406   5.902  16.253 -1.6402  0.7026 -1.0788
13408TIP3    H261716   2.405   5.922  16.103  0.4207  2.3411 -0.9254
13409TIP3   OH261717   2.542   5.695   2.067 -0.5136 -0.7021 -0.2375
13409TIP3    H161718   2.587   5.739   1.995  2.0525  0.1724  1.7054
13409TIP3    H261719   2.481   5.635   2.025 -2.1097  2.5737 -3.0617
13410TIP3   OH261720   1.172   4.731  14.102 -0.0885 -0.5466 -0.4580
13410TIP3    H161721   1.154   4.637  14.103 -1.8341 -0.2912  1.8265
13410TIP3    H261722   1.088   4.771  14.125  0.8994  1.5073 -0.2456
13411TIP3   OH261723   3.040   2.074  12.041  0.0627  0.3141 -0.1591
13411TIP3    H161724   3.057   2.041  11.952 -0.0272  1.1810 -0.5076
13411TIP3    H261725   3.060   2.000  12.098 -2.7512 -1.3010 -1.0705
13412TIP3   OH261726   4.457   4.096   6.207 -0.4014 -0.2699  0.9442
13412TIP3    H161727   4.490   4.031   6.270 -0.6781  0.9307  2.3788
13412TIP3    H261728   4.362   4.093   6.217 -0.3822  0.8841  1.5934
13413TIP3   OH261729   6.054   2.471  16.388  0.2230 -0.1753  0.0005
13413TIP3    H161730   6.108   2.536  16.344  0.8788 -0.7965 -0.1252
13413TIP3    H261731   6.072   2.485  16.481 -1.5030  1.4351  0.1477
13414TIP3   OH261732   5.508   2.926   0.199  0.4193  0.0092 -0.0671
13414TIP3    H161733   5.424   2.963   0.227  0.0982 -0.0222 -0.9563
13414TIP3    H261734   5.507   2.933   0.104  0.4865 -1.9911 -0.2663
13415TIP3   OH261735   4.319   0.906   4.316 -0.3660  0.3306  0.1953
13415TIP3    H161736   4.336   0.908   4.222  1.7497  0.2037  0.5250
13415TIP3    H261737   4.288   0.994   4.337  0.2772  0.7296 -0.4580
13416TIP3   OH261738   6.250   6.707  13.153  0.5636  0.2685  0.0809
13416TIP3    H161739   6.191   6.775  13.120  1.8306  1.5182  0.2461
13416TIP3    H261740   6.194   6.632  13.171 -0.4894  0.1957 -2.9599
13417TIP3   OH261741   3.852   3.337  17.327  0.0372 -0.0356  0.3283
13417TIP3    H161742   3.843   3.416  17.380  0.7042  0.5112 -0.3398
13417TIP3    H261743   3.815   3.361  17.242  1.4978  0.0582 -0.3242
13418TIP3   OH261744   1.868   1.386  16.589 -0.5635  0.4719  0.0142
13418TIP3    H161745   1.802   1.346  16.532 -1.4053  0.4652  0.9672
13418TIP3    H261746   1.818   1.441  16.649  0.4684  1.9134 -0.4029
13419TIP3   OH261747   0.423   5.021  12.648 -0.3720 -0.5883 -0.2331
13419TIP3    H161748   0.485   4.954  12.678 -1.7770 -1.9609 -0.2374
13419TIP3    H261749   0.337   4.979  12.655 -1.2841  1.1192 -0.5734
13420TIP3   OH261750   2.798   5.882  14.919  0.2123 -0.1415  0.3040
13420TIP3    H161751   2.871   5.827  14.890 -1.0298 -1.9766  0.5717
13420TIP3    H261752   2.743   5.825  14.973 -2.0940  0.8121 -0.8892
13421TIP3   OH261753   6.294   4.952  13.564  0.1277  0.5538 -0.6794
13421TIP3    H161754   6.252   4.881  13.515 -1.0102  0.4498  0.4245
13421TIP3    H261755   6.230   5.023  13.565  0.4761  0.8726 -0.0699
13422TIP3   OH261756   2.374   0.904   4.723 -0.2892  0.1052  0.0772
13422TIP3    H161757   2.397   0.845   4.651  0.9261  1.6465 -0.8601
13422TIP3    H261758   2.278   0.901   4.726 -0.3700 -0.0480 -1.5687
13423TIP3   OH261759   3.382   2.087  13.085 -0.5785 -0.0243  0.0168
13423TIP3    H161760   3.421   2.022  13.028  2.1665  1.5243 -0.0181
13423TIP3    H261761   3.374   2.165  13.030 -0.6763  0.6299  0.9430
13424TIP3   OH261762   1.986   6.233  14.341  0.2538 -0.5907 -0.0584
13424TIP3    H161763   1.929   6.225  14.264 -0.3185 -0.6935  0.3743
13424TIP3    H261764   1.935   6.195  14.413  0.0529  1.1323  0.7516
13425TIP3   OH261765   4.581   4.392  15.477 -0.5333 -0.2149  0.1085
13425TIP3    H161766   4.557   4.477  15.439 -0.1220 -0.4297 -0.6383
13425TIP3    H261767   4.592   4.411  15.571  3.0191  1.3926 -0.4700
13426TIP3   OH261768   4.013   4.998  11.241 -0.1016  0.0534 -0.4752
13426TIP3    H161769   3.957   5.016  11.166 -0.9944  0.9258  0.3678
13426TIP3    H261770   3.977   4.918  11.279 -0.1782  0.0789 -0.4934
13427TIP3   OH261771   5.378   4.053   4.949  0.7679  0.3764  0.0771
13427TIP3    H161772   5.434   4.087   5.019 -0.5007  1.3379  0.6720
13427TIP3    H261773   5.291   4.088   4.969  0.3232  0.4751 -1.8511
13428TIP3   OH261774   4.042   2.035   1.258  0.1057  0.3227  0.1883
13428TIP3    H161775   4.114   2.030   1.322  1.4719  1.9532 -1.1376
13428TIP3    H261776   3.972   2.078   1.306  0.6137  0.2982  0.9934
13429TIP3   OH261777   4.252   1.196  17.366  0.5825  0.6587 -0.2130
13429TIP3    H161778   4.179   1.220  17.309  0.0958 -2.5503 -1.1458
13429TIP3    H261779   4.242   1.252  17.443 -0.6241  2.8873 -1.8981
13430TIP3   OH261780   1.910   2.758  13.259 -0.1412  0.1163  0.4461
13430TIP3    H161781   1.960   2.794  13.186 -3.5088  0.6255 -1.8504
13430TIP3    H261782   1.899   2.831  13.320 -0.1153  0.6574 -0.1977
13431TIP3   OH261783   4.940   2.375  11.215 -0.1171 -0.1315 -0.9202
13431TIP3    H161784   4.982   2.439  11.157  0.2475  0.1456 -0.3687
13431TIP3    H261785   5.013   2.322  11.247 -0.2106  0.1621 -0.1855
13432TIP3   OH261786   4.041   4.052  14.429 -0.1889  0.2078  0.0370
13432TIP3    H161787   4.121   4.007  14.459  0.6850  1.5052 -0.2640
13432TIP3    H261788   4.027   4.018  14.340  0.8515  0.9911 -0.4461
13433TIP3   OH261789   1.229   1.042   5.847 -0.1261 -0.2552  0.9655
13433TIP3    H161790   1.299   1.089   5.801  0.0451 -0.9474  0.4948
13433TIP3    H261791   1.233   1.075   5.937 -0.2357  0.8728  0.5800
13434TIP3   OH261792   4.507   3.273  13.149  0.1477 -0.4735 -0.0830
13434TIP3    H161793   4.597   3.291  13.176  0.0872 -0.5009  0.1384
13434TIP3    H261794   4.485   3.345  13.090 -0.6942  1.2024  2.1466
13435TIP3   OH261795   2.743   0.687   1.705  0.3577  0.5615  0.4099
13435TIP3    H161796   2.790   0.768   1.685  1.0191  0.7520  2.5080
13435TIP3    H261797   2.726   0.692   1.799 -2.2874 -0.3543  0.0495
13436TIP3   OH261798   2.298   6.474   3.172  0.4077 -0.5272  0.3580
13436TIP3    H161799   2.347   6.478   3.254  1.8566  1.1654 -0.5184
13436TIP3    H261800   2.255   6.389   3.174  1.1282 -0.8993  2.4631
13437TIP3   OH261801   5.130   3.838  11.994 -0.2221  0.1708  0.1468
13437TIP3    H161802   5.200   3.871  12.050  0.0832  2.4733 -1.4668
13437TIP3    H261803   5.155   3.864  11.905 -0.5848 -3.4842 -1.2117
13438TIP3   OH261804   6.320   3.012  11.244  0.0405  0.0088  0.1164
13438TIP3    H161805   6.313   3.075  11.172  0.3510 -0.3192 -0.2090
13438TIP3    H261806   6.343   2.930  11.200 -1.5340 -0.6211  0.3860
13439TIP3   OH261807   3.606   6.482   2.531 -0.1815 -0.0761 -0.5694
13439TIP3    H161808   3.621   6.493   2.625  3.0167 -2.0791 -0.6767
13439TIP3    H261809   3.549   6.405   2.524 -0.5006  0.1320 -0.2762
13440TIP3   OH261810   5.846   3.571  17.150 -0.2723 -0.2777 -0.3297
13440TIP3    H161811   5.888   3.632  17.089 -1.8247  1.2902  0.0967
13440TIP3    H261812   5.919   3.537  17.202  0.7473  0.5581 -1.1490
13441TIP3   OH261813   4.543   0.700   2.954 -0.4994  0.1079 -0.0188
13441TIP3    H161814   4.607   0.771   2.949 -0.9486  0.7221  1.9134
13441TIP3    H261815   4.585   0.635   3.010 -0.7300 -0.4500 -0.4864
13442TIP3   OH261816   0.782   3.801  11.270 -0.1697 -0.5495 -0.1386
13442TIP3    H161817   0.859   3.852  11.296  0.7489 -0.9426 -1.8935
13442TIP3    H261818   0.731   3.862  11.215  0.0664 -0.9799 -0.8462
13443TIP3   OH261819   3.627   2.717  12.100 -0.2249 -0.3131 -0.1403
13443TIP3    H161820   3.545   2.673  12.078 -1.0936  1.6734 -1.0975
13443TIP3    H261821   3.616   2.744  12.191 -0.9163  0.5192 -0.4628
13444TIP3   OH261822   3.505   3.589   3.115  0.4919  0.0863 -0.4630
13444TIP3    H161823   3.472   3.636   3.191 -0.3490 -1.3972  0.1335
13444TIP3    H261824   3.559   3.653   3.068 -0.7489  1.6700  0.1927
13445TIP3   OH261825   6.408   3.671   5.979 -0.0044 -0.0590  0.2149
13445TIP3    H161826   6.338   3.643   6.038 -1.8414  0.1106 -1.7568
13445TIP3    H261827   6.405   3.608   5.907  1.7022  0.1388 -0.0736
13446TIP3   OH261828   5.735   4.690  16.649 -1.1446  0.4791 -0.9962
13446TIP3    H161829   5.721   4.766  16.705 -0.9249 -0.1957 -0.0094
13446TIP3    H261830   5.799   4.720  16.584 -0.4914  0.9305 -0.1695
13447TIP3   OH261831   5.957   5.446  11.702 -0.5270  0.0326 -0.0005
13447TIP3    H161832   5.982   5.439  11.794  1.1797 -0.3008 -0.4453
13447TIP3    H261833   5.968   5.539  11.681  0.0569 -0.0459 -0.0875
13448TIP3   OH261834   4.672   0.507   0.567 -0.1977 -0.2544  0.5978
13448TIP3    H161835   4.644   0.431   0.618  0.7587 -1.2435 -0.3141
13448TIP3    H261836   4.673   0.476   0.476 -0.5896  1.0945  0.1006
13449TIP3   OH261837   6.680   0.248  15.679 -0.2722  0.2922  0.3154
13449TIP3    H161838   6.649   0.338  15.689 -1.1122 -0.0682  1.0901
13449TIP3    H261839   6.675   0.211  15.767 -1.7250 -1.0780 -0.2981
13450TIP3   OH261840   5.012   3.611   5.157  0.2174 -0.1207 -0.3831
13450TIP3    H161841   5.054   3.692   5.183 -0.5199  0.4970 -1.0782
13450TIP3    H261842   5.064   3.542   5.200  0.3062  0.7394  0.9365
13451TIP3   OH261843   3.400   0.899  14.006 -0.0163  0.0834 -0.3895
13451TIP3    H161844   3.397   0.992  14.028 -0.6549  0.0833 -0.4490
13451TIP3    H261845   3.423   0.897  13.913 -0.3018  0.1972 -0.4649
13452TIP3   OH261846   2.375   5.625  16.659 -0.1438 -0.0188 -0.2587
13452TIP3    H161847   2.290   5.668  16.675 -0.0931 -0.2217  0.5691
13452TIP3    H261848   2.384   5.626  16.563 -1.1403 -0.1118 -0.3656
13453TIP3   OH261849   0.745   4.069   0.119 -0.0237  0.5733 -0.7327
13453TIP3    H161850   0.838   4.050   0.105  0.1461  0.7874  0.0267
13453TIP3    H261851   0.705   4.061   0.033  0.4993 -0.6634 -0.8791
13454TIP3   OH261852   2.081   3.544  16.942  0.1442 -0.2177 -0.5568
13454TIP3    H161853   1.987   3.535  16.930 -0.0215 -0.8747  1.0247
13454TIP3    H261854   2.116   3.455  16.931  0.4584 -0.1418 -0.1993
13455TIP3   OH261855   5.271   5.897   2.534 -0.2639 -0.0187 -0.1678
13455TIP3    H161856   5.264   5.880   2.628 -1.4052 -1.6796 -0.5035
13455TIP3    H261857   5.355   5.942   2.523 -0.3328  0.6095  1.6849
13456TIP3   OH261858   0.083   2.015   1.594 -0.2843  0.2074  0.2474
13456TIP3    H161859   0.014   1.960   1.557  0.1425 -0.5679  0.5971
13456TIP3    H261860   0.050   2.105   1.583 -0.3253 -0.0089 -1.6908
13457TIP3   OH261861   0.034   4.462  12.795  0.2148  0.4540 -0.0344
13457TIP3    H161862   0.027   4.556  12.815  3.1695  1.2207 -1.9040
13457TIP3    H261863  -0.004   4.453  12.708 -0.5762 -0.2368  0.3689
13458TIP3   OH261864   1.045   4.616  13.716 -0.3066  0.6123  0.0906
13458TIP3    H161865   1.104   4.541  13.725 -0.5051  0.5699  1.0843
13458TIP3    H261866   1.099   4.692  13.734 -0.5825  0.5635  1.1465
13459TIP3   OH261867   0.998   4.538  12.407 -0.0933  0.2139 -0.1008
13459TIP3    H161868   0.939   4.487  12.352  1.4357 -1.3208 -0.3973
13459TIP3    H261869   1.051   4.473  12.453  1.2170  1.5235  0.3476
13460TIP3   OH261870   1.667   4.037   2.438  0.1695  0.6571 -0.3787
13460TIP3    H161871   1.577   4.015   2.417  0.6846 -0.3277 -1.6863
13460TIP3    H261872   1.666   4.055   2.532 -1.1726 -0.4586 -0.1482
13461TIP3   OH261873   5.047   5.580  13.822  0.0821 -0.2574  0.1460
13461TIP3    H161874   5.092   5.508  13.865 -0.7730 -0.6106  0.4744
13461TIP3    H261875   4.957   5.549  13.811 -0.0781  0.4141 -0.5233
13462TIP3   OH261876   4.970   5.803  12.000 -0.6231  0.3574 -0.2207
13462TIP3    H161877   4.987   5.814  11.906  1.9999  1.1015  0.2556
13462TIP3    H261878   4.946   5.891  12.029  0.4453  0.5538  0.1060
13463TIP3   OH261879   0.876   5.695   1.679  0.2060  0.0079  0.0418
13463TIP3    H161880   0.957   5.707   1.729 -0.1693 -0.6348  0.8246
13463TIP3    H261881   0.866   5.600   1.672 -0.1883  0.0876 -0.5378
13464TIP3   OH261882   1.604   5.984  17.483 -0.3320 -0.9838 -0.4488
13464TIP3    H161883   1.688   6.029  17.490 -0.3096 -0.5448 -2.6883
13464TIP3    H261884   1.568   5.985  17.571  1.7015 -0.5757  0.4220
13465TIP3   OH261885   2.125   5.779   0.631  0.9051  0.2093 -0.2491
13465TIP3    H161886   2.183   5.833   0.577  0.8091  0.4486 -0.1170
13465TIP3    H261887   2.038   5.817   0.617  0.9280  0.4868  0.3336
13466TIP3   OH261888   1.263   0.682   3.222  0.3328  0.4988  0.6308
13466TIP3    H161889   1.278   0.604   3.275  0.4527  1.3877  1.9443
13466TIP3    H261890   1.169   0.679   3.202 -0.2861  1.4002  3.0294
13467TIP3   OH261891   5.092   6.126   3.075  0.8706  0.0455  0.3390
13467TIP3    H161892   5.006   6.147   3.039  0.9598  0.7773  0.5379
13467TIP3    H261893   5.074   6.093   3.163  0.8312  0.7360  0.5911
13468TIP3   OH261894   4.917   5.208   5.307 -0.0615 -0.1707  0.2553
13468TIP3    H161895   4.979   5.136   5.315 -0.8058 -1.2577 -2.4817
13468TIP3    H261896   4.851   5.191   5.374  1.8051  0.2828  2.3303
13469TIP3   OH261897   2.897   4.342   1.207 -0.2068  0.8971  0.2540
13469TIP3    H161898   2.842   4.421   1.207 -1.1281  0.2740  0.7304
13469TIP3    H261899   2.949   4.350   1.287 -1.4374  0.2767  1.1467
13470TIP3   OH261900   2.755   4.112   1.110  0.2359 -0.3152 -0.3330
13470TIP3    H161901   2.814   4.181   1.140  0.5191 -0.5400 -0.3674
13470TIP3    H261902   2.670   4.155   1.101  0.2222 -0.1519  0.4469
13471TIP3   OH261903   3.241   3.145   2.424 -0.8213 -0.0013  0.4512
13471TIP3    H161904   3.196   3.149   2.340  0.3559  1.2212 -0.1585
13471TIP3    H261905   3.269   3.053   2.432 -1.1177 -0.1713 -0.3885
13472TIP3   OH261906   6.011   0.729  16.518  0.0410  0.1715  0.1109
13472TIP3    H161907   5.999   0.717  16.612 -0.8087  1.5396  0.2056
13472TIP3    H261908   5.933   0.777  16.489 -0.2140 -1.1187 -1.4835
13473TIP3   OH261909   6.582   4.733   2.705 -0.3409 -0.7462  0.4352
13473TIP3    H161910   6.654   4.783   2.744 -0.3196 -1.1278  0.8798
13473TIP3    H261911   6.619   4.698   2.624 -0.3262 -0.1288  0.1620
13474TIP3   OH261912   1.005   0.899  11.893 -0.2524  0.3480 -0.3914
13474TIP3    H161913   1.072   0.877  11.958  0.6059  0.8667 -1.0906
13474TIP3    H261914   1.027   0.846  11.816 -0.0778  1.2178 -0.9522
13475TIP3   OH261915   5.985   0.138   4.130  0.0193 -0.1768  0.1959
13475TIP3    H161916   5.916   0.204   4.124  0.9243  0.7671 -0.2400
13475TIP3    H261917   6.054   0.180   4.181 -0.0611 -1.4233  1.3752
13476TIP3   OH261918   5.449   4.597  15.840  0.8434 -0.1729  0.0990
13476TIP3    H161919   5.525   4.647  15.810  2.2650 -2.9861 -1.3829
13476TIP3    H261920   5.380   4.618  15.777  0.9615  0.9248  0.3145
13477TIP3   OH261921   1.941   0.339  11.545  0.2040 -0.1724 -0.1406
13477TIP3    H161922   2.004   0.321  11.475  0.0335 -0.2671 -0.2704
13477TIP3    H261923   1.993   0.335  11.625  0.2527 -0.8303 -0.2008
13478TIP3   OH261924   2.661   1.266  13.781 -0.6090 -0.2101  0.2027
13478TIP3    H161925   2.639   1.173  13.786 -0.8622 -0.2126 -0.7684
13478TIP3    H261926   2.739   1.275  13.836  1.6547 -1.7255 -2.5352
13479TIP3   OH261927   5.190   6.476  16.871  0.1071  0.3232 -0.0958
13479TIP3    H161928   5.197   6.515  16.959  0.1846  1.8643 -0.7434
13479TIP3    H261929   5.114   6.419  16.876  0.4223 -0.0155  1.1211
13480TIP3   OH261930   3.761   1.790  17.492  0.3708  0.2796 -0.3574
13480TIP3    H161931   3.758   1.852  17.419 -2.3695  0.6817  0.0043
13480TIP3    H261932   3.736   1.706  17.453  0.9676  0.0552 -0.2609
13481TIP3   OH261933   0.207   3.831  14.196 -0.5637 -0.0068 -0.2108
13481TIP3    H161934   0.195   3.859  14.105 -2.3119 -0.6081 -0.2044
13481TIP3    H261935   0.288   3.781  14.195 -0.3561  0.3140 -1.3575
13482TIP3   OH261936   5.956   1.314  16.497  0.0323  0.1296 -0.2911
13482TIP3    H161937   5.944   1.263  16.417  0.0468 -0.9723  0.3722
13482TIP3    H261938   5.898   1.271  16.561  1.3976 -0.2100  0.7746
13483TIP3   OH261939   6.228   0.040   5.617 -0.0158 -0.2134 -0.0062
13483TIP3    H161940   6.320   0.066   5.612  0.1193 -0.2193  1.8274
13483TIP3    H261941   6.225  -0.022   5.690 -1.7517  1.0760  1.0760
13484TIP3   OH261942   2.887   4.601   0.779  0.0893 -0.1611 -0.1166
13484TIP3    H161943   2.804   4.553   0.777  0.5220 -0.9836 -3.0477
13484TIP3    H261944   2.865   4.687   0.745  0.1049  0.3039  1.0204
13485TIP3   OH261945   1.797   2.067   2.388 -0.1221 -0.1381 -0.1663
13485TIP3    H161946   1.724   2.105   2.339 -0.4493 -0.4586  0.0595
13485TIP3    H261947   1.777   1.974   2.393 -0.5526 -0.0011  1.2976
13486TIP3   OH261948   6.394   5.839   3.671  0.0027 -0.6256 -0.2059
13486TIP3    H161949   6.396   5.901   3.743 -0.5050 -0.3622 -0.4074
13486TIP3    H261950   6.303   5.807   3.670  0.2159 -1.2582 -0.2024
13487TIP3   OH261951   4.419   3.658   2.039 -0.2531 -0.1267  0.2698
13487TIP3    H161952   4.402   3.700   1.955 -0.3909 -0.9655 -0.1278
13487TIP3    H261953   4.359   3.702   2.100  1.3592  2.0045  0.4305
13488TIP3   OH261954   1.207   6.604  14.826 -0.3754 -0.3814  0.2558
13488TIP3    H161955   1.115   6.632  14.825 -0.2927 -0.1051  0.2851
13488TIP3    H261956   1.250   6.665  14.887 -0.4240 -1.3128  1.2553
13489TIP3   OH261957   5.868   5.029   1.704 -0.2662  0.0902 -0.1869
13489TIP3    H161958   5.794   5.034   1.765 -0.7258  1.3436 -0.8130
13489TIP3    H261959   5.870   5.115   1.661  0.9169 -0.2808 -0.9291
13490TIP3   OH261960   6.379   4.609   5.969  0.5113 -0.0877 -0.1244
13490TIP3    H161961   6.409   4.549   5.901  0.8313  1.0556 -1.0379
13490TIP3    H261962   6.378   4.695   5.926 -0.6648  0.4507  0.9122
13491TIP3   OH261963   3.238   5.860   1.894 -0.4060  0.2332  0.4434
13491TIP3    H161964   3.281   5.802   1.831 -1.5211  1.4810 -1.5781
13491TIP3    H261965   3.205   5.932   1.841 -1.1728  1.5040  2.5370
13492TIP3   OH261966   0.583   0.477  13.517 -0.4124  0.1930 -0.2259
13492TIP3    H161967   0.507   0.452  13.570 -1.1181  2.6301  0.0410
13492TIP3    H261968   0.611   0.561  13.554  1.3315  0.2041 -1.4579
13493TIP3   OH261969   6.035   5.374   0.327 -0.3419  0.2687 -0.3799
13493TIP3    H161970   6.121   5.332   0.328  0.1786  1.2744 -1.1544
13493TIP3    H261971   6.000   5.355   0.240 -0.6212  0.4102 -0.2984
13494TIP3   OH261972   6.330   3.684  12.841 -0.0398 -0.4094 -0.0203
13494TIP3    H161973   6.283   3.724  12.915  0.5266 -0.0626  0.1563
13494TIP3    H261974   6.363   3.601  12.876  0.3025 -0.2049  0.1424
13495TIP3   OH261975   5.695   0.770  12.396  0.1849 -0.0470 -0.8988
13495TIP3    H161976   5.685   0.757  12.490  0.6977  1.2764 -0.6337
13495TIP3    H261977   5.607   0.759  12.360 -0.1484  0.1374 -0.1590
13496TIP3   OH261978   4.310   0.219   6.363  0.2943 -0.1505  0.2963
13496TIP3    H161979   4.366   0.142   6.368 -0.7105 -0.8318  1.8630
13496TIP3    H261980   4.353   0.284   6.418  0.4312 -0.0775  0.1025
13497TIP3   OH261981   0.226   5.796   3.184  0.1730 -0.0732  0.0656
13497TIP3    H161982   0.182   5.875   3.216 -1.6298 -0.7450 -0.6002
13497TIP3    H261983   0.270   5.760   3.261  0.9208  1.4814  0.4027
13498TIP3   OH261984   1.535   5.716  17.653  0.2062 -0.6793  0.2910
13498TIP3    H161985   1.599   5.698  17.584  1.7146  1.1244  1.1001
13498TIP3    H261986   1.450   5.707  17.610  0.9359 -3.1698 -0.8298
13499TIP3   OH261987   1.377   1.600  11.876 -0.1517  0.0472  0.3053
13499TIP3    H161988   1.418   1.540  11.938 -1.9361 -0.4709  1.0725
13499TIP3    H261989   1.371   1.549  11.795 -0.3601 -0.3152  0.5434
13500TIP3   OH261990   3.871   1.333  17.436 -0.2035 -0.2088  0.1739
13500TIP3    H161991   3.952   1.353  17.388 -0.8252  1.7668 -0.1392
13500TIP3    H261992   3.846   1.246  17.405 -0.0086  0.5443 -2.3744
13501TIP3   OH261993   3.780   1.073   1.944 -0.2616 -0.0093  0.7290
13501TIP3    H161994   3.742   1.013   1.879 -1.5159  0.5363  0.9259
13501TIP3    H261995   3.874   1.055   1.941 -0.2541  0.0633 -1.3099
13502TIP3   OH261996   0.987   3.684   0.101 -0.3549 -0.2003  0.5899
13502TIP3    H161997   0.970   3.605   0.153 -1.8420 -0.6949 -0.5803
13502TIP3    H261998   1.030   3.744   0.162  0.9758 -1.9495  1.4657
13503TIP3   OH261999   1.595   0.489  12.915  0.1908 -0.1306  0.4094
13503TIP3    H162000   1.627   0.416  12.861 -0.1159  0.2645 -0.3265
13503TIP3    H262001   1.642   0.480  12.997  0.3458 -1.0153  0.2418
13504TIP3   OH262002   1.815   1.355   0.912  0.0689  0.0466 -0.5163
13504TIP3    H162003   1.792   1.323   0.825  0.7473 -0.0563 -0.6659
13504TIP3    H262004   1.848   1.277   0.958 -0.0951  0.1429 -0.2334
13505TIP3   OH262005   1.885   1.730   5.704  0.1427  0.2210 -0.4127
13505TIP3    H162006   1.875   1.653   5.647 -1.1860 -0.0027  0.0695
13505TIP3    H262007   1.849   1.802   5.652 -0.5287  0.1203 -0.1077
13506TIP3   OH262008   6.411   4.073   6.547  0.1592 -0.6166 -0.0516
13506TIP3    H162009   6.365   4.008   6.601 -0.0411 -0.0864  0.4233
13506TIP3    H262010   6.492   4.090   6.594  0.6027 -1.1478 -0.6144
13507TIP3   OH262011   2.493   0.663  15.791 -0.1635 -0.0680 -0.1178
13507TIP3    H162012   2.489   0.710  15.874 -1.1899  0.5215 -0.4819
13507TIP3    H262013   2.572   0.695  15.748 -0.9100  1.4816 -0.4195
13508TIP3   OH262014   0.021   2.262  13.331 -0.3309 -0.6057 -0.2238
13508TIP3    H162015  -0.044   2.316  13.287  0.1374  2.2616  2.2533
13508TIP3    H262016  -0.009   2.256  13.422  1.5197 -1.4272  0.3908
13509TIP3   OH262017   6.078   0.223  17.566  0.2127  0.3491 -0.0398
13509TIP3    H162018   6.022   0.199  17.640 -0.5824  0.1577 -0.6911
13509TIP3    H262019   6.018   0.258  17.500  0.6396 -1.2220 -1.3390
13510TIP3   OH262020   2.527   2.381   5.068  0.4556  0.0800  0.2896
13510TIP3    H162021   2.542   2.305   5.124  1.8255 -0.1807 -0.3840
13510TIP3    H262022   2.602   2.438   5.086  0.0190  0.7727 -0.0304
13511TIP3   OH262023   1.550   0.655   5.470 -0.0645 -0.1139  0.1435
13511TIP3    H162024   1.607   0.646   5.547 -0.3776 -1.3288  0.2590
13511TIP3    H262025   1.565   0.744   5.439  0.9642 -0.0051  0.9061
13512TIP3   OH262026   3.311   6.518   6.359 -0.2997 -0.1955 -0.2978
13512TIP3    H162027   3.230   6.516   6.408  1.0572 -1.4987  2.0632
13512TIP3    H262028   3.366   6.582   6.405 -0.1958  1.2701 -2.3170
13513TIP3   OH262029   0.385   6.653  11.276 -0.1330 -0.0147  0.1911
13513TIP3    H162030   0.381   6.736  11.322  0.9046  0.0780  0.1310
13513TIP3    H262031   0.299   6.612  11.292  0.0405  0.2032  1.8264
13514TIP3   OH262032   1.916   5.976   3.773 -0.0794  0.3595 -0.0207
13514TIP3    H162033   1.936   6.037   3.702  0.6889  1.7820  1.3545
13514TIP3    H262034   1.862   6.025   3.833 -1.4617 -1.1093  0.0096
13515TIP3   OH262035   5.207   6.348   1.372  0.2056  0.1133 -0.1770
13515TIP3    H162036   5.113   6.363   1.377  0.0885 -0.7323  0.2286
13515TIP3    H262037   5.240   6.375   1.457  0.7009  2.7523 -1.1070
13516TIP3   OH262038   4.968   3.229   0.149  0.2446  0.0457 -0.1658
13516TIP3    H162039   4.918   3.217   0.229  2.1070 -4.9341  0.5915
13516TIP3    H262040   4.901   3.247   0.082 -2.5096 -3.6744  1.2008
13517TIP3   OH262041   5.413   6.567   5.319  0.1306 -0.5192  0.1163
13517TIP3    H162042   5.366   6.612   5.249  0.4633 -0.3341  0.0128
13517TIP3    H262043   5.357   6.580   5.396 -0.8481 -1.7384 -0.3476
13518TIP3   OH262044   3.565   1.839   3.089  0.0992 -0.5311 -0.2572
13518TIP3    H162045   3.640   1.850   3.032  0.8310  0.5193  0.8599
13518TIP3    H262046   3.504   1.907   3.062  0.4598 -0.0115  0.2252
13519TIP3   OH262047   2.952   3.864   3.559  0.1145 -0.3514 -0.4099
13519TIP3    H162048   2.966   3.843   3.466  1.1388 -0.9118 -0.1306
13519TIP3    H262049   2.885   3.932   3.557  1.2943  0.8370 -1.6654
13520TIP3   OH262050   3.805   0.169  14.695  0.0378  0.2449  0.6212
13520TIP3    H162051   3.845   0.252  14.667 -1.0447  0.2240 -1.1381
13520TIP3    H262052   3.761   0.136  14.616  0.8661 -2.2780  1.1243
13521TIP3   OH262053   1.008   2.603  16.378 -0.1609 -0.2143 -0.3004
13521TIP3    H162054   0.963   2.687  16.386 -1.8138 -1.2396  3.8941
13521TIP3    H262055   0.950   2.549  16.324 -1.7386 -0.1135  1.2278
13522TIP3   OH262056   6.163   0.388  12.138 -0.1164  0.5242 -0.0113
13522TIP3    H162057   6.198   0.379  12.226  0.3427  0.9341 -0.1458
13522TIP3    H262058   6.069   0.402  12.151 -0.2398 -0.5510  0.3502
13523TIP3   OH262059   3.297   0.032   5.701  0.0838  0.1639  0.8577
13523TIP3    H162060   3.329  -0.049   5.661  0.3782  0.4134  0.5803
13523TIP3    H262061   3.358   0.048   5.773  0.0380  0.1461  0.8997
13524TIP3   OH262062   3.526   4.457  12.603 -0.0859  0.0160  0.3890
13524TIP3    H162063   3.500   4.481  12.514  0.9454 -0.2312  0.0008
13524TIP3    H262064   3.515   4.538  12.654 -1.7455 -0.1329  0.3060
13525TIP3   OH262065   1.326   4.372  14.558  0.1417 -0.1844  0.5031
13525TIP3    H162066   1.411   4.397  14.523 -0.1000 -0.3341 -0.2251
13525TIP3    H262067   1.343   4.294  14.611  0.2929 -0.9689 -0.6538
13526TIP3   OH262068   4.294   5.005  14.913 -0.1400  0.2106  0.3732
13526TIP3    H162069   4.221   5.038  14.965 -0.3234 -0.3367  0.4662
13526TIP3    H262070   4.254   4.946  14.850 -0.0949  1.8704 -1.2992
13527TIP3   OH262071   5.152   2.169   0.207 -0.1268  1.3243  0.4188
13527TIP3    H162072   5.110   2.238   0.155 -1.0623  1.8915  1.8391
13527TIP3    H262073   5.111   2.088   0.177 -0.1735  1.5609 -0.1730
13528TIP3   OH262074   4.929   6.315   4.344 -1.1447  0.0085  0.1542
13528TIP3    H162075   5.004   6.305   4.285 -0.1797  0.9742  1.1824
13528TIP3    H262076   4.853   6.315   4.286 -0.3818 -1.1170 -0.9052
13529TIP3   OH262077   6.721   1.502  15.239  0.4764 -0.2614  0.5232
13529TIP3    H162078   6.773   1.452  15.176  1.5498 -0.2772  1.3830
13529TIP3    H262079   6.776   1.506  15.317 -0.1525  1.1149  0.9223
13530TIP3   OH262080   4.811   5.047   3.397  0.3464 -0.4597 -0.2743
13530TIP3    H162081   4.809   5.138   3.425  0.5438 -0.9707  1.5902
13530TIP3    H262082   4.791   4.998   3.477 -1.0697 -2.0114 -1.4924
13531TIP3   OH262083   2.082   2.105   3.346  0.2022 -0.5590 -0.1260
13531TIP3    H162084   2.020   2.177   3.351  0.5079 -0.3627  1.7680
13531TIP3    H262085   2.080   2.077   3.255  0.0452  1.8065 -0.9111
13532TIP3   OH262086   1.470   5.201   4.762 -0.0089  0.2981 -0.1728
13532TIP3    H162087   1.491   5.173   4.673 -0.8820 -0.0018 -0.2844
13532TIP3    H262088   1.389   5.157   4.783  0.1752  0.3950  0.7703
13533TIP3   OH262089   6.290   4.481   4.609 -0.8071  0.7042  0.0450
13533TIP3    H162090   6.197   4.501   4.600 -1.1809 -0.8847  0.1940
13533TIP3    H262091   6.303   4.402   4.557  0.8791  1.9442 -1.5532
13534TIP3   OH262092   3.293   0.085  17.335  0.3330 -0.4438 -0.1591
13534TIP3    H162093   3.290   0.157  17.272 -3.1602  1.7321  2.0932
13534TIP3    H262094   3.217   0.031  17.313  0.4146 -0.9537  0.7678
13535TIP3   OH262095   0.697   2.801  15.383 -0.1690  0.0841  0.0775
13535TIP3    H162096   0.658   2.744  15.317  1.1964 -1.6164  0.6709
13535TIP3    H262097   0.631   2.807  15.452 -0.8868  0.4182 -0.6217
13536TIP3   OH262098   1.608   0.587  15.102  0.2654  0.8063 -0.5307
13536TIP3    H162099   1.652   0.642  15.037  0.7751  2.8816  1.4576
13536TIP3    H262100   1.642   0.617  15.186 -0.8129 -1.3802  0.7618
13537TIP3   OH262101   4.561   3.047   3.258  0.0540 -0.1686 -0.8223
13537TIP3    H162102   4.644   3.094   3.250  0.5017 -0.9638 -1.0471
13537TIP3    H262103   4.515   3.063   3.176 -0.5764  1.2698 -0.2247
13538TIP3   OH262104   3.307   6.051  15.465  0.3555 -0.3947  0.3900
13538TIP3    H162105   3.265   6.106  15.399 -1.0445 -1.2441  0.5299
13538TIP3    H262106   3.400   6.068  15.455  0.0260  1.1546 -0.3059
13539TIP3   OH262107   1.019   6.257   5.142  0.1608  0.0212  1.0636
13539TIP3    H162108   1.053   6.168   5.157  1.0733 -0.9101 -4.3893
13539TIP3    H262109   0.931   6.244   5.107 -0.8506  1.5832  2.8508
13540TIP3   OH262110   2.853   5.560  10.843 -0.7182 -0.2741  0.0305
13540TIP3    H162111   2.871   5.577  10.936 -0.3936 -0.2881 -0.0321
13540TIP3    H262112   2.897   5.477  10.825 -1.5009 -0.7106  0.0862
13541TIP3   OH262113   5.189   2.393  12.198 -0.3137 -0.1789  0.0044
13541TIP3    H162114   5.146   2.385  12.113 -0.7785 -0.8601  0.2948
13541TIP3    H262115   5.142   2.331  12.255 -1.4604  1.8103  1.3542
13542TIP3   OH262116   1.806   2.760  12.935  0.7100  0.1618  0.3263
13542TIP3    H162117   1.737   2.778  12.999  0.6187 -0.1095  0.3040
13542TIP3    H262118   1.813   2.665  12.933  0.0270  0.1184 -0.8020
13543TIP3   OH262119   4.024   0.948   1.837  0.7866 -0.0386 -0.2709
13543TIP3    H162120   4.052   0.938   1.746 -1.0769 -1.5613 -0.7521
13543TIP3    H262121   4.069   0.877   1.883  1.9861  0.9307  0.1068
13544TIP3   OH262122   1.436   3.591  16.357  0.4791  0.0553 -0.2536
13544TIP3    H162123   1.362   3.652  16.361 -0.5254 -1.0581 -0.8896
13544TIP3    H262124   1.399   3.511  16.319  1.7471 -0.9614  0.5400
13545TIP3   OH262125   0.429   0.371   2.511 -0.2291  0.0685  0.3831
13545TIP3    H162126   0.365   0.427   2.555  0.2664  0.6293  0.4083
13545TIP3    H262127   0.384   0.287   2.499 -1.1549  0.6183 -0.0928
13546TIP3   OH262128   3.240   3.189   4.076  0.9959 -0.5263 -0.2656
13546TIP3    H162129   3.148   3.184   4.105  0.4008 -1.2165 -2.1461
13546TIP3    H262130   3.288   3.213   4.155 -0.7173 -0.8331  0.9320
13547TIP3   OH262131   0.133   5.766   5.781  0.2289 -0.1937 -0.6887
13547TIP3    H162132   0.091   5.723   5.856 -1.1130  0.7021 -0.8930
13547TIP3    H262133   0.161   5.851   5.815 -1.1403  0.5614 -1.3935
13548TIP3   OH262134   0.102   4.277  15.676 -0.4922 -0.6290 -0.5087
13548TIP3    H162135   0.112   4.184  15.695 -0.5650 -0.9021 -1.7443
13548TIP3    H262136   0.137   4.288  15.588  0.9546  0.8056  0.1912
13549TIP3   OH262137   5.966   6.453   5.740  0.5153  0.1948 -0.0950
13549TIP3    H162138   6.060   6.443   5.755  0.7581  0.3654 -1.3596
13549TIP3    H262139   5.946   6.388   5.673  0.2231  1.7154 -1.5389
13550TIP3   OH262140   3.361   1.866  15.492 -0.1642  0.6125 -0.5822
13550TIP3    H162141   3.412   1.853  15.411  0.4529 -0.1252 -0.0890
13550TIP3    H262142   3.295   1.796  15.490  0.6610 -0.2102  0.1578
13551TIP3   OH262143   4.256   5.031   2.478  0.3425  0.1818  0.1704
13551TIP3    H162144   4.296   5.101   2.426  0.8278 -0.3885 -0.2438
13551TIP3    H262145   4.330   4.992   2.525  0.0807 -0.0630  0.3780
13552TIP3   OH262146   1.435   0.425   1.462  0.1481 -0.0874  0.5937
13552TIP3    H162147   1.436   0.443   1.556  3.8793 -1.1369  0.8854
13552TIP3    H262148   1.471   0.504   1.422 -1.0168  0.1842  0.0329
13553TIP3   OH262149   0.076   6.540   0.214  0.1833  0.0346 -0.2787
13553TIP3    H162150   0.055   6.546   0.121 -3.4041  0.5735  0.4223
13553TIP3    H262151   0.029   6.462   0.244  1.6715 -0.4055  1.0577
13554TIP3   OH262152   5.564   2.094  16.567 -0.1436  0.2894  0.1100
13554TIP3    H162153   5.573   1.999  16.571 -0.3468  0.2774  0.3591
13554TIP3    H262154   5.650   2.128  16.591  0.0584  0.1671 -0.4258
13555TIP3   OH262155   0.824   5.532  12.071  0.0590  0.1009 -0.3769
13555TIP3    H162156   0.847   5.594  12.140  0.6624 -0.8879  0.3448
13555TIP3    H262157   0.806   5.450  12.117 -1.3890 -0.1033 -1.2457
13556TIP3   OH262158   4.569   4.172   4.146  0.3145  0.1507 -0.6699
13556TIP3    H162159   4.493   4.137   4.099  0.2141 -0.4518 -0.0815
13556TIP3    H262160   4.560   4.137   4.235  0.4929  1.2746 -0.1923
13557TIP3   OH262161   4.202   6.217  13.556 -0.2953  0.0228 -0.0557
13557TIP3    H162162   4.185   6.264  13.474 -0.0393 -1.7328 -1.1761
13557TIP3    H262163   4.115   6.204  13.594 -0.4027  1.0056  0.0611
13558TIP3   OH262164   0.812   0.372  15.010  0.3878 -0.3611 -0.4679
13558TIP3    H162165   0.785   0.325  14.931  0.0529 -2.7262  0.9386
13558TIP3    H262166   0.754   0.448  15.014 -1.3988 -1.6140 -1.1651
13559TIP3   OH262167   3.236   0.696  15.132 -0.0870  0.0069 -0.1947
13559TIP3    H162168   3.252   0.790  15.145  1.8824 -0.1436 -1.1254
13559TIP3    H262169   3.316   0.654  15.164 -1.9005 -1.6558  2.6618
13560TIP3   OH262170   4.588   2.985  11.643 -0.0712  0.3668  0.1536
13560TIP3    H162171   4.535   2.945  11.575 -0.2987  1.2624 -0.2155
13560TIP3    H262172   4.531   2.988  11.720 -0.1966  0.3770  0.0596
13561TIP3   OH262173   5.472   2.311  15.788 -0.5850  0.9687 -0.1105
13561TIP3    H162174   5.388   2.297  15.831 -0.8637  0.5760 -0.7712
13561TIP3    H262175   5.450   2.351  15.704 -0.2676 -0.7366 -1.0571
13562TIP3   OH262176   2.268   6.725   0.919 -0.1380 -0.5127  0.0910
13562TIP3    H162177   2.327   6.762   0.985  2.0331 -2.3870 -0.6550
13562TIP3    H262178   2.277   6.782   0.843 -0.3933  0.0061  0.4467
13563TIP3   OH262179   1.444   6.093   5.171 -0.5838 -0.0631 -0.0622
13563TIP3    H162180   1.372   6.104   5.110 -0.0064 -0.0250 -0.7490
13563TIP3    H262181   1.403   6.093   5.258 -1.4287 -0.3066 -0.4567
13564TIP3   OH262182   1.600   5.286  16.494  0.5787  0.5911 -0.8704
13564TIP3    H162183   1.512   5.323  16.498  0.0503 -0.4240 -2.2536
13564TIP3    H262184   1.594   5.216  16.429  1.8423 -1.0777  0.7120
13565TIP3   OH262185   0.364   5.475   2.124  0.0791 -0.2561  0.0806
13565TIP3    H162186   0.397   5.564   2.137 -0.2566 -0.1040 -0.0830
13565TIP3    H262187   0.428   5.419   2.167  0.7417  0.0053 -0.5448
13566TIP3   OH262188   1.473   4.974  15.396  0.0249  0.3103 -0.4801
13566TIP3    H162189   1.439   5.062  15.382 -0.2765  0.6759  2.0337
13566TIP3    H262190   1.433   4.922  15.326  0.0939  2.0901 -1.9346
13567TIP3   OH262191   4.600   5.332  11.542  0.1115  0.0384  0.5437
13567TIP3    H162192   4.557   5.258  11.584  1.2397 -1.5733 -1.0144
13567TIP3    H262193   4.537   5.364  11.478  0.0758 -0.3602  0.3803
13568TIP3   OH262194   6.698   3.667   0.608 -0.1480  0.4734 -0.0881
13568TIP3    H162195   6.671   3.589   0.657  0.0619  1.2890  1.3747
13568TIP3    H262196   6.780   3.694   0.649  0.5321  0.6595 -1.5186
13569TIP3   OH262197   1.895   5.205   4.899 -0.1727 -0.0121 -0.1280
13569TIP3    H162198   1.953   5.145   4.852  1.0124  0.0612  1.1816
13569TIP3    H262199   1.912   5.291   4.861  0.2291 -0.0646 -0.0634
13570TIP3   OH262200   4.835   5.889  11.445 -0.7411 -0.3347 -0.4335
13570TIP3    H162201   4.850   5.795  11.458 -1.1861 -0.4072 -0.4438
13570TIP3    H262202   4.901   5.915  11.381 -0.3890 -0.5685 -0.1670
13571TIP3   OH262203   0.016   4.183   4.070  0.2242 -0.2498  0.2038
13571TIP3    H162204  -0.008   4.274   4.087  1.0385 -0.2434  1.4924
13571TIP3    H262205   0.057   4.153   4.152 -0.1388 -1.8137 -0.1447
13572TIP3   OH262206   0.491   0.187  13.694  0.3947  0.2270  0.4599
13572TIP3    H162207   0.562   0.181  13.757 -0.4483  0.3299  1.4552
13572TIP3    H262208   0.448   0.271  13.714  0.0710  0.2249 -0.1953
13573TIP3   OH262209   6.492   3.947  16.623 -0.1295 -0.0730  0.1888
13573TIP3    H162210   6.478   3.951  16.528  0.8916 -2.2354 -0.0971
13573TIP3    H262211   6.403   3.940  16.659 -0.4813 -0.2317 -0.6753
13574TIP3   OH262212   0.875   4.820  15.033 -0.6613 -0.3281  0.5191
13574TIP3    H162213   0.969   4.806  15.043 -0.6843  0.3827  2.1229
13574TIP3    H262214   0.860   4.826  14.939  1.2612  1.9593  0.2863
13575TIP3   OH262215   3.643   0.709   4.342 -0.1759 -0.9726 -0.2792
13575TIP3    H162216   3.663   0.750   4.257 -1.4551  2.1288  0.7480
13575TIP3    H262217   3.728   0.688   4.379  0.5318 -0.2202 -1.4144
13576TIP3   OH262218   6.603   5.086   4.412 -0.5637 -0.2241 -0.1603
13576TIP3    H162219   6.590   4.994   4.436 -0.3372 -0.2099  0.0197
13576TIP3    H262220   6.671   5.084   4.345 -1.0136 -0.2421 -0.6219
13577TIP3   OH262221   6.409   6.715   5.018  0.7924  0.8338  0.3641
13577TIP3    H162222   6.388   6.805   5.043  0.6213  0.5857  1.1510
13577TIP3    H262223   6.327   6.667   5.031  0.9341  0.5293  0.1383
13578TIP3   OH262224   2.723   3.840   1.890 -0.5083 -0.6130 -0.8392
13578TIP3    H162225   2.694   3.930   1.904  1.3038 -0.0149 -0.7325
13578TIP3    H262226   2.655   3.786   1.931 -0.0774  0.7812  1.9016
13579TIP3   OH262227   3.497   5.543  17.277 -0.3509 -0.1161 -0.0257
13579TIP3    H162228   3.565   5.597  17.319 -0.6429 -0.6254  1.1652
13579TIP3    H262229   3.488   5.579  17.189 -0.3575  1.6278  0.6446
13580TIP3   OH262230   5.177   0.477  17.565 -0.0775 -0.1130 -0.1002
13580TIP3    H162231   5.199   0.447  17.654 -0.4138 -0.5472 -0.1602
13580TIP3    H262232   5.126   0.405  17.527  1.9629 -0.9150 -1.4691
13581TIP3   OH262233   3.501   2.455  14.695 -0.0467 -0.1987  0.0994
13581TIP3    H162234   3.528   2.443  14.604 -1.7427 -1.3154 -0.3299
13581TIP3    H262235   3.443   2.380  14.712  0.4868 -0.1930  2.2116
13582TIP3   OH262236   6.288   6.251   2.608  0.5367  0.1395 -0.3499
13582TIP3    H162237   6.350   6.252   2.681  0.2899 -2.3767 -0.0100
13582TIP3    H262238   6.258   6.160   2.604 -0.1390  0.4170 -3.0413
13583TIP3   OH262239   3.319   6.282   1.683 -0.1681 -0.2376 -0.2520
13583TIP3    H162240   3.336   6.368   1.722  0.9516 -0.5723  0.0409
13583TIP3    H262241   3.402   6.235   1.692 -1.0518 -1.7183  0.5487
13584TIP3   OH262242   3.207   0.287  16.235 -0.2593  0.0437  0.3497
13584TIP3    H162243   3.185   0.293  16.143  0.3903  1.1430  0.2468
13584TIP3    H262244   3.302   0.297  16.238  0.1317 -2.9348  0.9149
13585TIP3   OH262245   3.471   6.705  15.500 -0.1636  0.0283  0.2024
13585TIP3    H162246   3.405   6.647  15.538  1.7208 -0.9921  2.1162
13585TIP3    H262247   3.481   6.775  15.564 -0.6757  1.1982 -0.9570
13586TIP3   OH262248   6.417   5.766  13.739  0.6332  0.3392 -0.1845
13586TIP3    H162249   6.505   5.778  13.704  1.1088  0.3233  0.9646
13586TIP3    H262250   6.400   5.672  13.731  1.5025  0.0172  1.3243
13587TIP3   OH262251   1.686   1.773   1.818  0.4171 -0.5624 -0.1871
13587TIP3    H162252   1.747   1.786   1.746  1.6329 -0.9782  0.7194
13587TIP3    H262253   1.662   1.861   1.846  0.0910 -0.4003 -0.9792
13588TIP3   OH262254   1.579   5.251  10.844  0.0079  0.0794 -0.5104
13588TIP3    H162255   1.489   5.243  10.813  0.4365 -2.6113 -1.3847
13588TIP3    H262256   1.626   5.294  10.773 -0.0003 -1.4903 -1.5103
13589TIP3   OH262257   5.003   0.775  16.466 -0.6581 -0.9401 -0.1253
13589TIP3    H162258   5.007   0.686  16.430  1.9191 -1.1217  0.4256
13589TIP3    H262259   5.034   0.766  16.556 -1.9110  0.3240  0.4863
13590TIP3   OH262260   5.922   5.197  15.080 -0.2709 -0.8986  0.1362
13590TIP3    H162261   5.855   5.255  15.117  1.1548  0.1414  1.2487
13590TIP3    H262262   5.884   5.164  14.999 -1.7854  0.3236  0.3017
13591TIP3   OH262263   5.042   5.046   3.208 -0.6325  0.2420  0.4400
13591TIP3    H162264   4.987   5.013   3.279  0.0854 -0.4770  0.6747
13591TIP3    H262265   5.059   4.970   3.153  1.9767 -0.1405  1.5919
13592TIP3   OH262266   3.027   1.062  16.024  0.0585  0.7214  0.5951
13592TIP3    H162267   3.022   1.157  16.039 -0.4135  0.9669 -0.8684
13592TIP3    H262268   3.101   1.051  15.964 -1.6524  0.5884 -1.6768
13593TIP3   OH262269   0.694   5.412   5.311  0.1101  0.1583 -0.2423
13593TIP3    H162270   0.604   5.383   5.323  0.3669 -0.2426  0.8450
13593TIP3    H262271   0.698   5.443   5.220 -1.5847  1.9289  0.2426
13594TIP3   OH262272   1.533   2.119   4.001 -0.0317  0.4467  0.2572
13594TIP3    H162273   1.502   2.074   3.922 -0.0228 -0.3377  0.6908
13594TIP3    H262274   1.534   2.212   3.977  1.6786  0.0933 -1.2525
13595TIP3   OH262275   1.866   5.577   4.426  0.1246 -0.6180 -0.2909
13595TIP3    H162276   1.922   5.612   4.496  1.3551  0.5629 -1.7985
13595TIP3    H262277   1.834   5.493   4.460  1.1563 -0.3572  1.4335
13596TIP3   OH262278   5.510   5.542  15.688 -0.6795  0.0240 -0.2722
13596TIP3    H162279   5.545   5.603  15.752  1.1349  0.9047 -1.9915
13596TIP3    H262280   5.511   5.457  15.733  1.0998  0.5010  0.6882
13597TIP3   OH262281   3.755   0.633   1.725 -0.0663 -0.1663  0.3007
13597TIP3    H162282   3.810   0.699   1.684 -0.2057  0.0991  0.5450
13597TIP3    H262283   3.786   0.550   1.687 -0.3160  0.0904 -0.4838
13598TIP3   OH262284   4.889   6.214   6.307 -0.6429 -0.4902  0.3902
13598TIP3    H162285   4.880   6.119   6.305 -0.1873 -0.5707  1.4159
13598TIP3    H262286   4.938   6.236   6.228  0.2236 -1.2381  0.7050
13599TIP3   OH262287   4.573   5.238  11.134 -0.4051  0.1119 -0.8231
13599TIP3    H162288   4.570   5.285  11.217 -0.2005 -1.0000 -0.1676
13599TIP3    H262289   4.559   5.306  11.067 -0.3825  1.0460  0.0993
13600TIP3   OH262290   3.087   3.365  12.658 -0.0879  0.7149  0.3779
13600TIP3    H162291   3.039   3.381  12.739 -0.5754  1.4694 -0.0439
13600TIP3    H262292   3.096   3.270  12.654  0.2631  0.6863  1.4853
13601TIP3   OH262293   1.147   3.357   4.457  0.1430  0.7881 -0.0096
13601TIP3    H162294   1.112   3.285   4.508 -1.2254 -0.0462 -2.0149
13601TIP3    H262295   1.137   3.434   4.514 -0.2052 -0.2590  1.3960
13602TIP3   OH262296   6.136   5.621  13.033 -0.2972  0.2253  0.4012
13602TIP3    H162297   6.171   5.675  13.104 -0.3552 -0.1780  0.7402
13602TIP3    H262298   6.213   5.590  12.986 -0.2872  1.4270 -0.4271
13603TIP3   OH262299   4.834   5.267  12.494  0.2144  0.3473  0.6087
13603TIP3    H162300   4.806   5.262  12.403  0.1047 -0.4002  0.6835
13603TIP3    H262301   4.916   5.318  12.491  0.5430 -0.2034  0.0224
13604TIP3   OH262302   1.708   1.596  16.777  0.3856  0.4361  0.1920
13604TIP3    H162303   1.647   1.647  16.723  0.8930  1.5462  0.6406
13604TIP3    H262304   1.779   1.657  16.796  0.4857 -0.1067  1.6458
13605TIP3   OH262305   2.125   3.551   3.921  0.2432 -0.1651 -0.4645
13605TIP3    H162306   2.060   3.507   3.866 -1.1360 -0.7294  1.5109
13605TIP3    H262307   2.204   3.498   3.913 -0.1898 -0.7036 -1.2406
13606TIP3   OH262308   5.976   5.131   2.919  0.0435 -0.2428  0.4505
13606TIP3    H162309   5.994   5.146   3.012 -0.8560 -1.4879  0.8417
13606TIP3    H262310   6.063   5.117   2.881  0.3580 -0.5821  1.2576
13607TIP3   OH262311   4.807   6.534  13.979  0.2705 -0.2739 -0.0338
13607TIP3    H162312   4.836   6.615  13.935 -0.1435 -0.6021 -0.9316
13607TIP3    H262313   4.814   6.467  13.911  0.8564 -1.0546  0.7804
13608TIP3   OH262314   0.562   2.790  14.633  0.2068 -0.1538  0.1812
13608TIP3    H162315   0.655   2.811  14.632 -0.3409  2.6490 -0.1901
13608TIP3    H262316   0.519   2.872  14.657 -2.1199 -1.7747  2.0697
13609TIP3   OH262317   3.533   5.217  12.067  0.0406  0.1464 -0.2036
13609TIP3    H162318   3.581   5.191  12.145 -0.0140  0.3188 -0.1096
13609TIP3    H262319   3.448   5.173  12.075  0.5587 -1.0209 -0.9063
13610TIP3   OH262320   0.856   3.310  13.188 -0.2193  0.3512 -0.2063
13610TIP3    H162321   0.785   3.372  13.171 -0.3468  0.4570  0.6618
13610TIP3    H262322   0.934   3.351  13.152 -0.0231  1.7247  1.6544
13611TIP3   OH262323   3.437   2.002   5.182  0.2559  0.2471  0.2685
13611TIP3    H162324   3.440   1.916   5.140 -0.3442  0.2542  0.1952
13611TIP3    H262325   3.508   2.000   5.245  0.4703 -0.1749  0.0223
13612TIP3   OH262326   6.592   1.803   4.505  0.4425  0.1013 -0.4439
13612TIP3    H162327   6.584   1.725   4.450  1.2057 -0.5121  0.2717
13612TIP3    H262328   6.676   1.842   4.480  0.7825 -0.1692  0.2355
13613TIP3   OH262329   5.593   1.297  17.152  0.2085  1.0260 -0.0126
13613TIP3    H162330   5.611   1.374  17.206 -2.0602  1.0676  0.7950
13613TIP3    H262331   5.679   1.262  17.131  1.2630  2.9642  0.7856
13614TIP3   OH262332   3.124   4.318   0.998 -0.3092  0.0520 -0.2468
13614TIP3    H162333   3.054   4.269   0.955  1.5978 -1.4972 -1.8318
13614TIP3    H262334   3.109   4.305   1.091 -1.9598 -0.4687 -0.5605
13615TIP3   OH262335   3.524   5.329   2.786 -0.0147  0.7079  0.5024
13615TIP3    H162336   3.587   5.262   2.760 -1.0378  0.5263 -1.7201
13615TIP3    H262337   3.500   5.306   2.876  0.4790 -1.2415  0.1857
13616TIP3   OH262338   6.470   4.252   2.150 -0.0694 -0.0162 -0.1051
13616TIP3    H162339   6.477   4.347   2.144  0.1030 -0.1041 -1.5148
13616TIP3    H262340   6.394   4.230   2.097  0.6734 -0.7739 -0.8746
13617TIP3   OH262341   2.207   3.479   0.155  0.4991 -0.1715  0.1656
13617TIP3    H162342   2.148   3.521   0.093 -0.5436 -0.1505  1.1372
13617TIP3    H262343   2.295   3.494   0.119  0.0378  1.2945 -0.4158
13618TIP3   OH262344   0.968   5.014  12.145  0.5170 -0.3960  0.1475
13618TIP3    H162345   1.003   5.010  12.056 -1.5866  2.5854 -0.9758
13618TIP3    H262346   1.044   5.034  12.200  1.7503 -1.6363 -1.0283
13619TIP3   OH262347   5.240   4.405  15.738  0.2822  0.9848 -0.3687
13619TIP3    H162348   5.292   4.407  15.818 -0.9732  0.3189  0.4941
13619TIP3    H262349   5.162   4.354  15.761  1.1662 -1.7583 -2.7876
13620TIP3   OH262350   2.886   2.158  13.497 -0.0107  0.0413  0.1494
13620TIP3    H162351   2.838   2.104  13.561 -0.4342  0.7966  0.4837
13620TIP3    H262352   2.904   2.239  13.544  1.1179 -0.0169 -0.1666
13621TIP3   OH262353   4.345   3.740  11.187 -0.2418 -0.9299  0.0559
13621TIP3    H162354   4.414   3.717  11.124  0.1335 -0.0683  0.1406
13621TIP3    H262355   4.346   3.667  11.250 -0.0152 -1.3591 -0.4348
13622TIP3   OH262356   0.085   6.695  17.014 -0.4565 -0.9305 -0.0077
13622TIP3    H162357   0.147   6.757  16.976 -0.8754 -1.2402 -1.2585
13622TIP3    H262358   0.139   6.636  17.067  0.4236 -1.5395 -1.5235
13623TIP3   OH262359   1.151   0.959   3.895 -0.2676 -0.0922  0.0825
13623TIP3    H162360   1.160   0.981   3.987 -0.4181 -0.1969  0.1215
13623TIP3    H262361   1.211   0.886   3.882  0.2583  0.3529 -0.0552
13624TIP3   OH262362   6.526   3.084  12.037  0.4112 -0.0089 -0.3456
13624TIP3    H162363   6.503   3.149  12.104  0.4787 -0.4077  0.0686
13624TIP3    H262364   6.531   3.001  12.085  0.6846 -0.2600 -0.8060
13625TIP3   OH262365   2.775   5.864   3.472 -0.2172 -0.2599  0.8912
13625TIP3    H162366   2.744   5.824   3.391  0.1143 -2.1687  1.6658
13625TIP3    H262367   2.699   5.862   3.530 -0.4927  1.2204  0.6377
13626TIP3   OH262368   0.159   4.576   4.911  0.1649  0.3984  0.4946
13626TIP3    H162369   0.084   4.570   4.851  1.3983 -1.2820 -1.0014
13626TIP3    H262370   0.145   4.658   4.958 -1.3647  1.3764 -1.4692
13627TIP3   OH262371   4.514   1.524   2.034 -0.6584  0.3145 -0.0527
13627TIP3    H162372   4.540   1.468   2.107 -0.2061  1.1790  0.4672
13627TIP3    H262373   4.506   1.612   2.072 -0.3486  0.7938 -1.0492
13628TIP3   OH262374   0.661   3.305   4.963 -0.3795 -0.4809 -0.7987
13628TIP3    H162375   0.598   3.374   4.941  0.9513  0.4705 -1.8251
13628TIP3    H262376   0.619   3.224   4.933 -1.3932  0.0435 -0.8407
13629TIP3   OH262377   2.120   2.662   1.125  0.7410 -1.1403 -0.7927
13629TIP3    H162378   2.089   2.697   1.042  1.1845  1.5240  0.0453
13629TIP3    H262379   2.041   2.640   1.174  0.0831  2.4660  0.0672
13630TIP3   OH262380   3.698   1.974   3.281 -0.3271 -0.6239  0.0743
13630TIP3    H162381   3.691   1.920   3.360  2.1319  0.3047  1.0010
13630TIP3    H262382   3.651   1.924   3.214 -1.1356 -2.1928  1.7229
13631TIP3   OH262383   0.697   5.464   5.830 -0.1658  0.3069  0.1652
13631TIP3    H162384   0.648   5.522   5.771  0.7948  0.9867  0.0224
13631TIP3    H262385   0.629   5.410   5.870 -0.9964  0.9023 -0.3812
13632TIP3   OH262386   1.342   2.568  11.000  0.5167  0.1524 -0.2141
13632TIP3    H162387   1.322   2.511  10.925 -1.9433  1.4318 -0.5989
13632TIP3    H262388   1.258   2.602  11.029  1.6139  1.3019  1.8991
13633TIP3   OH262389   1.053   3.632  14.092 -0.1122  0.3884 -0.1887
13633TIP3    H162390   1.003   3.570  14.145  1.2424 -1.2146 -0.6954
13633TIP3    H262391   1.010   3.630  14.007 -0.8772  1.2078  0.1550
13634TIP3   OH262392   6.685   2.258   1.321 -0.4269  0.8834 -0.4396
13634TIP3    H162393   6.756   2.318   1.294 -1.1623  0.9733 -2.3446
13634TIP3    H262394   6.673   2.276   1.414  1.0657  1.9130 -0.4001
13635TIP3   OH262395   2.044   4.716  13.344 -0.6287 -0.6197 -0.5041
13635TIP3    H162396   2.028   4.668  13.425 -0.9932 -0.2338 -0.3421
13635TIP3    H262397   2.129   4.757  13.356  1.3018 -3.7860 -1.8983
13636TIP3   OH262398   5.519   1.774  13.602  0.4674 -0.6430  0.3926
13636TIP3    H162399   5.444   1.784  13.544  0.5215 -1.0081  0.2569
13636TIP3    H262400   5.595   1.776  13.543  0.5297 -0.8719  0.4647
13637TIP3   OH262401   4.284   3.527   4.348 -0.0796  0.4205 -0.3582
13637TIP3    H162402   4.325   3.613   4.356  2.1119 -0.6307  0.4761
13637TIP3    H262403   4.353   3.465   4.372 -2.2818 -1.4743  1.5297
13638TIP3   OH262404   3.462   1.913  15.228  0.1376  0.6905  0.1457
13638TIP3    H162405   3.507   1.954  15.153 -1.3005  1.0666 -0.5479
13638TIP3    H262406   3.404   1.982  15.261  0.2466  0.2952  1.1823
13639TIP3   OH262407   5.469   6.100   2.744 -0.3615 -0.0556 -0.0382
13639TIP3    H162408   5.487   6.073   2.654 -0.4608 -2.3381  0.5665
13639TIP3    H262409   5.373   6.103   2.749 -0.4412  3.7011 -0.9218
13640TIP3   OH262410   6.723   2.042  15.039  0.5558  0.0425 -0.3100
13640TIP3    H162411   6.692   1.980  15.106  0.8572  0.5722  0.3267
13640TIP3    H262412   6.684   2.010  14.958 -1.4905  0.5335  0.4078
13641TIP3   OH262413   2.836   4.899   0.283 -0.1575  0.5308 -0.0556
13641TIP3    H162414   2.844   4.811   0.320 -2.9110  0.5912  0.8880
13641TIP3    H262415   2.910   4.947   0.319  1.0827 -1.2073 -0.1350
13642TIP3   OH262416   2.216   2.342   2.099  0.0056  0.0641 -0.6714
13642TIP3    H162417   2.160   2.412   2.134 -0.4023 -1.4079  1.8407
13642TIP3    H262418   2.305   2.373   2.115 -0.1057  0.7937 -1.3405
13643TIP3   OH262419   0.920   3.157   2.264  0.0082 -0.0357 -0.1533
13643TIP3    H162420   0.858   3.088   2.240  0.8163 -0.3724 -1.3632
13643TIP3    H262421   0.952   3.191   2.180  0.5859  0.9350  0.4387
13644TIP3   OH262422   6.390   3.021  13.908  0.3011  0.7706  0.0259
13644TIP3    H162423   6.309   3.053  13.947 -0.4252 -0.5312 -0.3400
13644TIP3    H262424   6.415   3.088  13.845  0.1334  1.7163  0.9371
13645TIP3   OH262425   3.942   5.190   3.818 -0.5782 -0.0039 -0.5965
13645TIP3    H162426   4.029   5.172   3.784 -1.1123 -1.6183 -1.1996
13645TIP3    H262427   3.934   5.285   3.817  0.8855  0.1217 -1.2406
13646TIP3   OH262428   2.909   3.533  12.213 -0.1776 -0.0900  0.6249
13646TIP3    H162429   2.929   3.626  12.207  1.4982 -0.3329  1.8049
13646TIP3    H262430   2.879   3.509  12.125 -0.8522  1.5771  0.3647
13647TIP3   OH262431   0.155   0.759   1.280 -0.5436 -0.8464 -0.0189
13647TIP3    H162432   0.145   0.815   1.203 -1.7998 -2.6319 -1.2590
13647TIP3    H262433   0.227   0.700   1.257  1.9899  1.2522  1.9950
13648TIP3   OH262434   5.981   1.829   4.259 -0.6634 -0.2312 -0.4290
13648TIP3    H162435   6.020   1.748   4.226  0.8875  0.3274 -0.0597
13648TIP3    H262436   5.999   1.827   4.353  0.7566  1.2272 -0.6307
13649TIP3   OH262437   1.202   2.126  16.527  0.3143  0.0267  0.1373
13649TIP3    H162438   1.290   2.149  16.558  0.4452  0.5843 -0.6257
13649TIP3    H262439   1.200   2.156  16.436  0.1510 -2.0772 -0.6002
13650TIP3   OH262440   1.031   3.647   6.170  0.1471 -0.1618  0.1514
13650TIP3    H162441   1.025   3.713   6.238 -0.0132  1.4901 -1.4065
13650TIP3    H262442   0.965   3.673   6.105  0.7688 -1.2769 -0.9777
13651TIP3   OH262443   5.314   6.403  13.539 -0.0291 -0.0045 -0.5650
13651TIP3    H162444   5.300   6.373  13.629 -0.0632  1.3822 -0.0952
13651TIP3    H262445   5.399   6.366  13.515 -0.4692 -1.2202 -0.3426
13652TIP3   OH262446   0.488   4.014  17.498 -0.1242  0.3095  0.0227
13652TIP3    H162447   0.569   3.973  17.528 -1.5419 -2.5931  0.1801
13652TIP3    H262448   0.501   4.107  17.516  3.5314  0.1248 -0.8869
13653TIP3   OH262449   0.954   1.151   0.793  0.5384 -0.4142  0.9807
13653TIP3    H162450   0.927   1.224   0.848  0.1631 -0.8210  1.3472
13653TIP3    H262451   0.872   1.110   0.764  0.7419 -1.1318  1.3831
13654TIP3   OH262452   0.270   3.112   0.023  0.5116 -0.1980 -0.4876
13654TIP3    H162453   0.306   3.134   0.109  0.9810  0.7172 -0.9013
13654TIP3    H262454   0.228   3.027   0.036  0.3241  0.0522  0.7129
13655TIP3   OH262455   1.898   1.741   4.176  0.2682  0.3912 -0.5284
13655TIP3    H162456   1.865   1.821   4.134  0.7351 -0.4079 -2.5156
13655TIP3    H262457   1.830   1.676   4.159  1.2711 -0.4000 -1.6909
13656TIP3   OH262458   2.899   1.043   4.900 -0.2021 -0.1460 -0.2409
13656TIP3    H162459   2.990   1.014   4.904 -0.1584  0.1307  1.1281
13656TIP3    H262460   2.857   0.981   4.841  0.8446 -0.3279 -0.8269
13657TIP3   OH262461   6.199   1.469  16.789  0.3516 -0.4447 -0.4808
13657TIP3    H162462   6.139   1.397  16.770  0.3319 -0.5160 -0.1471
13657TIP3    H262463   6.186   1.487  16.882  1.0869 -0.6770 -0.3272
13658TIP3   OH262464   2.169   3.675   4.349 -0.8393 -0.1738 -0.0063
13658TIP3    H162465   2.174   3.690   4.254  2.5485  0.6341  0.1493
13658TIP3    H262466   2.225   3.599   4.364 -0.4932  0.3453  1.4363
13659TIP3   OH262467   3.595   1.341  16.398  0.2626 -0.1670  0.0243
13659TIP3    H162468   3.580   1.436  16.403  1.1140 -0.0649  0.8460
13659TIP3    H262469   3.603   1.323  16.304 -0.4993  0.4713 -0.1727
13660TIP3   OH262470   1.270   2.770   1.697 -0.4230 -0.4921  0.1174
13660TIP3    H162471   1.291   2.719   1.775 -0.4890 -1.0315 -0.2168
13660TIP3    H262472   1.227   2.849   1.731 -0.9136 -0.9647  0.5978
13661TIP3   OH262473   0.284   4.142  13.177 -0.1852  0.5128  0.0343
13661TIP3    H162474   0.260   4.230  13.208 -1.0482  0.4828 -0.5037
13661TIP3    H262475   0.284   4.149  13.082  0.5844  0.1356  0.0008
13662TIP3   OH262476   0.289   1.429   3.852  0.2665  0.0042  0.3490
13662TIP3    H162477   0.338   1.511   3.847 -0.3938  0.3481 -0.7534
13662TIP3    H262478   0.286   1.397   3.762 -1.6514  0.0814  0.3447
13663TIP3   OH262479   2.934   2.132  14.229 -0.5553 -0.3629 -0.2333
13663TIP3    H162480   2.997   2.082  14.280 -2.0623 -2.5392 -0.3525
13663TIP3    H262481   2.924   2.083  14.147 -0.7265  1.1889 -1.1961
13664TIP3   OH262482   6.231   4.166   2.072 -0.0932  0.2121 -0.3670
13664TIP3    H162483   6.164   4.110   2.033 -0.6806 -1.5196  2.7547
13664TIP3    H262484   6.183   4.221   2.134  1.0977  0.5808  0.2516
13665TIP3   OH262485   2.590   5.164  11.500 -0.4735  0.5492 -0.3765
13665TIP3    H162486   2.601   5.160  11.405 -1.4631 -0.9086 -0.4653
13665TIP3    H262487   2.671   5.202  11.532 -0.2633  1.4024 -1.8261
13666TIP3   OH262488   2.910   4.900  14.387 -0.3292 -0.3410  0.0584
13666TIP3    H162489   2.830   4.950  14.397  0.2490  0.4666  0.7241
13666TIP3    H262490   2.917   4.884  14.292 -0.5524  0.7886 -0.1559
13667TIP3   OH262491   0.864   5.666   3.947 -0.3227 -0.0039 -0.3254
13667TIP3    H162492   0.877   5.625   3.862  1.1457  1.8649 -1.0703
13667TIP3    H262493   0.846   5.758   3.927  1.8850  0.8905  1.3868
13668TIP3   OH262494   6.383   0.435  13.919 -0.1156  0.0903 -0.4275
13668TIP3    H162495   6.353   0.354  13.960 -2.1424 -0.0664 -2.0329
13668TIP3    H262496   6.446   0.472  13.980 -2.0699 -0.7037  2.2374
13669TIP3   OH262497   1.304   2.069  14.512  0.3474 -0.8626  0.3757
13669TIP3    H162498   1.351   2.043  14.433  0.2929 -2.5907  0.8614
13669TIP3    H262499   1.225   2.014  14.512 -0.6350  0.4853  0.6555
13670TIP3   OH262500   0.959   0.097   1.035 -0.3365 -0.0469  0.3008
13670TIP3    H162501   1.013   0.136   0.966 -0.2568 -1.3743 -0.4206
13670TIP3    H262502   1.017   0.096   1.112  0.3086 -0.4487 -0.1739
13671TIP3   OH262503   5.766   2.285  15.674 -0.3060 -0.3248 -0.1717
13671TIP3    H162504   5.710   2.315  15.746 -0.8635 -2.5935  0.4181
13671TIP3    H262505   5.739   2.338  15.599  0.3516  2.1617  1.2476
13672TIP3   OH262506   0.014   5.514  15.366  0.6610  0.5928 -0.0350
13672TIP3    H162507   0.083   5.515  15.301  2.0785  1.0773  1.4067
13672TIP3    H262508   0.017   5.425  15.403  1.6927  1.1065  1.1861
13673TIP3   OH262509   4.588   6.213  17.033  0.2382  0.2561 -0.0309
13673TIP3    H162510   4.559   6.302  17.051  1.4131  0.7776 -0.6006
13673TIP3    H262511   4.543   6.189  16.952 -0.5700  0.0727  0.4575
13674TIP3   OH262512   5.588   6.278  14.354 -0.3887  0.1944 -0.0456
13674TIP3    H162513   5.504   6.247  14.387 -0.2440 -0.4058 -0.2312
13674TIP3    H262514   5.653   6.234  14.408 -0.1927  1.5474  0.8779
13675TIP3   OH262515   1.218   2.276   0.327  0.4063  0.4211  0.5324
13675TIP3    H162516   1.235   2.211   0.395  0.3656 -0.4948 -0.3114
13675TIP3    H262517   1.123   2.277   0.317  0.4573 -0.0222 -0.0495
13676TIP3   OH262518   1.651   3.637   1.022 -0.7756 -0.1606 -0.2661
13676TIP3    H162519   1.615   3.549   1.012  2.3866 -1.6416  0.1998
13676TIP3    H262520   1.708   3.648   0.946  1.1498  0.2180  1.1507
13677TIP3   OH262521   6.080   4.077  17.126 -0.2792 -0.5729 -0.2920
13677TIP3    H162522   6.123   4.151  17.169  0.4825  0.2288 -2.2942
13677TIP3    H262523   6.126   4.069  17.042 -2.9524 -0.7589 -1.8534
13678TIP3   OH262524   5.828   3.382  12.448  0.0755 -0.4209  0.5219
13678TIP3    H162525   5.846   3.463  12.496  0.0330 -0.0744 -0.0457
13678TIP3    H262526   5.744   3.352  12.483 -0.4511  0.3637 -0.0385
13679TIP3   OH262527   2.176   3.330   2.130  0.1830 -0.3718  0.0318
13679TIP3    H162528   2.103   3.271   2.112  0.4582 -1.4379  2.0435
13679TIP3    H262529   2.170   3.348   2.224  1.6270  0.7493 -0.0418
13680TIP3   OH262530   6.315   4.698   5.552 -0.0440 -0.3785  0.0364
13680TIP3    H162531   6.292   4.609   5.581 -2.0696  0.1282  0.1776
13680TIP3    H262532   6.350   4.740   5.631 -2.6164  0.0329  1.0836
13681TIP3   OH262533   2.737   3.176   0.290 -0.3865  0.5169 -0.2184
13681TIP3    H162534   2.820   3.223   0.292 -0.3019  0.3712  1.9425
13681TIP3    H262535   2.761   3.085   0.273  0.0449  0.2835  1.4750
13682TIP3   OH262536   6.414   0.930  16.258  0.1593 -0.5385 -0.4520
13682TIP3    H162537   6.376   0.847  16.287 -2.9614  0.8563 -0.1290
13682TIP3    H262538   6.345   0.971  16.206  0.5376  2.9234  1.4505
13683TIP3   OH262539   0.463   4.213   1.160 -0.4683  0.2857  0.3754
13683TIP3    H162540   0.477   4.140   1.100  0.1134 -0.1387  1.0189
13683TIP3    H262541   0.373   4.241   1.142 -0.6664 -0.5206  0.0579
13684TIP3   OH262542   0.664   2.033   4.950 -0.2003 -0.1863 -0.5699
13684TIP3    H162543   0.687   1.944   4.976 -2.9344 -1.0810 -0.8775
13684TIP3    H262544   0.633   2.075   5.030  0.9009  0.4681 -0.4642
13685TIP3   OH262545   3.561   4.895   0.571  0.1309 -0.3177 -0.3295
13685TIP3    H162546   3.529   4.957   0.505 -0.0125 -0.8798 -0.7942
13685TIP3    H262547   3.550   4.809   0.531 -0.0403 -0.6770  0.4635
13686TIP3   OH262548   0.008   0.299   1.779  0.0822 -0.0571  0.0855
13686TIP3    H162549  -0.084   0.278   1.762  0.0157  1.0325 -1.0662
13686TIP3    H262550   0.050   0.293   1.693  0.9432  0.1793  0.4781
13687TIP3   OH262551   0.751   5.420   2.871  0.3616  0.2297  0.0128
13687TIP3    H162552   0.782   5.330   2.885 -2.1850 -0.5677  1.1540
13687TIP3    H262553   0.745   5.458   2.958 -1.0523  0.5762 -0.2084
13688TIP3   OH262554   1.032   3.025   1.434 -0.5906 -0.0217  0.1699
13688TIP3    H162555   0.977   3.020   1.356  1.2289  1.9395 -1.3856
13688TIP3    H262556   1.105   2.966   1.415 -0.8495 -0.6586  1.0853
13689TIP3   OH262557   6.365   4.404   3.976  0.0710  0.3370  0.1500
13689TIP3    H162558   6.383   4.335   3.912  0.4867  0.3005  0.3006
13689TIP3    H262559   6.397   4.367   4.059 -2.9763 -0.7883  0.9482
13690TIP3   OH262560   3.327   0.572  12.678  0.3080  0.0695  0.4330
13690TIP3    H162561   3.257   0.635  12.695  1.9337  2.0934  0.0241
13690TIP3    H262562   3.329   0.517  12.756 -2.3838 -0.7413  0.0080
13691TIP3   OH262563   0.913   5.346  12.685  0.0522 -0.0242  0.0867
13691TIP3    H162564   0.919   5.332  12.590 -0.0067  0.0091  0.0778
13691TIP3    H262565   0.989   5.401  12.706 -0.0921  0.2043  0.0132
13692TIP3   OH262566   1.081   2.700   4.056 -0.1057  0.3107  0.1967
13692TIP3    H162567   1.146   2.658   4.112  1.0329  1.3567 -0.2804
13692TIP3    H262568   1.037   2.763   4.113  2.4446  2.8621 -0.4044
13693TIP3   OH262569   6.289   2.563  12.741 -0.1767 -0.0550 -0.1363
13693TIP3    H162570   6.380   2.574  12.769 -0.1626 -0.6895  0.0884
13693TIP3    H262571   6.292   2.573  12.646  0.1263 -0.0434 -0.1268
13694TIP3   OH262572   3.814   0.346   5.309  0.5008  0.0215  0.1288
13694TIP3    H162573   3.882   0.298   5.263 -0.2322  0.0513 -1.0293
13694TIP3    H262574   3.816   0.311   5.398  0.0978 -2.0907 -0.6299
13695TIP3   OH262575   5.751   3.396  13.434 -0.1397 -0.6831 -0.2098
13695TIP3    H162576   5.761   3.302  13.416 -0.0743 -0.9617  1.1985
13695TIP3    H262577   5.836   3.423  13.469 -0.0302  0.0019 -0.9736
13696TIP3   OH262578   2.515   6.090  12.167  0.0299  0.0715 -0.1204
13696TIP3    H162579   2.557   6.164  12.211  0.9501  0.6343 -1.8239
13696TIP3    H262580   2.438   6.071  12.220  0.5499  1.3193  1.1613
13697TIP3   OH262581   0.021   5.700  11.653  0.1042 -0.2723  0.0808
13697TIP3    H162582   0.021   5.794  11.669  1.1231 -0.2716  0.1281
13697TIP3    H262583  -0.051   5.686  11.591  1.6925  0.9583 -2.1880
13698TIP3   OH262584   2.651   1.574  16.252 -0.3818 -0.2268  0.2709
13698TIP3    H162585   2.594   1.625  16.193 -1.5578 -0.2454  1.3491
13698TIP3    H262586   2.603   1.493  16.266  0.0658 -0.3745  0.9479
13699TIP3   OH262587   6.316   4.667   0.459 -0.2651  0.2861 -0.3068
13699TIP3    H162588   6.247   4.682   0.395 -1.4695 -2.0601  0.3373
13699TIP3    H262589   6.279   4.699   0.542 -1.0849 -1.8606  0.2301
13700TIP3   OH262590   5.204   5.077  15.424  0.3779 -0.1433 -0.3259
13700TIP3    H162591   5.289   5.121  15.418  0.1714  0.4468  0.7757
13700TIP3    H262592   5.164   5.113  15.503 -1.8059  1.1347 -1.8818
13701TIP3   OH262593   2.733   1.515  12.237  0.3690 -0.2999 -0.0696
13701TIP3    H162594   2.776   1.518  12.322 -0.1315  2.3908  0.1870
13701TIP3    H262595   2.800   1.485  12.176  0.7728 -2.1360  1.1872
13702TIP3   OH262596   6.700   1.157   0.641  0.4981 -0.0677 -0.4980
13702TIP3    H162597   6.619   1.191   0.679  1.0032  1.0857 -0.4189
13702TIP3    H262598   6.676   1.070   0.608 -0.6698  0.1014 -0.1433
13703TIP3   OH262599   6.623   1.061  13.865 -0.0135  0.6600  0.0266
13703TIP3    H162600   6.595   0.973  13.891 -0.1646  0.4977 -0.6515
13703TIP3    H262601   6.644   1.052  13.772 -2.1598  1.8369 -0.6419
13704TIP3   OH262602   3.123   0.856   2.699 -0.8618  0.0791  0.3726
13704TIP3    H162603   3.129   0.789   2.767  0.4999  0.3942  0.6062
13704TIP3    H262604   3.176   0.822   2.626 -0.0657  0.9030  0.5336
13705TIP3   OH262605   2.223   6.278  11.580 -0.2432 -0.3774  0.2401
13705TIP3    H162606   2.238   6.305  11.490  0.8580  0.3537  0.6308
13705TIP3    H262607   2.127   6.269  11.586 -0.5881  2.1727 -0.2650
13706TIP3   OH262608   2.964   1.168  16.333 -0.4089  0.4843 -0.4023
13706TIP3    H162609   3.017   1.089  16.343 -0.4627  0.5717  0.8027
13706TIP3    H262610   3.027   1.240  16.344 -0.9094  0.6026  2.4665
13707TIP3   OH262611   5.586   6.089  16.065 -0.2431  0.4021 -0.1733
13707TIP3    H162612   5.522   6.070  15.997 -0.6558 -0.7294  0.4887
13707TIP3    H262613   5.594   6.007  16.114  2.1107  0.3187 -0.5449
13708TIP3   OH262614   5.758   0.457  14.040 -0.3996  0.7961 -0.0343
13708TIP3    H162615   5.746   0.550  14.023 -0.0351  1.1127  1.2753
13708TIP3    H262616   5.845   0.437  14.004 -0.1029  1.1787  0.4622
13709TIP3   OH262617   3.886   5.539   4.724 -0.7600 -0.0921 -0.0447
13709TIP3    H162618   3.968   5.514   4.767 -0.6691 -2.3717 -1.3619
13709TIP3    H262619   3.885   5.634   4.728  0.5326 -0.0989  2.5454
13710TIP3   OH262620   0.246   2.595  15.224  0.6389 -0.4420 -0.5711
13710TIP3    H162621   0.222   2.622  15.313  2.0162 -1.1907  0.0542
13710TIP3    H262622   0.259   2.677  15.177  2.8919  0.0738  0.7782
13711TIP3   OH262623   3.533   2.866  11.138  0.3371 -0.8136 -0.5705
13711TIP3    H162624   3.625   2.839  11.141  0.5837  0.0500  0.3931
13711TIP3    H262625   3.519   2.912  11.221 -0.2102  1.4002 -1.8035
13712TIP3   OH262626   2.045   0.285   3.808  0.3483  0.1378  0.5313
13712TIP3    H162627   2.118   0.333   3.846  1.2676 -0.3362 -0.5541
13712TIP3    H262628   2.072   0.193   3.811  0.6939  0.1152 -1.6423
13713TIP3   OH262629   5.727   4.758   0.920 -0.4516  0.0386  0.4655
13713TIP3    H162630   5.635   4.738   0.905 -0.8652  1.8792  0.3197
13713TIP3    H262631   5.731   4.784   1.012 -0.1511  0.3539  0.3657
13714TIP3   OH262632   6.420   2.536   5.952 -0.0225 -0.5566 -0.2393
13714TIP3    H162633   6.349   2.578   5.902 -0.2611 -0.2508  0.3428
13714TIP3    H262634   6.392   2.544   6.044  1.2262  0.4620  0.0853
13715TIP3   OH262635   0.057   6.707   1.830 -0.2749 -0.0162 -0.0940
13715TIP3    H162636   0.060   6.764   1.907 -0.1890 -1.0684  0.7112
13715TIP3    H262637   0.045   6.766   1.756  2.6702  1.3441  0.3660
13716TIP3   OH262638   0.164   5.629   2.482 -0.1949  0.4674  0.6215
13716TIP3    H162639   0.113   5.560   2.523 -0.6740  0.3183 -0.1998
13716TIP3    H262640   0.255   5.605   2.500 -0.2508 -1.4938 -1.2969
13717TIP3   OH262641   2.646   6.104   4.930  0.3924  0.2572  0.4317
13717TIP3    H162642   2.688   6.103   5.016  1.8290 -1.0899 -0.2231
13717TIP3    H262643   2.567   6.052   4.941  0.0528  0.9090  1.1547
13718TIP3   OH262644   1.675   0.113   0.496  0.1224  0.3992 -0.1432
13718TIP3    H162645   1.713   0.027   0.477 -1.2123  0.2609 -2.7058
13718TIP3    H262646   1.750   0.174   0.492  1.1245 -0.6125  1.9750
13719TIP3   OH262647   2.688   1.535   5.980 -0.4622 -0.4646  0.3713
13719TIP3    H162648   2.736   1.512   5.900 -0.3456  1.9320 -0.3062
13719TIP3    H262649   2.626   1.602   5.953  0.5792  1.4941  2.5288
13720TIP3   OH262650   2.338   3.773   6.858  0.6180 -0.2903  0.0061
13720TIP3    H162651   2.285   3.841   6.816  0.7965 -0.2032 -0.0790
13720TIP3    H262652   2.299   3.763   6.945 -0.0992 -0.8634 -0.3732
13721TIP3   OH262653   0.149   4.026   6.210 -0.1728  0.5932 -0.0522
13721TIP3    H162654   0.136   3.981   6.294 -1.1754  1.4418  0.2700
13721TIP3    H262655   0.207   3.968   6.161 -1.4753 -1.1092  0.3132
13722TIP3   OH262656   1.175   1.630  14.270  0.0320 -0.3074 -0.0992
13722TIP3    H162657   1.217   1.700  14.220 -1.8472 -0.0786 -1.4814
13722TIP3    H262658   1.141   1.674  14.348  0.1902 -0.0027 -0.1981
13723TIP3   OH262659   5.342   3.572   4.317 -0.0702  0.8056 -0.0748
13723TIP3    H162660   5.341   3.585   4.223  2.0349 -2.3965 -0.7383
13723TIP3    H262661   5.250   3.562   4.342 -0.5997 -0.3805 -2.2303
13724TIP3   OH262662   0.688   4.006  11.626 -0.0688  0.0225 -0.2678
13724TIP3    H162663   0.708   3.915  11.603  1.5083 -0.3517  2.2040
13724TIP3    H262664   0.757   4.057  11.582  0.2299 -0.1988 -0.0612
13725TIP3   OH262665   5.154   0.692   5.612 -0.0217  0.9383  0.2675
13725TIP3    H162666   5.093   0.724   5.678 -0.9383  0.3507 -0.2765
13725TIP3    H262667   5.100   0.678   5.534  0.7158 -0.0458 -0.0865
13726TIP3   OH262668   1.801   2.116  12.538 -0.3326 -0.3754  0.6335
13726TIP3    H162669   1.844   2.087  12.618 -0.2334  2.3295  1.6343
13726TIP3    H262670   1.718   2.069  12.537  0.6110 -2.1426  1.0925
13727TIP3   OH262671   3.696   1.404  14.929 -0.3279  0.0391 -0.2820
13727TIP3    H162672   3.745   1.420  15.009  0.8287 -0.8801 -0.7835
13727TIP3    H262673   3.687   1.490  14.888 -1.7020  0.6578  1.2361
13728TIP3   OH262674   2.178   3.130  12.077 -0.0847  0.5886  0.4161
13728TIP3    H162675   2.240   3.158  12.144  0.3723  1.7092 -0.4504
13728TIP3    H262676   2.204   3.040  12.056  0.3225  0.5448  1.1003
13729TIP3   OH262677   4.351   2.563   1.295 -0.2242  0.1869  0.0466
13729TIP3    H162678   4.347   2.645   1.245  0.6712  0.0442 -0.2702
13729TIP3    H262679   4.442   2.535   1.289 -0.9046 -1.9421 -1.6659
13730TIP3   OH262680   0.528   4.129   0.512 -0.3276  0.2251  0.1999
13730TIP3    H162681   0.615   4.163   0.534  0.6171 -1.4092 -0.8005
13730TIP3    H262682   0.521   4.141   0.418 -1.8616  1.7225  0.4625
13731TIP3   OH262683   3.025   0.735  17.457  0.3944 -1.1008  0.3368
13731TIP3    H162684   3.044   0.790  17.533 -0.5458  0.9755 -0.8248
13731TIP3    H262685   2.938   0.764  17.429  1.1093 -1.1176 -2.0709
13732TIP3   OH262686   1.365   4.864  13.984 -0.1537 -0.1264 -0.0902
13732TIP3    H162687   1.406   4.807  13.919 -0.4351  2.1211 -2.4042
13732TIP3    H262688   1.288   4.815  14.014  0.6780 -1.7332 -0.4788
13733TIP3   OH262689   2.719   4.967  14.793  0.0227 -0.2500 -0.1269
13733TIP3    H162690   2.688   4.915  14.719  0.6289 -0.7154 -0.0538
13733TIP3    H262691   2.696   5.057  14.770  1.4085 -0.2134 -1.4996
13734TIP3   OH262692   4.845   4.549  15.266  0.7002 -0.6497 -0.3740
13734TIP3    H162693   4.842   4.628  15.213 -0.7473  0.2504  0.9653
13734TIP3    H262694   4.781   4.490  15.226  0.7131 -0.5793 -0.4979
13735TIP3   OH262695   2.560   3.438   1.072  0.0483  0.1406 -0.9337
13735TIP3    H162696   2.469   3.453   1.046 -0.2896  0.7308  0.4866
13735TIP3    H262697   2.584   3.356   1.028 -0.2557  1.3144 -3.5124
13736TIP3   OH262698   5.128   0.082  13.521  0.2948  0.4717 -0.0463
13736TIP3    H162699   5.117   0.175  13.542  2.6814  1.3252 -2.0353
13736TIP3    H262700   5.187   0.049  13.589 -2.1607 -0.2366  1.8834
13737TIP3   OH262701   3.944   3.096   4.969 -0.1412  0.2600  0.2245
13737TIP3    H162702   3.916   3.163   5.031 -0.8948  0.1583  0.0139
13737TIP3    H262703   3.958   3.018   5.023 -0.5240  0.2454  0.3082
13738TIP3   OH262704   2.252   6.197   4.756 -0.4241  0.3055 -0.0673
13738TIP3    H162705   2.231   6.166   4.844 -0.5382 -0.0759 -0.2275
13738TIP3    H262706   2.184   6.260   4.736 -0.8475 -0.1850 -0.1873
13739TIP3   OH262707   5.213   3.623   3.372 -0.2234 -0.2951  0.6759
13739TIP3    H162708   5.129   3.595   3.337  0.1236 -0.1685 -0.2914
13739TIP3    H262709   5.197   3.638   3.465 -1.1465 -0.7388  0.5945
13740TIP3   OH262710   1.519   6.314  15.352 -0.0000  0.3223  0.3592
13740TIP3    H162711   1.542   6.378  15.420  1.3186 -0.6203  0.8425
13740TIP3    H262712   1.479   6.366  15.283  0.2044  1.5490  1.1354
13741TIP3   OH262713   6.441   2.077   3.842 -0.4922  0.4292  0.2230
13741TIP3    H162714   6.447   2.087   3.747 -0.7370 -1.1186  0.0181
13741TIP3    H262715   6.531   2.086   3.873  0.1304 -2.0952 -0.5406
13742TIP3   OH262716   3.317   3.003  15.515 -0.3791 -0.1345  0.3562
13742TIP3    H162717   3.301   2.914  15.546  0.6356  0.0460  1.5062
13742TIP3    H262718   3.410   3.004  15.490 -0.5074  0.4598 -0.1370
13743TIP3   OH262719   4.071   2.623  16.028 -0.5071  0.1361  0.5379
13743TIP3    H162720   4.119   2.617  15.945 -2.0167 -0.5685 -0.3296
13743TIP3    H262721   4.006   2.692  16.013 -1.2989 -0.5264  0.8502
13744TIP3   OH262722   0.768   0.668  14.899 -0.5340 -0.0614  0.8620
13744TIP3    H162723   0.788   0.757  14.870 -1.4956 -0.7235 -2.1841
13744TIP3    H262724   0.680   0.674  14.936 -1.3811 -0.0179 -1.0745
13745TIP3   OH262725   3.495   1.735   5.665 -0.6181 -0.2851  0.3688
13745TIP3    H162726   3.522   1.692   5.747  0.0165 -0.4550  0.0762
13745TIP3    H262727   3.460   1.663   5.612 -3.1471  0.1389  1.3122
13746TIP3   OH262728   3.896   2.231   1.093 -0.7870 -0.0361  0.2634
13746TIP3    H162729   3.904   2.312   1.143  0.1510 -0.3078  0.5769
13746TIP3    H262730   3.975   2.181   1.116 -0.9298 -0.6672 -0.5763
13747TIP3   OH262731   4.210   4.780   6.529 -0.3136 -0.6529 -0.5134
13747TIP3    H162732   4.240   4.866   6.559 -0.3229  0.0437 -2.3408
13747TIP3    H262733   4.115   4.784   6.540 -0.2431 -0.7434  0.1538
13748TIP3   OH262734   5.430   3.807   4.460  0.0086 -0.2497  0.1774
13748TIP3    H162735   5.447   3.717   4.488 -0.0506 -0.2302  0.2790
13748TIP3    H262736   5.420   3.855   4.542  1.4973  0.1419  0.1638
13749TIP3   OH262737   5.559   4.826   3.881 -0.6758  0.4247  0.2120
13749TIP3    H162738   5.631   4.770   3.853 -0.2731  0.8090  0.4683
13749TIP3    H262739   5.480   4.779   3.854 -0.3194  0.2838 -0.5967
13750TIP3   OH262740   6.203   2.401  15.770 -0.0443 -0.4589 -0.4079
13750TIP3    H162741   6.244   2.479  15.733  1.5175 -1.7414 -1.5157
13750TIP3    H262742   6.111   2.426  15.782  0.6436  1.9786  0.5808
13751TIP3   OH262743   4.483   3.569  14.783  0.2997  0.0880  0.0919
13751TIP3    H162744   4.463   3.662  14.787  1.5514  0.3302  0.9855
13751TIP3    H262745   4.415   3.528  14.837 -1.3221  0.2495 -1.6916
13752TIP3   OH262746   2.515   5.474  13.777 -0.1634 -0.1461 -0.0813
13752TIP3    H162747   2.536   5.381  13.765  0.3440  0.0222 -0.5762
13752TIP3    H262748   2.531   5.513  13.691 -1.2082  0.2520 -0.1107
13753TIP3   OH262749   6.078   4.804   1.898  0.8008  0.3159  0.1280
13753TIP3    H162750   6.060   4.824   1.806 -0.3168 -0.8328  0.0743
13753TIP3    H262751   6.169   4.832   1.911  0.7094  1.2740 -1.0841
13754TIP3   OH262752   5.091   3.730  11.690  0.2533  0.0706  0.0417
13754TIP3    H162753   5.184   3.733  11.710  0.2248  0.3348  0.1316
13754TIP3    H262754   5.087   3.702  11.598  0.4063 -0.3423  0.1580
13755TIP3   OH262755   5.977   4.396   4.847 -0.5618  0.5418 -0.4980
13755TIP3    H162756   5.940   4.327   4.903  0.8407  1.5915  1.8572
13755TIP3    H262757   5.991   4.352   4.762  0.9814 -2.3443  1.0978
13756TIP3   OH262758   4.614   5.265   0.014 -0.1955  0.0330 -0.2079
13756TIP3    H162759   4.656   5.181   0.033 -0.4631 -0.6950 -2.5711
13756TIP3    H262760   4.659   5.298  -0.064 -0.3677  1.9153  0.4426
13757TIP3   OH262761   2.607   4.810   3.408 -0.7746 -0.3187  0.4973
13757TIP3    H162762   2.601   4.898   3.372  1.6713  0.1577  1.0952
13757TIP3    H262763   2.663   4.763   3.346  1.7253 -0.0851  2.4346
13758TIP3   OH262764   1.657   6.003   4.146 -0.6299  0.5547  0.3041
13758TIP3    H162765   1.628   6.000   4.055  1.4832 -0.0608 -0.4165
13758TIP3    H262766   1.643   5.914   4.179 -0.5065  0.5179  0.2604
13759TIP3   OH262767   5.543   0.449  12.468  0.0588 -0.2995  0.3801
13759TIP3    H162768   5.581   0.362  12.457  3.6799  1.2818 -1.4543
13759TIP3    H262769   5.594   0.489  12.539  1.2751  1.5263 -1.3971
13760TIP3   OH262770   1.996   0.542   3.456  0.3647 -0.0666  0.2676
13760TIP3    H162771   1.970   0.454   3.427 -0.6260  0.7884 -1.6525
13760TIP3    H262772   1.914   0.591   3.459  1.0567  1.1535 -0.0594
13761TIP3   OH262773   6.533   1.679  13.404  0.2951 -0.1908 -0.2723
13761TIP3    H162774   6.473   1.746  13.436 -1.4146 -2.2326  1.0488
13761TIP3    H262775   6.490   1.643  13.327  1.6619  0.7810 -1.5505
13762TIP3   OH262776   3.717   4.085   6.207 -0.0962  0.0640 -0.0368
13762TIP3    H162777   3.786   4.151   6.208 -0.4312  0.4266 -0.4262
13762TIP3    H262778   3.762   4.002   6.221  0.4095  0.3067 -0.2312
13763TIP3   OH262779   3.296   4.208  16.543  0.2339  0.1495 -0.0426
13763TIP3    H162780   3.311   4.295  16.507 -1.1861  0.4406  0.0242
13763TIP3    H262781   3.214   4.178  16.503  0.9368 -1.3637 -0.4391
13764TIP3   OH262782   2.516   0.803   4.934 -0.1664 -0.3653 -0.5343
13764TIP3    H162783   2.482   0.736   4.993  0.2806 -1.0378 -1.0063
13764TIP3    H262784   2.445   0.819   4.872 -1.3681  1.7580  1.2548
13765TIP3   OH262785   4.603   3.749   4.981 -0.4389  0.3811 -0.2547
13765TIP3    H162786   4.566   3.715   5.063 -0.7302 -0.3481 -0.6770
13765TIP3    H262787   4.669   3.813   5.009 -0.8329  0.4481  0.5387
13766TIP3   OH262788   3.278   6.602   3.556  0.9535 -0.0903  0.0835
13766TIP3    H162789   3.363   6.635   3.586  1.3869 -0.1162 -1.0637
13766TIP3    H262790   3.222   6.680   3.555  0.6737 -0.2388  1.7475
13767TIP3   OH262791   4.198   1.999   0.496  0.0817  0.1244  0.4013
13767TIP3    H162792   4.255   2.046   0.557 -2.0407  1.2527  1.6470
13767TIP3    H262793   4.205   1.907   0.521 -0.0771  0.4741  1.7833
13768TIP3   OH262794   0.723   3.130  17.382 -0.6334 -0.0637  0.2124
13768TIP3    H162795   0.761   3.218  17.382  0.0129 -0.2790  2.2557
13768TIP3    H262796   0.799   3.072  17.389 -1.0004 -0.8779 -1.7845
13769TIP3   OH262797   3.099   1.682   4.018 -0.4832  0.5032  0.5416
13769TIP3    H162798   3.033   1.620   3.986 -0.8377 -0.0483  2.2175
13769TIP3    H262799   3.181   1.652   3.979 -0.2247 -2.5292  2.9706
13770TIP3   OH262800   2.374   1.103  15.653 -0.7213  0.0321 -0.4285
13770TIP3    H162801   2.361   1.195  15.627 -0.7899 -0.4860 -2.4230
13770TIP3    H262802   2.438   1.107  15.724 -0.5738  1.6040 -0.6022
13771TIP3   OH262803   4.337   3.539  15.032 -0.0182 -0.2048 -0.3696
13771TIP3    H162804   4.256   3.497  15.062 -0.1642  0.3829  0.0881
13771TIP3    H262805   4.404   3.508  15.092 -0.1709  0.3844  0.1194
13772TIP3   OH262806   1.063   3.187   4.660  0.8390 -0.2387  0.2944
13772TIP3    H162807   1.035   3.254   4.723  0.1435  0.1263 -0.3936
13772TIP3    H262808   1.007   3.112   4.678  0.0904  0.1362 -0.3922
13773TIP3   OH262809   0.783   5.177  16.549 -0.6907 -0.2218  0.6297
13773TIP3    H162810   0.763   5.083  16.550  0.4102 -0.5416 -1.4394
13773TIP3    H262811   0.803   5.199  16.640 -0.2749 -2.1622  1.0434
13774TIP3   OH262812   0.243   0.132   5.804  0.2469 -0.0829 -0.1640
13774TIP3    H162813   0.272   0.041   5.809  2.0261  0.1895 -2.9611
13774TIP3    H262814   0.299   0.178   5.866 -1.6113 -0.9733  2.3285
13775TIP3   OH262815   1.441   3.876   6.309 -0.1090 -0.0181  0.6131
13775TIP3    H162816   1.515   3.937   6.310 -1.3644  1.5886  0.0053
13775TIP3    H262817   1.416   3.867   6.401  0.1834  0.2993  0.7269
13776TIP3   OH262818   2.731   0.029  12.710  0.3012  0.2487  0.5088
13776TIP3    H162819   2.761   0.075  12.631 -1.6590  4.8085  2.0841
13776TIP3    H262820   2.637   0.017  12.696  0.3409 -0.9875  1.2319
13777TIP3   OH262821   4.021   0.881   5.312 -0.5306  0.3724 -0.0356
13777TIP3    H162822   3.954   0.914   5.372  0.5684 -3.2853  3.6699
13777TIP3    H262823   4.102   0.925   5.340 -0.0237 -1.3047  1.2906
13778TIP3   OH262824   5.666   5.890  10.623 -0.2717 -0.0765 -0.0373
13778TIP3    H162825   5.754   5.881  10.658 -0.5426 -1.0847  0.4369
13778TIP3    H262826   5.668   5.972  10.573  0.8842 -0.0180  0.0721
13779TIP3   OH262827   4.111   6.363   4.245  0.6241 -0.1749 -0.1619
13779TIP3    H162828   4.073   6.276   4.256  1.1185 -0.3154  0.4923
13779TIP3    H262829   4.147   6.363   4.157  0.9935 -0.7778 -0.0084
13780TIP3   OH262830   3.631   0.464  17.500 -0.0352  0.1640  0.0566
13780TIP3    H162831   3.562   0.408  17.463  1.1538 -0.3025 -1.5515
13780TIP3    H262832   3.673   0.504  17.424  2.4376 -0.7189  0.8657
13781TIP3   OH262833   3.965   1.469  11.084 -0.0985 -0.4796  0.1072
13781TIP3    H162834   3.892   1.411  11.106  0.5178 -1.2180  0.2559
13781TIP3    H262835   4.030   1.412  11.043 -0.5080  0.5587 -2.1430
13782TIP3   OH262836   6.210   6.276  16.958 -0.0819  0.2184 -0.4391
13782TIP3    H162837   6.301   6.280  16.986 -0.4950  2.4181  0.8212
13782TIP3    H262838   6.168   6.218  17.022  0.5993 -1.9036 -1.7986
13783TIP3   OH262839   3.248   1.891   4.886 -0.1570  0.2166  0.2442
13783TIP3    H162840   3.321   1.939   4.924  0.6878 -0.0923 -0.9515
13783TIP3    H262841   3.288   1.822   4.834 -1.3156 -0.4685  0.2090
13784TIP3   OH262842   0.466   3.033  17.470  0.1183  0.0590 -0.1930
13784TIP3    H162843   0.440   3.119  17.503  0.2658  0.3724 -0.8695
13784TIP3    H262844   0.561   3.039  17.459  0.1149 -0.1493 -0.3583
13785TIP3   OH262845   5.212   2.742   2.612 -0.4772  0.4702  0.3872
13785TIP3    H162846   5.199   2.648   2.595 -0.0302  0.2249  1.3089
13785TIP3    H262847   5.189   2.753   2.704  0.1004  1.1361  0.4608
13786TIP3   OH262848   3.271   4.450  14.591 -0.2122  0.5891  0.5155
13786TIP3    H162849   3.207   4.380  14.577 -0.1934  0.5094  0.8161
13786TIP3    H262850   3.232   4.504  14.660 -1.1350  1.9826 -1.0527
13787TIP3   OH262851   0.462   3.320   0.582  0.3123  0.3174  0.6119
13787TIP3    H162852   0.527   3.253   0.559 -0.7231 -0.4380 -0.2391
13787TIP3    H262853   0.502   3.369   0.654  1.9626  0.0984 -0.1003
13788TIP3   OH262854   6.459   2.915   4.165 -0.0147 -0.2803 -0.5785
13788TIP3    H162855   6.417   2.838   4.125 -0.6984 -0.1031 -0.2168
13788TIP3    H262856   6.403   2.988   4.139 -0.6206 -0.1870  0.8849
13789TIP3   OH262857   1.977   3.163   1.168  0.0021 -0.3510 -0.2747
13789TIP3    H162858   1.933   3.236   1.126 -1.1961 -1.1472 -0.4507
13789TIP3    H262859   1.988   3.098   1.098 -0.0334 -0.8182  0.1470
13790TIP3   OH262860   1.213   6.629   3.509 -0.2811 -0.4586 -0.1651
13790TIP3    H162861   1.168   6.617   3.592  0.5707 -0.2696  0.3343
13790TIP3    H262862   1.291   6.680   3.530 -1.3786  1.9290 -1.4883
13791TIP3   OH262863   2.653   1.116   1.403  0.3529 -0.0209  0.1494
13791TIP3    H162864   2.577   1.058   1.395 -0.2681  0.8900 -0.7167
13791TIP3    H262865   2.726   1.063   1.371 -0.0579 -0.6045  0.1521
13792TIP3   OH262866   3.213   4.276   3.654  0.3834  0.2283  0.7200
13792TIP3    H162867   3.248   4.191   3.683 -1.2384 -0.2071  1.5105
13792TIP3    H262868   3.216   4.331   3.733  1.0158  0.7763  0.3200
13793TIP3   OH262869   3.873   3.065  11.943 -0.3648  0.3345  0.1004
13793TIP3    H162870   3.951   3.018  11.912 -0.5546  0.2824 -0.3016
13793TIP3    H262871   3.828   3.093  11.863 -0.7186  0.4334  0.3312
13794TIP3   OH262872   6.058   5.301  11.448  0.4929  0.6081  0.3855
13794TIP3    H162873   6.040   5.327  11.538  0.1454  0.2628  0.4209
13794TIP3    H262874   6.045   5.206  11.447  1.5167  0.4620  0.2082
13795TIP3   OH262875   3.234   0.479  13.191  0.6593  0.3841 -0.0936
13795TIP3    H162876   3.210   0.568  13.216  1.0397  0.1431  1.1934
13795TIP3    H262877   3.151   0.431  13.194  0.8917  0.0166  2.3139
13796TIP3   OH262878   3.197   0.090   1.961  0.3966 -0.1722 -0.4562
13796TIP3    H162879   3.148   0.172   1.970 -0.1818 -0.6444  0.9713
13796TIP3    H262880   3.285   0.112   1.990  0.0711 -0.1936  0.5958
13797TIP3   OH262881   0.448   0.604   0.456 -0.4321 -0.3126 -0.1818
13797TIP3    H162882   0.369   0.656   0.471 -0.2033 -0.3184  1.2145
13797TIP3    H262883   0.442   0.576   0.365 -0.3539  2.4874 -1.1353
13798TIP3   OH262884   6.617   1.141  17.051  0.0343 -0.1038  0.4033
13798TIP3    H162885   6.546   1.135  17.115 -1.2446 -0.5921 -1.0089
13798TIP3    H262886   6.616   1.057  17.006  0.9112  0.2332 -0.2786
13799TIP3   OH262887   5.446   0.125  16.650 -0.4608 -0.3730  0.0831
13799TIP3    H162888   5.406   0.149  16.567 -0.0996  0.3779  0.1120
13799TIP3    H262889   5.520   0.186  16.660  0.4923 -1.4966  0.1876
13800TIP3   OH262890   0.393   0.838  13.535 -0.1477 -0.3206 -0.1280
13800TIP3    H162891   0.458   0.836  13.465 -2.0370 -1.1893 -1.9552
13800TIP3    H262892   0.340   0.760  13.521 -1.6168  0.3655  1.2867
13801TIP3   OH262893   4.535   0.749   3.844  0.5020  0.0591  0.0827
13801TIP3    H162894   4.445   0.771   3.867 -0.3014 -0.2844 -2.4219
13801TIP3    H262895   4.566   0.695   3.917 -1.8728 -1.1559  0.2868
13802TIP3   OH262896   2.452   5.269   3.967 -0.1389  0.0950 -0.8493
13802TIP3    H162897   2.547   5.258   3.975 -0.3207 -0.0815  1.9804
13802TIP3    H262898   2.437   5.362   3.988 -0.7118 -0.3615  0.9775
13803TIP3   OH262899   0.382   0.313   6.719  0.0787 -0.2243 -0.3051
13803TIP3    H162900   0.333   0.393   6.739 -0.7459 -0.1802 -2.3025
13803TIP3    H262901   0.345   0.247   6.778 -1.2846  0.2022 -0.6444
13804TIP3   OH262902   1.062   6.725   1.735  0.0496  0.0005  0.6469
13804TIP3    H162903   1.148   6.712   1.697 -0.6940 -1.1878 -0.7127
13804TIP3    H262904   1.079   6.735   1.829  1.5240 -2.1502  0.6800
13805TIP3   OH262905   6.676   6.559   2.370 -0.0056  0.0227 -0.3757
13805TIP3    H162906   6.654   6.509   2.292  0.2068  1.3309 -1.3106
13805TIP3    H262907   6.768   6.538   2.386 -0.3930 -1.2402  0.3082
13806TIP3   OH262908   5.989   5.472  11.987 -0.0278  0.1103  0.4567
13806TIP3    H162909   5.907   5.515  12.009  0.1707 -0.0733  1.6428
13806TIP3    H262910   6.034   5.462  12.071  0.6431 -0.9301  0.0010
13807TIP3   OH262911   5.385   4.272  11.044 -0.1071 -0.0181  0.3108
13807TIP3    H162912   5.302   4.294  11.001 -0.1055  0.5624  0.5867
13807TIP3    H262913   5.405   4.183  11.015 -1.4726 -0.6588  1.2276
13808TIP3   OH262914   2.495   4.691  15.099 -0.0942 -0.1578 -0.0730
13808TIP3    H162915   2.483   4.596  15.095 -0.6356 -0.0798 -0.4296
13808TIP3    H262916   2.454   4.723  15.019  2.6220  0.1336 -1.4822
13809TIP3   OH262917   6.200   4.033  16.547 -0.0713  0.3735 -0.4163
13809TIP3    H162918   6.210   3.961  16.485 -0.2049 -1.1038  1.1914
13809TIP3    H262919   6.108   4.057  16.541 -0.3280 -0.4714 -0.0863
13810TIP3   OH262920   4.225   2.059  11.622 -0.4756  0.0972 -0.3361
13810TIP3    H162921   4.312   2.098  11.608 -1.2387  1.9633 -0.1572
13810TIP3    H262922   4.241   1.965  11.618  1.6101  0.3734 -0.0233
13811TIP3   OH262923   0.603   0.586   5.221 -0.2090 -0.5249  1.1100
13811TIP3    H162924   0.635   0.512   5.169  1.7079  0.8864  0.1184
13811TIP3    H262925   0.682   0.622   5.263 -0.8316  1.7258  0.5127
13812TIP3   OH262926   2.986   0.357   5.380 -0.1978  0.1747 -0.3977
13812TIP3    H162927   3.066   0.364   5.432 -0.3655 -0.3172 -0.0607
13812TIP3    H262928   2.939   0.284   5.420 -0.5999  0.1692 -0.8815
13813TIP3   OH262929   1.194   6.326  16.248  0.0584  0.0792  0.0835
13813TIP3    H162930   1.106   6.363  16.245  0.1827  0.3862  0.1849
13813TIP3    H262931   1.221   6.321  16.156 -0.0847 -0.0728  0.0474
13814TIP3   OH262932   1.246   1.122   1.323 -0.1953 -0.4069 -0.3019
13814TIP3    H162933   1.192   1.175   1.264  1.0328  0.9482 -0.2843
13814TIP3    H262934   1.191   1.048   1.346 -0.9086 -0.7314 -2.7411
13815TIP3   OH262935   2.480   4.435  14.252  0.5899 -0.0105 -0.0374
13815TIP3    H162936   2.568   4.398  14.260 -0.2582 -2.2549 -0.3214
13815TIP3    H262937   2.462   4.434  14.158  0.0602 -0.1196  0.0598
13816TIP3   OH262938   6.466   1.286  12.189 -0.2732  0.4952 -0.1377
13816TIP3    H162939   6.375   1.311  12.205 -0.1794  2.1229 -1.8058
13816TIP3    H262940   6.487   1.224  12.259 -1.7269  2.3450  2.0843
13817TIP3   OH262941   0.788   2.767   2.404 -0.5943  0.1545 -0.4541
13817TIP3    H162942   0.748   2.850   2.431 -0.8328  0.0632 -0.5311
13817TIP3    H262943   0.819   2.728   2.486 -1.3563 -0.1428 -0.3012
13818TIP3   OH262944   1.852   2.080  14.878  0.3795 -0.4004 -0.5404
13818TIP3    H162945   1.901   2.159  14.854  0.5413 -0.0623  0.8070
13818TIP3    H262946   1.917   2.010  14.878  0.5874 -0.2115 -0.1128
13819TIP3   OH262947   2.084   3.083   0.016  0.1912  0.7504  0.1178
13819TIP3    H162948   2.098   3.167   0.059  2.4299  0.5039 -0.0272
13819TIP3    H262949   2.171   3.042   0.014 -0.1469 -0.0620 -2.9595
13820TIP3   OH262950   4.785   3.548   0.310 -0.7474  0.2350  0.1292
13820TIP3    H162951   4.844   3.607   0.355 -1.3920  0.2266  1.0113
13820TIP3    H262952   4.708   3.601   0.291 -0.4676  0.2529 -1.0234
13821TIP3   OH262953   3.125   4.339   4.400  0.1684  0.4824 -0.2022
13821TIP3    H162954   3.089   4.284   4.330  0.8720 -0.4481  0.1429
13821TIP3    H262955   3.052   4.354   4.459 -0.0680  0.0297 -0.3739
13822TIP3   OH262956   5.619   1.649  16.966  0.1017  0.0031 -0.1085
13822TIP3    H162957   5.610   1.575  16.907 -0.3315 -0.3319  0.3633
13822TIP3    H262958   5.572   1.622  17.045  1.4843  0.0371  0.7661
13823TIP3   OH262959   4.518   6.342  13.271 -0.5078 -1.0847  0.6984
13823TIP3    H162960   4.444   6.386  13.227  0.9875 -0.1708 -1.0578
13823TIP3    H262961   4.498   6.249  13.263  0.0677 -1.0653 -2.9579
13824TIP3   OH262962   1.295   1.586  13.614 -0.3160 -0.0567 -0.3391
13824TIP3    H162963   1.333   1.538  13.688 -0.1786  0.5218 -0.0258
13824TIP3    H262964   1.370   1.610  13.560 -0.4192 -0.5005 -0.6849
13825TIP3   OH262965   0.762   3.420   4.698  0.0737  0.0946 -0.0438
13825TIP3    H162966   0.747   3.488   4.764 -1.3758 -0.1479 -0.0940
13825TIP3    H262967   0.837   3.371   4.732  1.0248  1.5781  0.0886
13826TIP3   OH262968   2.367   0.811  11.399  0.1481 -0.4687  0.1859
13826TIP3    H162969   2.277   0.789  11.375  0.2038  0.0944 -0.5679
13826TIP3    H262970   2.395   0.738  11.454 -0.7944 -0.6034  0.5097
13827TIP3   OH262971   2.361   2.486  13.636  0.1602  0.4023  0.2768
13827TIP3    H162972   2.428   2.433  13.594 -0.0795  0.3145 -0.0013
13827TIP3    H262973   2.409   2.549  13.689  0.4503 -0.0124  0.5120
13828TIP3   OH262974   6.707   5.924   5.347 -0.1004  0.4904  0.1792
13828TIP3    H162975   6.748   5.894   5.266 -1.6656  1.4649 -1.0303
13828TIP3    H262976   6.691   5.843   5.396  4.4983  0.0998  1.5034
13829TIP3   OH262977   4.761   0.224   5.942  0.1005  0.2828 -0.9403
13829TIP3    H162978   4.791   0.307   5.979  2.9919 -1.3200  0.6580
13829TIP3    H262979   4.808   0.216   5.859  0.5409 -0.1145 -0.6619
13830TIP3   OH262980   0.812   3.121  15.818 -0.5094 -0.0827 -0.2158
13830TIP3    H162981   0.880   3.186  15.837 -0.9751  0.7201 -1.1952
13830TIP3    H262982   0.764   3.158  15.743 -0.4870 -1.7729 -1.1042
13831TIP3   OH262983   1.167   1.245  11.545 -0.4132 -0.3688  0.0617
13831TIP3    H162984   1.102   1.220  11.479 -0.5095 -1.2874  0.4931
13831TIP3    H262985   1.174   1.340  11.537 -1.0448 -0.3784 -0.6972
13832TIP3   OH262986   6.019   4.003  11.440  1.0622  0.6346  1.0118
13832TIP3    H162987   6.027   4.086  11.488  1.4147  0.1484  1.8086
13832TIP3    H262988   6.068   3.940  11.493  0.5772 -0.1459  0.5419
13833TIP3   OH262989   1.049   3.266  15.826 -0.2760  0.5605 -0.4012
13833TIP3    H162990   1.039   3.309  15.911  1.6229 -0.0369  0.1930
13833TIP3    H262991   1.081   3.335  15.768 -0.6660  0.7602 -0.3766
13834TIP3   OH262992   2.099   5.652  17.226  0.7906  0.0526 -0.4334
13834TIP3    H162993   2.144   5.735  17.207  0.5491  0.6589  1.4408
13834TIP3    H262994   2.034   5.643  17.156  0.5815  1.6425 -0.4820
13835TIP3   OH262995   2.745   3.781  14.071  0.1674 -0.3911  0.0737
13835TIP3    H162996   2.763   3.859  14.019 -0.2414 -0.5204 -0.2679
13835TIP3    H262997   2.832   3.747  14.094  0.3620 -0.4384 -0.6963
13836TIP3   OH262998   2.321   2.134   1.641  0.6783 -0.2521  0.1642
13836TIP3    H162999   2.332   2.065   1.707  0.6598  1.3243  1.8781
13836TIP3    H263000   2.295   2.087   1.562  1.8706 -2.3390  0.9258
13837TIP3   OH263001   0.897   3.096  12.806  0.1790  0.5564  0.0332
13837TIP3    H163002   0.861   3.018  12.764  1.6642 -0.4261  0.5242
13837TIP3    H263003   0.908   3.071  12.898  3.7552  0.0849 -0.3669
13838TIP3   OH263004   2.302   5.839  12.280  0.4248  0.0601  0.8662
13838TIP3    H163005   2.222   5.793  12.306 -0.3036  1.3981  1.1256
13838TIP3    H263006   2.369   5.805  12.338  0.1726 -1.4599  0.3025
13839TIP3   OH263007   0.036   5.545  12.723 -0.2301 -0.2637 -0.4691
13839TIP3    H163008   0.032   5.474  12.787 -1.3706 -0.1308 -0.3805
13839TIP3    H263009  -0.042   5.534  12.670  0.0453  0.4012 -1.0225
13840TIP3   OH263010   0.520   5.478  14.731 -0.4978 -0.5094 -0.2111
13840TIP3    H163011   0.573   5.557  14.746 -0.8454  0.3411 -2.9756
13840TIP3    H263012   0.438   5.496  14.778 -0.4733  0.6892 -0.5961
13841TIP3   OH263013   3.574   5.867   0.898 -0.4695 -0.4937 -0.5871
13841TIP3    H163014   3.592   5.780   0.931  1.3968 -0.2793 -0.9080
13841TIP3    H263015   3.600   5.926   0.968  2.4453 -0.0833 -1.8764
13842TIP3   OH263016   5.853   3.853   0.687 -0.6336 -0.3532  0.8512
13842TIP3    H163017   5.906   3.928   0.716 -0.3843 -1.3765  3.3030
13842TIP3    H263018   5.914   3.799   0.637 -0.7561  0.9153 -0.7526
13843TIP3   OH263019   4.175   6.188   1.504 -0.6308  0.0382 -0.1897
13843TIP3    H163020   4.126   6.182   1.422 -1.6698  1.2385  0.3114
13843TIP3    H263021   4.163   6.278   1.533  0.5943 -0.0715  0.7646
13844TIP3   OH263022   4.836   3.835  11.774  0.2007 -0.0359  0.2618
13844TIP3    H163023   4.873   3.808  11.689 -0.4054  0.3073 -0.1167
13844TIP3    H263024   4.913   3.858  11.826  0.6422 -1.1139  0.1175
13845TIP3   OH263025   6.142   3.617  15.556  0.1431  0.6235  0.1043
13845TIP3    H163026   6.049   3.595  15.559  0.2752  0.1078  2.4067
13845TIP3    H263027   6.146   3.700  15.509 -1.2987 -0.0677 -1.3269
13846TIP3   OH263028   2.634   2.462  14.845 -0.2935 -0.2431  0.1542
13846TIP3    H163029   2.630   2.429  14.934  0.1826  0.3472  0.4097
13846TIP3    H263030   2.712   2.518  14.844 -1.0823  0.9019 -0.2267
13847TIP3   OH263031   3.646   5.849  12.668  0.0881  0.3400  0.0652
13847TIP3    H163032   3.692   5.767  12.655 -0.1289  0.2537 -0.1733
13847TIP3    H263033   3.596   5.861  12.587 -0.9347  0.0354  0.6396
13848TIP3   OH263034   5.879   4.534  13.161 -0.1809 -0.3524 -0.6847
13848TIP3    H163035   5.793   4.520  13.201  0.3893 -1.2427  0.2840
13848TIP3    H263036   5.886   4.629  13.153  0.0182 -0.0465  2.2131
13849TIP3   OH263037   0.162   3.787   0.064  0.1351 -0.2455  0.0902
13849TIP3    H163038   0.074   3.794   0.102  1.2453 -3.4161  3.8455
13849TIP3    H263039   0.219   3.829   0.128  1.7240 -2.0495 -0.0598
13850TIP3   OH263040   3.617   5.689  16.523  0.0171  0.5068  0.5556
13850TIP3    H163041   3.665   5.771  16.538  0.9050 -0.2262  1.8239
13850TIP3    H263042   3.549   5.714  16.460  1.0275  1.9409 -0.0390
13851TIP3   OH263043   5.875   2.765  12.625 -0.4612  0.0746 -0.0544
13851TIP3    H163044   5.911   2.847  12.658  0.0682 -0.1005 -0.1842
13851TIP3    H263045   5.936   2.738  12.556  0.5032 -1.4174  1.3050
13852TIP3   OH263046   2.759   6.490  13.754 -0.6190 -0.3210 -0.5499
13852TIP3    H163047   2.713   6.486  13.838 -1.0589  1.4934 -0.6571
13852TIP3    H263048   2.823   6.419  13.758 -0.3425 -0.0205  1.5167
13853TIP3   OH263049   6.106   6.723  14.930  0.5658  0.1660 -0.0976
13853TIP3    H163050   6.138   6.649  14.981  0.4099  0.8972  1.1150
13853TIP3    H263051   6.186   6.766  14.898  0.6684 -0.2544 -0.4155
13854TIP3   OH263052   6.291   6.218   6.022  0.0573  0.4367  0.0445
13854TIP3    H163053   6.306   6.280   6.093  2.3609 -0.2846  0.2550
13854TIP3    H263054   6.321   6.133   6.056  1.0896  0.0432 -1.6847
13855TIP3   OH263055   1.016   5.175   4.690 -0.0803 -0.1303  0.2983
13855TIP3    H163056   1.039   5.262   4.721  0.6484  0.6038 -2.1005
13855TIP3    H263057   0.924   5.182   4.665 -1.1350 -1.1387  3.4124
13856TIP3   OH263058   1.473   4.376   2.134  0.1136 -0.3104  0.0625
13856TIP3    H163059   1.399   4.318   2.154  0.6914 -2.1541 -2.6445
13856TIP3    H263060   1.545   4.340   2.186  0.4553 -2.1244 -1.5470
13857TIP3   OH263061   6.645   2.986   3.546 -0.0547  0.3720  0.5262
13857TIP3    H163062   6.566   2.949   3.508 -0.0919  0.2083  0.7587
13857TIP3    H263063   6.631   2.980   3.641 -0.4387  1.7721  0.5833
13858TIP3   OH263064   5.834   0.438  11.917 -0.5028  0.2702 -0.0740
13858TIP3    H163065   5.827   0.403  11.828 -2.3032  0.2328  0.0415
13858TIP3    H263066   5.880   0.521  11.907 -0.3918  0.1009 -1.0044
13859TIP3   OH263067   2.604   0.415   4.875 -0.1120  0.1911  0.9002
13859TIP3    H163068   2.664   0.443   4.944  2.2355 -0.1961 -0.8667
13859TIP3    H263069   2.557   0.341   4.913  0.7631  0.2906  2.2452
13860TIP3   OH263070   4.452   1.725  14.567 -0.1716  0.3379 -0.1305
13860TIP3    H163071   4.377   1.768  14.608  1.9124  3.2924  0.9667
13860TIP3    H263072   4.523   1.732  14.631  1.4534 -0.9936 -1.6451
13861TIP3   OH263073   4.418   1.671   2.409  0.0747 -0.1564  0.5383
13861TIP3    H163074   4.390   1.585   2.380 -0.4038  0.0862  0.2654
13861TIP3    H263075   4.340   1.726   2.401 -0.0882 -0.0706  2.2688
13862TIP3   OH263076   0.387   0.403  14.080  0.5336  0.3454 -0.1811
13862TIP3    H163077   0.411   0.461  14.152 -1.3637 -0.1789  0.9400
13862TIP3    H263078   0.398   0.458  14.002 -1.0839  2.2400  0.8258
13863TIP3   OH263079   3.237   2.755   2.848 -0.0847  0.5501 -0.0419
13863TIP3    H163080   3.170   2.803   2.800 -2.2792 -1.7642  0.5014
13863TIP3    H263081   3.221   2.663   2.826  0.0017 -0.4780  3.5792
13864TIP3   OH263082   6.322   6.575  14.307  0.2263  0.0265 -0.0754
13864TIP3    H163083   6.297   6.488  14.338  1.5833 -1.4470 -2.6905
13864TIP3    H263084   6.404   6.594  14.352  0.2446 -0.3433  0.0529
13865TIP3   OH263085   2.914   4.264   3.826  0.3432  0.2711 -0.2731
13865TIP3    H163086   2.966   4.184   3.818 -0.0415 -0.0481  0.4414
13865TIP3    H263087   2.938   4.300   3.911 -0.9616 -0.1297  0.2775
13866TIP3   OH263088   0.893   4.039   2.232  0.3716  0.1549  0.5720
13866TIP3    H163089   0.797   4.044   2.234  0.3553 -0.1289  0.5245
13866TIP3    H263090   0.918   4.020   2.322  0.4020  0.5228  0.6437
13867TIP3   OH263091   1.816   4.372  11.770 -0.6569 -0.3757  0.3555
13867TIP3    H163092   1.874   4.445  11.793  0.2979 -0.6425 -1.0710
13867TIP3    H263093   1.742   4.413  11.726 -0.1567 -0.2581 -0.3780
13868TIP3   OH263094   6.292   0.458  14.570  0.8044  0.4003 -0.0197
13868TIP3    H163095   6.285   0.540  14.521  1.6837 -0.4237 -1.5858
13868TIP3    H263096   6.278   0.484  14.661 -1.1578  1.9429 -0.6725
13869TIP3   OH263097   5.109   1.684   5.699  0.1521  0.3587  0.5678
13869TIP3    H163098   5.132   1.710   5.610 -1.3485  0.0207  0.0455
13869TIP3    H263099   5.192   1.661   5.740  0.8805  0.6393 -0.7105
13870TIP3   OH263100   5.634   0.442   4.565  0.6563 -0.5089 -0.2872
13870TIP3    H163101   5.644   0.447   4.470  1.0011  1.6900 -0.2037
13870TIP3    H263102   5.540   0.451   4.581  0.7171  0.5072 -0.4108
13871TIP3   OH263103   6.058   0.497  15.851 -0.0187  0.1515  0.2125
13871TIP3    H163104   6.142   0.499  15.896  0.7469  1.6545 -1.1793
13871TIP3    H263105   6.080   0.480  15.759 -1.4022 -1.2634  0.0934
13872TIP3   OH263106   0.811   0.412  13.838 -0.2550 -0.6894 -0.0133
13872TIP3    H163107   0.772   0.491  13.801  0.3377 -1.8605 -3.5765
13872TIP3    H263108   0.906   0.427  13.831 -0.1354 -1.4182 -0.0296
13873TIP3   OH263109   6.228   4.798  12.034  0.3957  0.4368  0.1397
13873TIP3    H163110   6.148   4.744  12.031  1.0443 -0.5103 -1.0497
13873TIP3    H263111   6.222   4.853  11.955  1.4641 -0.4944 -0.6229
13874TIP3   OH263112   6.068   1.548   6.330 -0.4431 -0.4521 -0.0407
13874TIP3    H163113   6.152   1.509   6.305 -0.3628  0.0454 -0.5760
13874TIP3    H263114   6.056   1.522   6.421  1.3031  1.1215  0.7335
13875TIP3   OH263115   1.701   5.163  11.543 -0.2463 -0.1492  0.4668
13875TIP3    H163116   1.608   5.179  11.530  0.0277 -0.5355 -2.7833
13875TIP3    H263117   1.705   5.083  11.595 -1.7313 -0.4543  0.1512
13876TIP3   OH263118   1.620   0.938   1.419 -0.2752  0.6330  0.1418
13876TIP3    H163119   1.544   0.994   1.403  0.5745  1.4207 -1.4068
13876TIP3    H263120   1.688   0.997   1.451  0.0827  0.1657  0.2548
13877TIP3   OH263121   0.324   3.278  12.290 -0.2479 -0.5487 -0.2014
13877TIP3    H163122   0.391   3.222  12.250  1.3527  1.2974 -0.2339
13877TIP3    H263123   0.362   3.303  12.375 -1.0773  0.2176 -0.0494
13878TIP3   OH263124   3.924   3.953   0.447 -0.4206 -0.0941 -0.1364
13878TIP3    H163125   3.903   4.033   0.496  0.0092  0.4860 -0.8763
13878TIP3    H263126   3.866   3.955   0.371  1.8932  1.3418 -2.0194
13879TIP3   OH263127   0.829   3.267   3.428 -0.6438 -0.5024  0.2092
13879TIP3    H163128   0.802   3.186   3.472 -1.4284 -0.8380 -0.8386
13879TIP3    H263129   0.791   3.260   3.341  0.0840  0.5750 -0.2115
13880TIP3   OH263130   4.261   5.192  12.415 -0.5193  0.0425  0.0843
13880TIP3    H163131   4.211   5.255  12.468 -2.0301 -0.6561 -0.4615
13880TIP3    H263132   4.276   5.237  12.332 -0.1627  0.2777  0.2718
13881TIP3   OH263133   5.869   0.747  17.418 -0.4277 -0.1025  0.1229
13881TIP3    H163134   5.883   0.733  17.324  0.1264 -0.1404  0.2058
13881TIP3    H263135   5.921   0.825  17.439  0.2681 -0.6863  0.5961
13882TIP3   OH263136   4.861   6.197   4.575  0.4777 -0.2367 -0.0484
13882TIP3    H163137   4.873   6.241   4.491 -0.1267 -0.8156 -0.4550
13882TIP3    H263138   4.864   6.267   4.640 -0.3901  0.4013 -0.6726
13883TIP3   OH263139   0.486   1.181  15.686 -0.0867 -0.1259 -0.3328
13883TIP3    H163140   0.559   1.243  15.694  1.7653 -2.2520  0.2400
13883TIP3    H263141   0.507   1.130  15.608 -0.3735 -1.4686  0.4458
13884TIP3   OH263142   4.615   0.526   0.289 -0.0574  0.0685  0.4701
13884TIP3    H163143   4.586   0.577   0.365  0.8328  0.5840  0.4834
13884TIP3    H263144   4.540   0.524   0.231  0.1247  2.1546  0.0802
13885TIP3   OH263145   0.738   6.274  12.124  0.0722 -0.0183 -0.0673
13885TIP3    H163146   0.688   6.199  12.092  0.8852 -0.3615 -0.5499
13885TIP3    H263147   0.765   6.320  12.045 -1.5018  1.5341  0.2446
13886TIP3   OH263148   4.068   0.526  17.483 -0.5411  0.1252  0.0417
13886TIP3    H163149   4.043   0.547  17.573  1.1418 -0.1128  0.5890
13886TIP3    H263150   4.138   0.588  17.463 -2.2803  1.6406 -1.9015
13887TIP3   OH263151   3.489   1.425   2.622 -0.2061 -0.3482 -0.5247
13887TIP3    H163152   3.453   1.380   2.545 -1.1652  0.0863 -0.3516
13887TIP3    H263153   3.432   1.398   2.694  0.5521 -0.5726 -0.0048
13888TIP3   OH263154   0.602   3.208   1.646  0.1262 -0.5460  0.0383
13888TIP3    H163155   0.637   3.281   1.696 -0.8675  0.5844 -0.8373
13888TIP3    H263156   0.644   3.216   1.560 -0.4676 -0.6296 -0.2607
13889TIP3   OH263157   2.473   6.476   5.081 -0.5475  0.3753 -0.0651
13889TIP3    H163158   2.435   6.393   5.109 -0.4223  0.7111  1.1520
13889TIP3    H263159   2.398   6.534   5.068 -0.7849 -0.4033 -2.7208
13890TIP3   OH263160   4.601   0.890   4.792  0.7264 -0.0318  0.6070
13890TIP3    H163161   4.523   0.903   4.844  1.3682 -0.0668  1.5972
13890TIP3    H263162   4.608   0.969   4.737 -0.2141 -0.2184  0.2052
13891TIP3   OH263163   2.806   0.376   2.646  0.0580 -0.3337 -0.0504
13891TIP3    H163164   2.876   0.318   2.676  0.8769 -0.0807 -1.3849
13891TIP3    H263165   2.732   0.356   2.703  1.5305  0.2380  2.2092
13892TIP3   OH263166   2.603   5.277  16.282  0.4598  0.2919  0.1046
13892TIP3    H163167   2.579   5.187  16.261  0.4269  0.1089  0.8904
13892TIP3    H263168   2.532   5.308  16.338  0.3606  0.8847 -0.3381
13893TIP3   OH263169   0.804   0.655  15.845 -0.1220  0.3518 -0.0800
13893TIP3    H163170   0.734   0.652  15.910 -0.2509 -1.9001 -0.2526
13893TIP3    H263171   0.802   0.745  15.812 -1.5507  0.9026  1.3940
13894TIP3   OH263172   0.535   6.138   4.534  0.0062 -0.1117 -0.4851
13894TIP3    H163173   0.584   6.060   4.505  0.7602  0.7138 -1.4998
13894TIP3    H263174   0.490   6.109   4.614  2.8268 -0.6977  1.0376
13895TIP3   OH263175   1.759   4.247  16.977 -0.3232  0.1287  0.5562
13895TIP3    H163176   1.674   4.277  16.943 -0.3467 -0.6780 -0.1248
13895TIP3    H263177   1.811   4.327  16.987 -1.0125  0.5831  0.5688
13896TIP3   OH263178   2.632   1.992  11.821 -0.1329 -0.5360  0.1574
13896TIP3    H163179   2.549   2.039  11.813  0.3530  0.5240  0.9986
13896TIP3    H263180   2.698   2.061  11.830  0.9969 -1.3141 -1.5507
13897TIP3   OH263181   0.985   2.137   2.648 -0.0454 -0.2781  0.5853
13897TIP3    H163182   0.921   2.131   2.578 -0.6550 -0.2379  1.1315
13897TIP3    H263183   1.052   2.197   2.615 -1.3129  1.3091  0.7978
13898TIP3   OH263184   4.268   2.960  14.938  0.7405 -0.0615 -0.2715
13898TIP3    H163185   4.327   2.905  14.886  0.6588  0.1564 -0.5997
13898TIP3    H263186   4.181   2.923  14.923  0.6911  0.1289 -0.4566
13899TIP3   OH263187   2.491   1.475  14.545  0.8248  0.0854  0.5518
13899TIP3    H163188   2.444   1.393  14.561 -1.2163  1.1321  0.1496
13899TIP3    H263189   2.511   1.474  14.452 -0.5023  0.6870  0.2509
13900TIP3   OH263190   2.142   4.363   0.689 -0.8184 -0.6322  0.2299
13900TIP3    H163191   2.174   4.447   0.721 -1.7191  0.0617 -0.6584
13900TIP3    H263192   2.222   4.313   0.670 -0.2245  0.8310 -1.3391
13901TIP3   OH263193   2.440   5.151  17.146  0.0214 -0.0322 -0.1087
13901TIP3    H163194   2.489   5.078  17.185  2.0196  0.0223 -2.3097
13901TIP3    H263195   2.423   5.211  17.219 -0.3105 -1.9182  1.4554
13902TIP3   OH263196   2.671   5.353   3.415 -0.2181  0.3539 -0.7602
13902TIP3    H163197   2.701   5.378   3.503  0.8586 -0.4627 -0.8688
13902TIP3    H263198   2.584   5.316   3.429 -1.0571  2.3661 -0.3585
13903TIP3   OH263199   3.477   1.594   3.204 -0.5574 -0.5259 -0.3309
13903TIP3    H163200   3.463   1.537   3.129 -1.8851 -0.6779 -0.0003
13903TIP3    H263201   3.524   1.670   3.169 -1.6038 -0.3642 -1.4167
13904TIP3   OH263202   0.740   3.283   0.310  0.1848 -0.2072 -0.5556
13904TIP3    H163203   0.780   3.367   0.286  0.3069  0.4141  1.6017
13904TIP3    H263204   0.682   3.262   0.237 -0.9718  2.5214 -0.5503
13905TIP3   OH263205   3.545   5.698  17.679 -0.3961 -0.2273  0.1716
13905TIP3    H163206   3.577   5.785  17.653 -0.9123  0.4778  1.7978
13905TIP3    H263207   3.620   5.657  17.722 -0.4505 -0.2121  0.2795
13906TIP3   OH263208   0.154   2.121  15.263 -0.1116  0.4183 -0.2698
13906TIP3    H163209   0.153   2.217  15.260 -0.8046  0.4758  1.1612
13906TIP3    H263210   0.142   2.094  15.171  1.4298  1.6776 -0.8783
13907TIP3   OH263211   1.606   3.845   4.582  0.0570 -0.5484  0.0570
13907TIP3    H163212   1.603   3.854   4.678 -1.4193 -0.2690  0.0196
13907TIP3    H263213   1.541   3.908   4.551 -0.0376 -1.1874 -1.0868
13908TIP3   OH263214   5.320   6.223   0.521 -0.1313  0.0256  0.1923
13908TIP3    H163215   5.271   6.235   0.602 -0.4645 -0.3425  0.0495
13908TIP3    H263216   5.408   6.198   0.549 -0.0381  0.6240  0.4502
13909TIP3   OH263217   4.447   6.500   2.205  0.2372 -0.1375  0.2350
13909TIP3    H163218   4.426   6.429   2.145  2.4392 -0.2917 -0.4013
13909TIP3    H263219   4.420   6.580   2.159 -1.4188 -0.4526  0.5896
13910TIP3   OH263220   4.319   5.650   1.675  0.4891 -0.3540  0.3382
13910TIP3    H163221   4.282   5.653   1.764  0.1714 -1.4332  0.2600
13910TIP3    H263222   4.414   5.655   1.689  0.3913  0.8653  0.6408
13911TIP3   OH263223   2.472   4.282  14.822 -0.2372  0.2793 -0.4982
13911TIP3    H163224   2.559   4.320  14.829  0.3861 -1.2406  0.3779
13911TIP3    H263225   2.486   4.188  14.824 -1.8270 -0.0206 -1.4675
13912TIP3   OH263226   5.108   1.132  11.294 -0.0639 -0.0702  0.2370
13912TIP3    H163227   5.079   1.041  11.289 -1.8769  0.4901  0.0022
13912TIP3    H263228   5.030   1.181  11.316  1.0999  1.3398  1.4127
13913TIP3   OH263229   5.047   5.264   6.920 -0.3985  0.4144  0.1599
13913TIP3    H163230   4.957   5.275   6.952 -0.8418 -1.1788 -0.4430
13913TIP3    H263231   5.050   5.318   6.841 -0.0590  2.3641  1.4259
13914TIP3   OH263232   6.274   4.707   4.862  0.1896 -0.0136 -0.2006
13914TIP3    H163233   6.182   4.707   4.836  0.5568 -1.3480 -1.6081
13914TIP3    H263234   6.313   4.780   4.812  0.6187 -1.7608 -2.6103
13915TIP3   OH263235   4.964   4.585  13.113 -0.8286 -0.4441 -0.0408
13915TIP3    H163236   5.034   4.559  13.174  0.5260  0.7009 -1.0442
13915TIP3    H263237   5.009   4.636  13.046 -2.4155 -0.9779 -1.5668
13916TIP3   OH263238   5.694   1.170   1.421  0.2326 -0.0276 -0.3119
13916TIP3    H163239   5.741   1.205   1.497 -1.4195  0.5634  0.4900
13916TIP3    H263240   5.630   1.238   1.399 -1.8728 -1.7434  0.1858
13917TIP3   OH263241   6.212   4.044   1.678 -0.1919  0.3277  0.2976
13917TIP3    H163242   6.278   4.011   1.617  0.0195  0.2216  0.5858
13917TIP3    H263243   6.146   4.085   1.621  0.3612  0.8627  0.0333
13918TIP3   OH263244   1.579   2.138  11.653 -0.2593  0.0493  0.0682
13918TIP3    H163245   1.598   2.164  11.743 -1.1418  1.9575 -0.2331
13918TIP3    H263246   1.490   2.105  11.656 -0.3915  0.3827 -0.1442
13919TIP3   OH263247   6.229   4.511  14.743  0.5038  0.2085  0.2094
13919TIP3    H163248   6.249   4.421  14.716 -1.2942 -0.1108 -0.1929
13919TIP3    H263249   6.167   4.500  14.815 -0.5135  1.1040 -0.4994
13920TIP3   OH263250   6.720   3.432  11.619 -0.0889 -0.2679  0.1653
13920TIP3    H163251   6.656   3.475  11.562 -0.2372 -0.2914  0.3140
13920TIP3    H263252   6.668   3.396  11.690 -0.3066 -2.7890 -1.1577
13921TIP3   OH263253   0.121   0.955   4.856  0.3183 -0.0592  0.2334
13921TIP3    H163254   0.119   0.884   4.791 -0.2473 -0.3278  0.5446
13921TIP3    H263255   0.180   0.922   4.924  2.5104  1.0222 -1.0389
13922TIP3   OH263256   3.658   6.041  12.034  0.1850 -0.0105 -0.2118
13922TIP3    H163257   3.592   6.016  12.098 -0.2806 -0.4771 -0.8691
13922TIP3    H263258   3.689   6.127  12.064 -1.1311  0.4873 -0.2055
13923TIP3   OH263259   5.088   3.856  12.840 -0.3159 -0.3038  0.3479
13923TIP3    H163260   5.168   3.908  12.846  0.2249 -1.0986  0.3034
13923TIP3    H263261   5.052   3.876  12.754 -0.7361  0.8519  0.7804
13924TIP3   OH263262   1.655   5.576  15.948  0.3145  0.0868  0.1080
13924TIP3    H163263   1.651   5.604  16.040 -0.0960  0.4960 -0.0336
13924TIP3    H263264   1.606   5.494  15.946  0.7547 -0.1867  0.3497
13925TIP3   OH263265   5.000   5.198   3.699  0.3181 -0.1947 -0.1546
13925TIP3    H163266   4.966   5.136   3.763  0.9742  0.7973  1.2037
13925TIP3    H263267   5.094   5.203   3.719  0.4167  0.5955 -0.7875
13926TIP3   OH263268   1.125   6.043  13.974  0.4521 -0.3928 -0.2201
13926TIP3    H163269   1.030   6.044  13.986  0.2293 -3.3966 -0.9389
13926TIP3    H263270   1.160   6.085  14.052 -1.4474  0.3183  0.3007
13927TIP3   OH263271   5.589   3.333  13.833  0.1746  0.0338  0.3027
13927TIP3    H163272   5.545   3.352  13.750 -0.1287  0.3567  0.5290
13927TIP3    H263273   5.615   3.241  13.827  0.0258  0.0153 -0.0874
13928TIP3   OH263274   4.251   6.428   2.471 -0.5017  0.2710  0.0256
13928TIP3    H163275   4.297   6.441   2.388  0.4107  0.0703  0.4865
13928TIP3    H263276   4.312   6.460   2.538 -0.3826 -1.4101  0.7721
13929TIP3   OH263277   6.126   1.397  12.531  0.0603 -0.0644 -0.2854
13929TIP3    H163278   6.045   1.449  12.526 -0.6683 -1.2694 -2.1921
13929TIP3    H263279   6.192   1.459  12.560 -1.6213  0.8432  1.8337
13930TIP3   OH263280   2.292   3.703   4.714 -0.7568  0.5194 -0.1666
13930TIP3    H163281   2.322   3.625   4.761  0.1343  1.4060  0.7593
13930TIP3    H263282   2.370   3.735   4.668 -1.3118  0.4079 -1.2185
13931TIP3   OH263283   5.885   4.536   5.423  0.8234  0.3960 -0.1760
13931TIP3    H163284   5.849   4.584   5.497 -1.2405  0.7116 -1.2932
13931TIP3    H263285   5.902   4.604   5.357  0.7281 -0.0737 -0.6946
13932TIP3   OH263286   4.994   1.930  15.367  0.2450  0.2649  0.3748
13932TIP3    H163287   5.036   1.923  15.452  1.9031  0.6129 -0.3817
13932TIP3    H263288   5.066   1.923  15.304 -0.7926  1.2456 -0.9671
13933TIP3   OH263289   4.804   3.736  13.570  0.1499 -0.1654  0.3603
13933TIP3    H163290   4.797   3.831  13.578  0.5336 -0.1162  0.0965
13933TIP3    H263291   4.738   3.712  13.506 -1.5823 -0.3423  2.1093
13934TIP3   OH263292   2.499   3.866  13.159 -0.0882 -0.1659 -0.1491
13934TIP3    H163293   2.550   3.920  13.098 -0.3799 -0.8829 -1.0557
13934TIP3    H263294   2.410   3.902  13.153 -0.5920 -1.5273 -1.7860
13935TIP3   OH263295   2.967   1.886   4.866 -0.1736  0.1215 -0.1838
13935TIP3    H163296   2.946   1.870   4.774 -1.2413 -0.3882  0.1295
13935TIP3    H263297   3.062   1.893   4.869 -0.1727  1.1576 -1.4867
13936TIP3   OH263298   2.527   0.355   2.234 -0.3739 -0.0593 -0.0869
13936TIP3    H163299   2.529   0.288   2.166  0.3627  0.5452 -0.6688
13936TIP3    H263300   2.612   0.348   2.278 -0.2554  0.5500 -0.2118
13937TIP3   OH263301   3.104   1.076   1.756  0.0924  0.1528 -0.3755
13937TIP3    H163302   3.167   1.008   1.732 -2.0635 -1.3247 -2.4047
13937TIP3    H263303   3.084   1.059   1.849  0.7310 -1.0288 -0.4382
13938TIP3   OH263304   3.210   5.426  15.005  0.0495 -0.1285  0.1063
13938TIP3    H163305   3.282   5.385  15.052 -0.1640 -0.3531  0.2410
13938TIP3    H263306   3.177   5.357  14.948 -1.0569 -0.5099  1.1663
13939TIP3   OH263307   1.492   6.733  17.320  0.0046 -0.3847  0.2507
13939TIP3    H163308   1.573   6.761  17.364 -0.7324 -0.0214  1.4319
13939TIP3    H263309   1.474   6.803  17.258 -0.7742  0.8869  1.8244
13940TIP3   OH263310   1.524   6.254  14.475 -0.2583 -0.4067  0.3041
13940TIP3    H163311   1.562   6.193  14.538  0.0946 -0.0766  0.4119
13940TIP3    H263312   1.523   6.207  14.392 -2.3116 -1.4964  0.8803
13941TIP3   OH263313   0.650   5.747   0.611  0.2739  0.1034 -0.3704
13941TIP3    H163314   0.577   5.737   0.672  0.3579  0.8662 -0.1257
13941TIP3    H263315   0.663   5.842   0.606 -1.0537  0.2208 -3.1485
13942TIP3   OH263316   0.454   4.148  11.549 -0.2716  0.4210 -0.2228
13942TIP3    H163317   0.546   4.127  11.565 -0.3646 -0.8612 -1.1871
13942TIP3    H263318   0.418   4.067  11.513 -2.3365  0.1374  2.2167
13943TIP3   OH263319   4.002   5.871  14.918  0.5176 -0.3024 -0.3312
13943TIP3    H163320   4.077   5.924  14.890  0.5716 -0.6641 -0.8951
13943TIP3    H263321   4.004   5.794  14.860 -1.2246  0.4340 -1.4602
13944TIP3   OH263322   1.561   5.533  15.518 -0.0458  0.2333  0.4290
13944TIP3    H163323   1.613   5.453  15.525  1.2039  0.9261 -0.5781
13944TIP3    H263324   1.592   5.587  15.591 -1.1297 -0.2924  1.3167
13945TIP3   OH263325   4.900   4.957   5.806 -0.0750 -0.5322  0.0440
13945TIP3    H163326   4.857   4.923   5.885  1.3863  0.5626  1.3618
13945TIP3    H263327   4.993   4.939   5.819  0.2600  0.2167 -1.1465
13946TIP3   OH263328   2.787   1.211   0.866  0.8330  0.0630  0.0446
13946TIP3    H163329   2.837   1.135   0.897  0.5913 -0.7250 -1.4083
13946TIP3    H263330   2.698   1.178   0.852  0.1434  1.1739  1.5082
13947TIP3   OH263331   1.339   1.015   4.403  0.2092 -0.3375 -0.4076
13947TIP3    H163332   1.332   1.067   4.484 -0.8883  0.1055 -0.7662
13947TIP3    H263333   1.307   0.928   4.428  0.1688 -0.2881 -0.2829
13948TIP3   OH263334   6.555   1.331   2.195  0.0653  0.1316 -0.0416
13948TIP3    H163335   6.543   1.409   2.249 -0.1993  0.5713 -0.7298
13948TIP3    H263336   6.472   1.283   2.205  0.7700 -0.8406  1.5821
13949TIP3   OH263337   2.354   6.150  12.856 -0.1607  0.4610 -0.2695
13949TIP3    H163338   2.290   6.078  12.863  1.9050 -1.2976  3.2319
13949TIP3    H263339   2.362   6.183  12.945  2.3359  1.9480 -0.9584
13950TIP3   OH263340   2.627   6.185   0.863 -0.2834 -0.1766  0.5727
13950TIP3    H163341   2.602   6.096   0.888 -3.3075  0.8694  1.8202
13950TIP3    H263342   2.544   6.227   0.838  1.0768  2.2088 -0.3104
13951TIP3   OH263343   6.218   2.698  17.240 -0.1235 -0.1892 -0.5532
13951TIP3    H163344   6.153   2.712  17.170 -1.7145  0.2225  0.9387
13951TIP3    H263345   6.184   2.624  17.290  0.2897  0.3518  0.5611
13952TIP3   OH263346   3.588   0.039   0.510  0.0296 -0.4270  0.3172
13952TIP3    H163347   3.596   0.130   0.484  0.8091 -0.6856 -0.3919
13952TIP3    H263348   3.613   0.038   0.603  1.1232 -0.0696  0.0472
13953TIP3   OH263349   5.711   4.873  15.999  0.3958  0.6231 -0.0665
13953TIP3    H163350   5.646   4.919  16.052  0.5836  1.7263 -0.7734
13953TIP3    H263351   5.666   4.856  15.916 -0.4109 -2.4151  0.8660
13954TIP3   OH263352   5.642   2.833  16.506  0.0437 -0.4248 -0.3224
13954TIP3    H163353   5.647   2.929  16.512  1.1188 -0.4846 -0.1420
13954TIP3    H263354   5.623   2.816  16.414  0.4957 -0.0535 -0.4889
13955TIP3   OH263355   4.612   5.257  13.630  0.4857  0.1488  0.0696
13955TIP3    H163356   4.673   5.268  13.557  0.9110 -0.8886  0.2657
13955TIP3    H263357   4.532   5.300  13.600  1.4362  2.0401  0.0290
13956TIP3   OH263358   0.043   1.317   3.719  0.1229 -0.1233  0.0830
13956TIP3    H163359  -0.015   1.259   3.768 -1.8624  2.2012  0.6981
13956TIP3    H263360   0.051   1.395   3.774  2.5810  0.2859 -0.7478
13957TIP3   OH263361   1.027   4.404   2.826  0.8454 -0.4503  0.1442
13957TIP3    H163362   1.032   4.408   2.731 -0.2776 -1.1177  0.0468
13957TIP3    H263363   1.119   4.395   2.854  1.3104  1.0801 -0.7793
13958TIP3   OH263364   5.785   6.192   6.108  0.1011 -0.2154 -0.1515
13958TIP3    H163365   5.847   6.265   6.107 -0.7021  0.4696 -1.2397
13958TIP3    H263366   5.828   6.124   6.055 -0.5646  0.7037 -1.9392
13959TIP3   OH263367   4.600   4.071   5.056  0.2701 -0.4687 -0.3092
13959TIP3    H163368   4.604   4.158   5.015 -1.3433  0.2992  1.0415
13959TIP3    H263369   4.679   4.027   5.026  1.3774  1.6302 -0.6840
13960TIP3   OH263370   3.629   6.468   4.982  0.8586  0.3878 -0.1462
13960TIP3    H163371   3.604   6.407   5.052  0.0378  0.7227 -0.1418
13960TIP3    H263372   3.610   6.555   5.018  0.4187  0.5631 -0.7885
13961TIP3   OH263373   4.395   1.148  13.520 -0.1341  0.1601  0.4969
13961TIP3    H163374   4.349   1.231  13.518  0.2539  0.3567 -1.5641
13961TIP3    H263375   4.479   1.168  13.561 -0.1482  0.7289  0.2482
13962TIP3   OH263376   4.996   4.865   2.983  0.1719  0.4602 -0.3280
13962TIP3    H163377   5.021   4.890   2.894 -0.0999  3.4639  0.3600
13962TIP3    H263378   4.904   4.841   2.976 -0.2367  2.0187 -0.6688
13963TIP3   OH263379   4.932   0.889   3.747 -0.7143 -0.0770 -0.1457
13963TIP3    H163380   4.865   0.909   3.681  1.7621  0.0937 -2.8480
13963TIP3    H263381   5.006   0.944   3.723  0.7405 -0.8833  2.1541
13964TIP3   OH263382   4.249   5.943  17.409 -0.2135  0.2314  0.1500
13964TIP3    H163383   4.265   5.900  17.493 -0.4724 -0.1852 -0.0090
13964TIP3    H263384   4.194   6.018  17.430 -1.5736 -0.7421  0.1728
13965TIP3   OH263385   0.088   4.762   1.144 -0.2558  0.5722  0.3440
13965TIP3    H163386   0.104   4.854   1.122 -1.6426  0.6019 -0.6257
13965TIP3    H263387   0.097   4.715   1.061  1.1927 -0.3187  0.9499
13966TIP3   OH263388   2.538   3.074  12.182 -0.2390  0.2029  0.2665
13966TIP3    H163389   2.573   3.162  12.197 -1.0197  0.5692 -0.0018
13966TIP3    H263390   2.569   3.050  12.095  0.6356 -0.1273  0.6526
13967TIP3   OH263391   2.849   0.761   5.193 -0.3046  0.3485  0.2890
13967TIP3    H163392   2.862   0.728   5.282  2.1531 -0.1928 -0.1872
13967TIP3    H263393   2.796   0.840   5.204 -0.7425 -0.1475  2.1267
13968TIP3   OH263394   2.670   1.518   6.682  0.7246  0.8385 -0.0348
13968TIP3    H163395   2.754   1.546   6.717  0.8315  0.1605  0.2801
13968TIP3    H263396   2.693   1.455   6.613  0.4895  1.1904 -0.4353
13969TIP3   OH263397   5.890   4.523   0.001 -0.4956 -0.0987 -0.0505
13969TIP3    H163398   5.962   4.483   0.050 -1.0872  0.2405  1.1288
13969TIP3    H263399   5.817   4.462   0.011 -0.1463 -0.9029 -2.0169
13970TIP3   OH263400   3.491   1.447   4.859 -0.0948 -0.1757  0.4967
13970TIP3    H163401   3.412   1.416   4.814 -1.4476  2.4068  0.9380
13970TIP3    H263402   3.488   1.405   4.945 -1.5086  0.5704  0.8366
13971TIP3   OH263403   3.242   0.025   0.723  0.5031 -0.2897 -0.8290
13971TIP3    H163404   3.161  -0.015   0.754  0.7683  0.7160  1.3702
13971TIP3    H263405   3.311  -0.037   0.748  0.5527 -0.4796 -1.4125
13972TIP3   OH263406   6.092   5.088  12.560 -0.7655  0.1829  0.3170
13972TIP3    H163407   6.167   5.136  12.595 -2.4425  2.7067  0.7044
13972TIP3    H263408   6.099   5.001  12.601  1.5548  0.5393  0.8252
13973TIP3   OH263409   1.256   2.095  12.444  0.7676  0.4347 -0.2007
13973TIP3    H163410   1.177   2.077  12.494  0.6599 -0.7474 -0.7512
13973TIP3    H263411   1.325   2.046  12.489  1.2456  1.6275  0.3988
13974TIP3   OH263412   3.060   5.084   0.740 -0.2452  0.3926 -0.3176
13974TIP3    H163413   2.967   5.086   0.762  0.1469  1.4513  1.3699
13974TIP3    H263414   3.080   5.172   0.708  0.2474  0.2715 -0.3549
13975TIP3   OH263415   4.335   3.743  15.587  0.6698 -0.0203 -0.3213
13975TIP3    H163416   4.240   3.753  15.584  0.7152  1.0680  0.8531
13975TIP3    H263417   4.358   3.762  15.678  1.7187 -3.1635  0.2140
13976TIP3   OH263418   3.259   5.773  17.277 -0.2421  0.0930 -0.0782
13976TIP3    H163419   3.291   5.824  17.203 -1.9145 -1.3559 -1.9341
13976TIP3    H263420   3.335   5.726  17.309  0.5349  0.7942 -0.8462
13977TIP3   OH263421   5.926   4.322   5.253 -0.5118 -0.5615 -0.2477
13977TIP3    H163422   5.907   4.381   5.326 -2.8876 -1.0113 -0.4181
13977TIP3    H263423   6.006   4.277   5.279 -0.7132  0.0596  1.5964
13978TIP3   OH263424   5.248   3.021   5.485  0.2568  0.2023 -0.0762
13978TIP3    H163425   5.338   2.997   5.462  0.5184 -0.0535  1.1706
13978TIP3    H263426   5.226   2.965   5.559 -0.9226  0.2974 -0.3329
13979TIP3   OH263427   4.108   1.103   2.923 -0.4148 -0.1031 -0.0296
13979TIP3    H163428   4.149   1.025   2.886 -0.6023 -0.8295  1.2239
13979TIP3    H263429   4.111   1.089   3.018 -0.3965  1.4510  0.2274
13980TIP3   OH263430   3.679   4.530   3.945  0.1787 -0.2784 -0.1599
13980TIP3    H163431   3.664   4.624   3.952  1.6006 -0.0213 -0.2903
13980TIP3    H263432   3.664   4.511   3.852 -0.6351 -0.2957 -0.0341
13981TIP3   OH263433   6.537   5.185  13.048  0.1734  0.0638 -0.5805
13981TIP3    H163434   6.547   5.197  13.142 -0.4039 -0.2118 -0.4801
13981TIP3    H263435   6.567   5.268  13.010 -0.2218  0.4236 -0.1178
13982TIP3   OH263436   4.005   4.062   4.142  0.0572  0.2408 -0.0857
13982TIP3    H163437   4.026   4.123   4.071  1.1828  0.0352  0.0538
13982TIP3    H263438   3.960   4.116   4.208 -0.3371  0.5836 -0.6245
13983TIP3   OH263439   0.414   3.127   1.987 -0.4837 -0.2915 -0.1993
13983TIP3    H163440   0.456   3.184   2.052 -0.4581 -0.0188 -0.4541
13983TIP3    H263441   0.419   3.176   1.905 -0.7479 -0.5246 -0.3566
13984TIP3   OH263442   5.888   2.127  11.331  0.4508 -0.6006  0.4468
13984TIP3    H163443   5.925   2.060  11.273 -1.0325 -0.5892 -0.5660
13984TIP3    H263444   5.918   2.210  11.293  2.4737 -0.6161  1.8275
13985TIP3   OH263445   4.851   3.838  12.332 -0.0450 -0.4405  0.1567
13985TIP3    H163446   4.781   3.772  12.329  0.3984 -0.8745 -1.8348
13985TIP3    H263447   4.858   3.869  12.242  2.2138 -0.2686  0.3472
13986TIP3   OH263448   1.437   1.059  11.405  0.0475  0.0716  0.0220
13986TIP3    H163449   1.514   1.105  11.371  1.3702 -0.5179  2.0078
13986TIP3    H263450   1.429   0.982  11.349  0.5596  0.4364 -0.5700
13987TIP3   OH263451   5.206   3.003  11.742 -0.4863 -0.0423 -0.1239
13987TIP3    H163452   5.301   3.011  11.734 -0.1689 -0.9907  2.0515
13987TIP3    H263453   5.192   2.915  11.776 -2.2842 -0.5160 -1.9013
13988TIP3   OH263454   0.499   6.013  17.685 -0.1852  0.9324 -0.3207
13988TIP3    H163455   0.476   5.929  17.725  1.2959  0.6730  0.0091
13988TIP3    H263456   0.551   5.990  17.608  0.9934  1.5513  0.2619
13989TIP3   OH263457   1.382   3.300  14.101 -0.1877 -0.3446  0.2763
13989TIP3    H163458   1.299   3.255  14.115  0.1529 -0.8044  0.8973
13989TIP3    H263459   1.433   3.281  14.181 -0.2083  1.5357  0.7828
13990TIP3   OH263460   2.858   2.455  16.726  0.0587  0.3983 -0.5730
13990TIP3    H163461   2.833   2.543  16.698 -0.3446  0.3635 -0.3446
13990TIP3    H263462   2.910   2.469  16.805 -1.4255  0.3823  0.4547
13991TIP3   OH263463   6.608   2.295  15.064 -0.0158 -0.2632 -0.1611
13991TIP3    H163464   6.631   2.204  15.045  0.3963 -0.4808  1.1980
13991TIP3    H263465   6.515   2.292  15.085 -0.2225 -0.2017 -1.0527
13992TIP3   OH263466   1.576   5.945  16.049 -0.0417  0.1414 -0.3102
13992TIP3    H163467   1.561   5.958  15.956 -0.7909 -1.9636 -0.5524
13992TIP3    H263468   1.659   5.989  16.067  0.8228 -0.5538 -2.3009
13993TIP3   OH263469   2.327   3.140  16.152 -0.1104 -0.3684  0.3878
13993TIP3    H163470   2.266   3.176  16.087 -0.7186 -0.8927  0.6563
13993TIP3    H263471   2.332   3.208  16.220  1.9981  1.0286 -1.0510
13994TIP3   OH263472   1.877   0.687   1.646 -0.3212 -0.1697 -0.0621
13994TIP3    H163473   1.860   0.594   1.658 -0.2966 -0.2390 -0.5115
13994TIP3    H263474   1.896   0.695   1.552 -1.7765  0.5152 -0.3227
13995TIP3   OH263475   6.394   1.339   4.401 -0.3168 -0.1159 -0.2241
13995TIP3    H163476   6.464   1.385   4.353 -0.4549  0.7783  0.4058
13995TIP3    H263477   6.329   1.407   4.419 -1.0029 -0.7860 -0.1403
13996TIP3   OH263478   2.033   3.089   5.005  0.1774 -0.1513 -0.0669
13996TIP3    H163479   1.978   3.117   4.932  0.9011 -0.2567 -0.6678
13996TIP3    H263480   1.990   3.124   5.082 -2.4948 -2.7897 -0.1559
13997TIP3   OH263481   0.711   1.576   4.580  0.0368  0.2743  0.4674
13997TIP3    H163482   0.693   1.486   4.607 -1.1341  0.8883  1.8525
13997TIP3    H263483   0.651   1.629   4.632  1.8762  2.0081  0.9378
13998TIP3   OH263484   3.764   5.663  15.491 -0.1815  0.0177  0.1236
13998TIP3    H163485   3.749   5.610  15.413  0.3762 -0.9581  0.6617
13998TIP3    H263486   3.853   5.696  15.481  0.9004 -2.2568  1.5380
13999TIP3   OH263487   5.200   5.587  17.441 -0.2519 -0.7016 -0.4665
13999TIP3    H163488   5.124   5.531  17.452 -0.2670 -0.8015 -1.0276
13999TIP3    H263489   5.181   5.639  17.363 -0.2535  0.1153  0.0641
14000TIP3   OH263490   4.325   1.730   1.037  0.0825  0.2458 -0.3033
14000TIP3    H163491   4.308   1.694   1.125  0.5382 -1.0108 -0.7090
14000TIP3    H263492   4.420   1.733   1.031  0.1147  3.1169  0.3157
14001TIP3   OH263493   5.525   1.819   4.659  0.2352  0.3963  0.5746
14001TIP3    H163494   5.486   1.865   4.734 -1.4494  1.5735 -0.9336
14001TIP3    H263495   5.586   1.882   4.622  0.5763  0.0665  0.5773
14002TIP3   OH263496   2.068   0.985  11.872 -0.3320  0.8054 -0.3334
14002TIP3    H163497   2.130   0.931  11.824  1.1301  1.5133  0.6956
14002TIP3    H263498   2.081   0.963  11.964 -1.4729  1.1221 -0.0678
14003TIP3   OH263499   2.986   4.364  13.128 -0.1410  0.0657  0.0657
14003TIP3    H163500   2.915   4.353  13.190 -0.0548  0.3136  0.2080
14003TIP3    H263501   2.953   4.428  13.065 -0.0708  0.1278  0.0925
14004TIP3   OH263502   2.639   5.045   2.944 -0.1685 -0.1204  0.6577
14004TIP3    H163503   2.704   4.985   2.909 -0.4433  0.5474 -1.0727
14004TIP3    H263504   2.689   5.125   2.963 -0.0469 -0.4307  1.7296
14005TIP3   OH263505   1.354   2.073  13.511 -0.1764  0.2117 -0.2589
14005TIP3    H163506   1.397   2.026  13.439 -0.7329  0.8550 -1.0280
14005TIP3    H263507   1.352   2.010  13.583  3.8589  0.7489  0.5426
14006TIP3   OH263508   1.809   2.971  11.623 -0.6254  0.0172  0.3695
14006TIP3    H163509   1.809   3.050  11.676 -1.9646  1.0727 -1.1182
14006TIP3    H263510   1.832   3.000  11.535 -0.3912 -1.3612 -0.0554
14007TIP3   OH263511   1.208   3.839   2.911 -0.6467 -0.4524  0.5763
14007TIP3    H163512   1.192   3.888   2.830 -1.1150 -0.8872  0.4070
14007TIP3    H263513   1.131   3.856   2.965  0.4144  1.2600  1.6575
14008TIP3   OH263514   3.657   3.167  11.126  0.0098 -0.3782 -0.4115
14008TIP3    H163515   3.648   3.245  11.180 -0.2484 -0.3389 -0.5121
14008TIP3    H263516   3.567   3.141  11.106  0.0962 -0.6497 -0.4505
14009TIP3   OH263517   3.154   5.887  12.060 -0.0275  0.2988  0.3775
14009TIP3    H163518   3.088   5.849  12.118 -0.3216  0.2797  0.0315
14009TIP3    H263519   3.109   5.959  12.016  0.3463  0.6525  0.5601
14010TIP3   OH263520   4.000   6.007   5.071  0.1632 -0.2292 -0.1682
14010TIP3    H163521   4.051   5.972   4.999  0.6298  0.1043 -0.0088
14010TIP3    H263522   4.026   6.099   5.077  0.8985 -0.4968  1.0669
14011TIP3   OH263523   1.831   1.007  12.894  0.1871  0.3004 -0.0951
14011TIP3    H163524   1.853   1.037  12.982 -1.2540  1.0694  0.0300
14011TIP3    H263525   1.758   0.947  12.906 -0.3583  0.8107 -0.8034
14012TIP3   OH263526   3.520   4.005  17.264 -0.2363 -0.3561  0.0826
14012TIP3    H163527   3.598   3.954  17.241 -0.9617 -1.3355 -0.3021
14012TIP3    H263528   3.460   3.990  17.191 -0.1505  1.8182 -0.4869
14013TIP3   OH263529   5.909   0.710  11.978 -0.5468  0.3189  0.4171
14013TIP3    H163530   5.856   0.748  12.048 -1.8898 -2.4473  1.0140
14013TIP3    H263531   5.991   0.685  12.021  0.3923  2.4123 -0.0012
14014TIP3   OH263532   2.353   1.653   5.209  0.2109  0.2084 -0.0492
14014TIP3    H163533   2.376   1.687   5.296  0.7649  1.1472 -0.5428
14014TIP3    H263534   2.383   1.563   5.210 -2.9163 -1.0073  1.9646
14015TIP3   OH263535   1.485   5.612   5.785 -0.0681 -0.8471 -0.7969
14015TIP3    H163536   1.433   5.663   5.723 -0.1736 -0.7312 -0.6127
14015TIP3    H263537   1.574   5.617   5.750 -0.1506 -0.9063 -1.0212
14016TIP3   OH263538   5.831   5.745   3.780 -0.4686 -0.3935 -0.4628
14016TIP3    H163539   5.926   5.754   3.787 -0.2571 -2.6602  0.4944
14016TIP3    H263540   5.813   5.656   3.811 -2.5324 -1.3509 -3.8484
14017TIP3   OH263541   4.519   3.940  14.237  0.0484  0.1497 -0.0047
14017TIP3    H163542   4.444   3.892  14.272  0.6469 -0.7044  0.1389
14017TIP3    H263543   4.497   3.954  14.145 -0.1914 -0.2753 -0.0136
14018TIP3   OH263544   4.876   3.330   2.187 -0.2535  0.1656  0.1318
14018TIP3    H163545   4.868   3.238   2.163  2.1607 -0.1686  0.3137
14018TIP3    H263546   4.948   3.363   2.133 -0.6834  1.7936  0.4955
14019TIP3   OH263547   4.894   4.960  13.501 -0.4729  0.0035 -0.7670
14019TIP3    H163548   4.934   4.883  13.541 -0.9761  0.1722  0.0739
14019TIP3    H263549   4.804   4.933  13.481 -1.2334  0.9066  1.2070
14020TIP3   OH263550   3.909   1.016   6.491 -0.0043 -0.0785  0.3692
14020TIP3    H163551   3.832   0.995   6.437  0.3331  0.2351 -0.2496
14020TIP3    H263552   3.883   1.093   6.540  0.5306  1.1954 -1.2451
14021TIP3   OH263553   4.932   1.564  13.641  0.0936 -0.0290  0.1866
14021TIP3    H163554   4.913   1.499  13.709 -0.1881  0.8373  0.9494
14021TIP3    H263555   5.027   1.562  13.631  0.0583 -0.8129 -0.0663
14022TIP3   OH263556   3.278   4.554   4.533  0.2386 -0.2144  0.1702
14022TIP3    H163557   3.242   4.469   4.506  0.5620 -0.9834  1.9789
14022TIP3    H263558   3.370   4.549   4.509 -0.0039  0.1734 -0.8998
14023TIP3   OH263559   6.557   2.403   0.067 -0.1251 -0.2980  0.0522
14023TIP3    H163560   6.551   2.322   0.016 -0.0711  0.9555 -2.0702
14023TIP3    H263561   6.503   2.466   0.019  1.5022  1.4940  0.4503
14024TIP3   OH263562   0.291   3.677  16.276  0.4920 -0.5203  0.0798
14024TIP3    H163563   0.230   3.619  16.230 -0.3932 -0.2965  0.9373
14024TIP3    H263564   0.293   3.644  16.366  1.6640 -0.5283  0.0703
14025TIP3   OH263565   3.056   5.281  12.316 -0.4350  0.4078 -0.0846
14025TIP3    H163566   3.116   5.351  12.289 -0.1469  0.0599 -0.3580
14025TIP3    H263567   3.053   5.222  12.241  1.7957 -1.5409  1.2209
14026TIP3   OH263568   5.440   5.813  15.903 -0.1439 -0.0681 -0.2875
14026TIP3    H163569   5.381   5.766  15.844  0.4566  0.0929 -1.0319
14026TIP3    H263570   5.457   5.751  15.974 -0.1410 -0.6214 -0.7613
14027TIP3   OH263571   3.963   0.920  13.194 -0.1423 -0.3885  0.3050
14027TIP3    H163572   4.049   0.884  13.217  0.3953  0.8709  0.3488
14027TIP3    H263573   3.975   0.954  13.105 -1.4647 -2.8651 -0.9154
14028TIP3   OH263574   2.943   5.893   5.722  0.5491  0.0322 -1.2044
14028TIP3    H163575   2.877   5.860   5.660  0.5132 -0.3861 -0.9484
14028TIP3    H263576   2.919   5.852   5.806  0.9612  0.1112 -1.0478
14029TIP3   OH263577   5.679   4.442   2.055  0.5037 -0.0318  0.2444
14029TIP3    H163578   5.630   4.503   2.000  2.0588  3.0548  2.0118
14029TIP3    H263579   5.649   4.461   2.144  2.5508 -0.2897  1.0449
14030TIP3   OH263580   2.773   0.750   0.854 -0.2347 -0.1902  0.2981
14030TIP3    H163581   2.836   0.717   0.790 -0.9715 -0.3258 -0.3708
14030TIP3    H263582   2.690   0.753   0.807 -0.7366 -0.0175  1.1702
14031TIP3   OH263583   5.779   4.475   1.377 -0.3219  0.6858 -0.1452
14031TIP3    H163584   5.706   4.536   1.368  0.3725  1.4449 -0.7823
14031TIP3    H263585   5.829   4.485   1.296 -0.2100 -0.7629 -0.2771
14032TIP3   OH263586   0.068   6.229   4.202 -0.0343  0.2609  0.5459
14032TIP3    H163587   0.088   6.267   4.117  1.5242  1.9291  1.5746
14032TIP3    H263588   0.035   6.303   4.254  3.0736  0.3410  2.6284
14033TIP3   OH263589   6.137   1.269   0.280  0.0303  0.0729  0.4625
14033TIP3    H163590   6.227   1.239   0.295  0.0592  0.1296  0.3993
14033TIP3    H263591   6.083   1.209   0.332 -0.0555 -1.2339 -1.0776
14034TIP3   OH263592   3.549   4.771   2.561 -0.0434  0.1244  0.0580
14034TIP3    H163593   3.569   4.740   2.473 -0.1063  0.2186  0.0107
14034TIP3    H263594   3.467   4.727   2.584 -0.2739  0.4596 -0.1136
14035TIP3   OH263595   6.425   4.509   2.043  0.5619 -0.0168 -0.0098
14035TIP3    H163596   6.435   4.598   2.076  3.5424  0.2100 -1.1834
14035TIP3    H263597   6.339   4.509   2.001  0.2583  2.1439  0.4698
14036TIP3   OH263598   3.582   4.397  16.850 -0.1150 -0.3301 -0.4330
14036TIP3    H163599   3.640   4.471  16.835 -0.1061 -0.1797  0.3116
14036TIP3    H263600   3.622   4.325  16.800  0.0729  0.0671 -0.8634
14037TIP3   OH263601   6.314   3.493  17.075  0.7886 -0.4790  0.9570
14037TIP3    H163602   6.336   3.425  17.138  1.6698 -0.5976  0.5207
14037TIP3    H263603   6.395   3.544  17.064  0.3956  0.0878  0.5960
14038TIP3   OH263604   0.783   1.453   2.888  0.2685 -0.4844  0.0685
14038TIP3    H163605   0.826   1.512   2.826 -0.9033 -0.2442 -0.5617
14038TIP3    H263606   0.815   1.366   2.863 -0.2871 -0.4082 -1.0023
14039TIP3   OH263607   1.457   5.426  12.573  0.1481  0.8262  0.9349
14039TIP3    H163608   1.511   5.394  12.645  0.7024  1.6054  0.8701
14039TIP3    H263609   1.453   5.521  12.586  0.6169  1.0299 -0.3096
14040TIP3   OH263610   1.088   4.777  12.640 -0.1041  0.0689 -0.4796
14040TIP3    H163611   1.095   4.683  12.653 -2.8330 -0.0636  0.7699
14040TIP3    H263612   1.131   4.793  12.556  1.5291 -2.0453 -0.1331
14041TIP3   OH263613   1.120   4.251   5.214 -0.0901  0.2773  0.0593
14041TIP3    H163614   1.193   4.305   5.182  0.3588 -1.1213 -1.3839
14041TIP3    H263615   1.149   4.161   5.202 -2.4651 -0.3657 -1.6389
14042TIP3   OH263616   3.960   2.592   3.128 -0.2282  0.0355  0.3778
14042TIP3    H163617   3.866   2.578   3.140 -0.4608  0.3254 -1.0002
14042TIP3    H263618   3.982   2.540   3.051  0.7953 -0.1785  0.8017
14043TIP3   OH263619   2.915   3.503   3.474 -0.5101  0.4171  0.0425
14043TIP3    H163620   2.908   3.412   3.502  1.3899  0.2207  0.0107
14043TIP3    H263621   2.959   3.500   3.390 -0.0234  1.3884  0.2430
14044TIP3   OH263622   5.651   3.293  17.429  0.0608 -0.1663 -0.3110
14044TIP3    H163623   5.692   3.240  17.360  1.6034 -0.5326  0.8243
14044TIP3    H263624   5.636   3.378  17.388  0.4918 -0.5126 -1.2290
14045TIP3   OH263625   5.448   3.131   0.501 -0.7098 -0.1419 -0.6046
14045TIP3    H163626   5.442   3.179   0.584 -0.5889 -0.2161 -0.5534
14045TIP3    H263627   5.502   3.187   0.445 -0.7552 -0.1125 -0.6196
14046TIP3   OH263628   3.372   1.831  11.806  0.0583 -0.1605 -0.2658
14046TIP3    H163629   3.333   1.834  11.893  0.7915  3.0613  0.0740
14046TIP3    H263630   3.301   1.806  11.748 -1.5731  1.7482  0.7986
14047TIP3   OH263631   0.111   3.924  13.882  1.0239  0.0674 -0.2262
14047TIP3    H163632   0.054   3.860  13.925  3.7499 -0.9552  2.1971
14047TIP3    H263633   0.136   3.881  13.800 -1.2751  0.3886 -1.1627
14048TIP3   OH263634   4.758   1.208   4.739 -0.3951  0.3433  0.2755
14048TIP3    H163635   4.725   1.247   4.819 -2.0416 -1.0877  0.3701
14048TIP3    H263636   4.709   1.252   4.669  1.6689  2.2260 -0.1046
14049TIP3   OH263637   6.445   1.085   2.735  0.3488 -0.3464  0.3350
14049TIP3    H163638   6.522   1.064   2.683  0.6817 -1.3081  1.1781
14049TIP3    H263639   6.412   1.000   2.764 -2.2665 -0.1162 -1.6710
14050TIP3   OH263640   3.115   6.088  12.848 -0.0082 -0.1212 -0.0226
14050TIP3    H163641   3.042   6.139  12.813 -0.1488 -0.8247 -0.7887
14050TIP3    H263642   3.166   6.151  12.899 -0.9255  0.4673  0.1893
14051TIP3   OH263643   3.928   2.870   4.597 -0.2447  0.0538  0.3213
14051TIP3    H163644   3.848   2.920   4.610  0.1631  1.3905 -1.8445
14051TIP3    H263645   3.907   2.810   4.526  0.4887  0.0125  0.1362
14052TIP3   OH263646   6.173   4.718  13.438 -0.6302 -0.0170 -0.4946
14052TIP3    H163647   6.188   4.702  13.344 -1.2317 -0.3762 -0.5359
14052TIP3    H263648   6.247   4.677  13.481 -0.0903  0.5755 -0.8388
14053TIP3   OH263649   0.726   1.928  14.059  0.0791 -0.3579 -0.0399
14053TIP3    H163650   0.663   1.858  14.079 -0.4650  0.3990  0.9442
14053TIP3    H263651   0.690   2.006  14.100  0.6838  0.5244 -1.1291
14054TIP3   OH263652   2.902   3.881   6.104  0.2379  0.3124  0.3058
14054TIP3    H163653   2.929   3.812   6.044 -0.6571 -1.2142  1.5689
14054TIP3    H263654   2.806   3.875   6.105  0.0578  2.3879 -0.4452
14055TIP3   OH263655   5.630   6.655   2.821 -0.4018 -0.6170  0.1525
14055TIP3    H163656   5.553   6.622   2.774  0.4757 -0.2379 -1.6196
14055TIP3    H263657   5.704   6.609   2.782  0.4604  0.4858  0.4317
14056TIP3   OH263658   0.089   2.386   3.371  0.2877  0.1585  0.3480
14056TIP3    H163659   0.108   2.370   3.463  2.4794 -0.7805 -0.2068
14056TIP3    H263660   0.073   2.480   3.365 -0.1683  0.1907  1.6970
14057TIP3   OH263661   6.272   6.460  11.241 -0.4429 -0.2463  0.1985
14057TIP3    H163662   6.290   6.475  11.334  0.1618 -0.1588  0.0751
14057TIP3    H263663   6.335   6.392  11.216  0.1711  0.5302 -0.4095
14058TIP3   OH263664   4.391   1.614  11.205 -0.2117  0.3137 -0.0001
14058TIP3    H163665   4.484   1.595  11.219  0.1035  1.6721 -0.1277
14058TIP3    H263666   4.390   1.679  11.135 -1.1727  1.2552  0.8489
14059TIP3   OH263667   5.127   2.895   4.799  0.5055 -0.2628  0.4076
14059TIP3    H163668   5.096   2.806   4.785  2.0330 -0.6369 -0.9909
14059TIP3    H263669   5.063   2.935   4.858 -1.8277 -1.3428 -1.2790
14060TIP3   OH263670   2.138   5.492   4.867  0.7755 -0.1077 -0.3884
14060TIP3    H163671   2.170   5.481   4.957 -1.2364  0.1825  0.4179
14060TIP3    H263672   2.071   5.561   4.874  0.6041 -0.0627 -2.1296
14061TIP3   OH263673   3.630   5.140   6.094  0.5159 -0.2636  0.6381
14061TIP3    H163674   3.592   5.227   6.108  1.1167  0.5399 -2.0992
14061TIP3    H263675   3.558   5.089   6.057  0.4769 -0.5910  1.1609
14062TIP3   OH263676   2.600   3.394   6.078  0.0192 -0.5196  0.3045
14062TIP3    H163677   2.516   3.383   6.124  0.3099 -0.8700  0.7603
14062TIP3    H263678   2.664   3.353   6.135  0.5394 -0.0621  0.0559
14063TIP3   OH263679   0.082   2.061  16.649  0.1567  0.3083 -0.1259
14063TIP3    H163680   0.171   2.077  16.619  0.1630 -0.7255 -0.6969
14063TIP3    H263681   0.060   1.974  16.615 -0.0047 -0.7649  2.4887
14064TIP3   OH263682   4.226   4.411  15.644 -0.2458 -0.1796 -0.4356
14064TIP3    H163683   4.212   4.337  15.585 -1.6149 -0.7497  0.5672
14064TIP3    H263684   4.259   4.371  15.725 -2.2740  0.1129  0.5882
14065TIP3   OH263685   0.309   5.405   5.855 -0.2162 -0.2705 -0.0810
14065TIP3    H163686   0.221   5.439   5.866  0.9253  2.8416  0.2953
14065TIP3    H263687   0.318   5.390   5.761 -0.8205  0.3189 -0.2354
14066TIP3   OH263688   0.392   4.746   3.745 -0.1812  0.2349 -0.3898
14066TIP3    H163689   0.332   4.672   3.738  0.2881 -0.1720 -0.1906
14066TIP3    H263690   0.364   4.806   3.677  0.9921 -1.2587 -2.3151
14067TIP3   OH263691   3.012   1.405  15.694  0.1464 -0.6980  0.4830
14067TIP3    H163692   2.946   1.349  15.654 -1.4380  1.8124 -0.6283
14067TIP3    H263693   3.095   1.361  15.675 -0.9475 -2.2599 -0.9636
14068TIP3   OH263694   6.674   5.439  13.005 -0.3753 -0.4463 -0.0533
14068TIP3    H163695   6.630   5.523  12.995 -3.2844 -1.9087 -0.6912
14068TIP3    H263696   6.717   5.445  13.091  1.0540  2.2430 -0.8425
14069TIP3   OH263697   1.158   0.088   5.861  0.4604  0.4406 -0.3015
14069TIP3    H163698   1.213   0.011   5.849  1.8981  1.3396  0.2983
14069TIP3    H263699   1.189   0.128   5.942 -2.8742 -0.4549  1.6349
14070TIP3   OH263700   5.760   0.491   2.974  0.1874  0.0959 -0.2487
14070TIP3    H163701   5.691   0.456   3.030  1.6581 -2.1189  0.3597
14070TIP3    H263702   5.717   0.507   2.890 -1.7400  2.0510  1.0131
14071TIP3   OH263703   3.694   4.216  11.408  0.3192 -0.3598 -0.4065
14071TIP3    H163704   3.764   4.156  11.432  0.2955 -0.2095  0.0519
14071TIP3    H263705   3.637   4.164  11.351 -0.5070 -1.2693  1.1672
14072TIP3   OH263706   2.511   4.507   4.982  0.5008 -0.5784 -0.1352
14072TIP3    H163707   2.452   4.438   4.953  1.0988 -0.6413 -1.2737
14072TIP3    H263708   2.577   4.513   4.913 -0.3060  2.1008 -0.7749
14073TIP3   OH263709   5.258   6.039   3.563 -0.2091 -0.1781 -0.9330
14073TIP3    H163710   5.277   5.989   3.642 -0.7774  1.2555  0.1711
14073TIP3    H263711   5.202   5.982   3.511  0.0517 -1.0976 -0.2317
14074TIP3   OH263712   2.308   3.712  14.528  0.0717  0.4316 -0.0687
14074TIP3    H163713   2.327   3.805  14.514 -0.8152  0.7848  0.9735
14074TIP3    H263714   2.392   3.674  14.553  0.2345  1.1728  0.5377
14075TIP3   OH263715   3.333   2.454  11.060 -0.2864  0.5163 -0.3967
14075TIP3    H163716   3.283   2.534  11.077 -1.0852 -0.2333  0.9097
14075TIP3    H263717   3.326   2.441  10.966 -2.9172  0.2310 -0.2109
14076TIP3   OH263718   3.394   5.517   0.390 -0.0531  0.3325 -0.3248
14076TIP3    H163719   3.465   5.499   0.452 -1.0645  1.3441  1.1999
14076TIP3    H263720   3.351   5.594   0.425 -2.7544 -1.0258 -0.4396
14077TIP3   OH263721   6.347   3.910   4.895 -0.4767 -0.6368  0.4370
14077TIP3    H163722   6.287   3.919   4.969 -0.4140 -0.7133  0.4974
14077TIP3    H263723   6.357   3.999   4.860  1.5665 -0.1108  2.1457
14078TIP3   OH263724   3.376   1.047   0.551  0.0047 -0.2611 -0.2429
14078TIP3    H163725   3.364   1.058   0.645 -0.7197 -1.5972 -0.1519
14078TIP3    H263726   3.460   1.002   0.543 -0.6349 -1.5140 -0.1186
14079TIP3   OH263727   3.464   3.167   0.361 -0.0084 -0.1116 -0.1165
14079TIP3    H163728   3.380   3.161   0.406 -0.2226  2.8999  0.1078
14079TIP3    H263729   3.528   3.139   0.427 -0.6918 -0.8885  0.2366
14080TIP3   OH263730   4.055   2.888   5.157  0.2758 -0.0966 -0.1791
14080TIP3    H163731   4.045   2.794   5.164 -0.8073 -0.0317 -0.7266
14080TIP3    H263732   4.093   2.915   5.241 -0.7976 -0.8263  0.5563
14081TIP3   OH263733   5.231   2.878  12.385  0.3389 -0.3377  0.1494
14081TIP3    H163734   5.223   2.788  12.354  0.3131  0.1676 -1.3953
14081TIP3    H263735   5.191   2.931  12.316  1.0922  0.9190  0.6449
14082TIP3   OH263736   5.568   3.743   0.982 -0.6104 -0.4187 -0.4365
14082TIP3    H163737   5.610   3.734   0.896  0.0343 -1.7379 -0.0151
14082TIP3    H263738   5.588   3.832   1.009  0.0717 -0.3247 -1.2064
14083TIP3   OH263739   6.572   4.964   3.187 -0.1811 -0.4744 -0.3226
14083TIP3    H163740   6.575   4.908   3.109 -0.5554 -0.8680 -0.0638
14083TIP3    H263741   6.560   5.052   3.152 -1.6167 -0.7843 -0.6916
14084TIP3   OH263742   3.677   5.430  16.575  0.1973  0.2894  0.2522
14084TIP3    H163743   3.637   5.515  16.559 -0.6779  0.4141  2.7518
14084TIP3    H263744   3.619   5.367  16.532 -0.2340  0.7977  0.0818
14085TIP3   OH263745   0.104   2.408   4.412  0.3905  0.2897 -0.2999
14085TIP3    H163746   0.019   2.445   4.390  0.6406  0.6478 -0.6941
14085TIP3    H263747   0.166   2.481   4.401  0.6312  0.2870  0.9120
14086TIP3   OH263748   1.868   4.042   5.629  0.3017 -0.0943  0.4968
14086TIP3    H163749   1.823   3.976   5.682 -0.3337 -1.6404 -1.8064
14086TIP3    H263750   1.958   4.010   5.622  0.0356 -0.6758 -0.4779
14087TIP3   OH263751   3.014   3.343  11.377 -0.2876  0.2142  0.5288
14087TIP3    H163752   3.087   3.281  11.384 -0.7002 -0.7213 -2.0858
14087TIP3    H263753   3.054   3.425  11.351 -0.0913 -0.3258 -1.0125
14088TIP3   OH263754   2.706   5.848   2.229  0.2079  0.0583 -0.0330
14088TIP3    H163755   2.637   5.792   2.193  1.1167 -0.9463 -0.2419
14088TIP3    H263756   2.715   5.919   2.164  0.6770 -0.8364 -0.9767
14089TIP3   OH263757   0.933   4.267   5.022  0.1273  0.1898 -0.0056
14089TIP3    H163758   0.992   4.252   5.096 -1.0105 -2.3281  0.4838
14089TIP3    H263759   0.985   4.320   4.961  2.6070 -1.1721  0.7670
14090TIP3   OH263760   5.074   6.127  14.266  0.5548  0.1202  0.5279
14090TIP3    H163761   5.088   6.067  14.193  0.9748 -0.4999  1.0942
14090TIP3    H263762   5.024   6.200  14.229  0.7064 -0.2086 -0.3535
14091TIP3   OH263763   3.982   2.221   4.114  0.0862 -0.1368 -0.1483
14091TIP3    H163764   3.986   2.157   4.044  0.9975  0.7573 -0.9404
14091TIP3    H263765   3.968   2.169   4.193 -1.1775 -1.1422 -0.9993
14092TIP3   OH263766   3.921   4.928  16.042 -0.0295  0.0052  0.9541
14092TIP3    H163767   3.997   4.954  16.094  0.2688 -0.1697  0.6144
14092TIP3    H263768   3.893   4.844  16.080 -0.7794  0.6395  1.8298
14093TIP3   OH263769   2.738   4.572  17.407 -0.0352  0.2607  0.0296
14093TIP3    H163770   2.743   4.518  17.486  0.2722 -1.3335 -1.0357
14093TIP3    H263771   2.818   4.553  17.359 -0.4951  0.7397 -0.9596
14094TIP3   OH263772   4.876   3.144   4.612  0.1251  0.2605  0.6241
14094TIP3    H163773   4.961   3.105   4.590 -1.0416 -2.1945  0.0566
14094TIP3    H263774   4.883   3.235   4.584  2.3165 -0.0680 -0.0706
14095TIP3   OH263775   5.116   1.179   3.299 -0.0309 -0.3951  0.1696
14095TIP3    H163776   5.203   1.173   3.340  0.0052 -1.6660 -0.0696
14095TIP3    H263777   5.110   1.102   3.244 -0.7709  0.4136 -0.9174
14096TIP3   OH263778   1.859   0.716  14.187 -0.2119  0.3930 -0.0896
14096TIP3    H163779   1.867   0.811  14.179 -0.4140  0.3601 -0.7337
14096TIP3    H263780   1.899   0.695  14.272 -2.5781  1.3713  1.3950
14097TIP3   OH263781   6.401   5.032   0.952 -0.2840  0.6676  0.3070
14097TIP3    H163782   6.464   5.097   0.921 -0.7845  1.2876  0.5569
14097TIP3    H263783   6.316   5.076   0.944 -0.6898 -0.1582 -0.0376
14098TIP3   OH263784   5.915   1.581  12.571 -0.5660 -0.7935  0.1270
14098TIP3    H163785   5.851   1.556  12.505 -2.0350  0.8926  0.8176
14098TIP3    H263786   5.884   1.539  12.652  0.7980 -2.2293 -0.0506
14099TIP3   OH263787   0.358   2.574  15.625 -0.2466  0.2522 -0.0513
14099TIP3    H163788   0.438   2.540  15.585  0.7128  1.4228  0.7828
14099TIP3    H263789   0.288   2.518  15.591  0.6773  0.3293 -2.2248
14100TIP3   OH263790   2.205   1.772   1.453  0.2319 -0.0398 -1.0574
14100TIP3    H163791   2.220   1.691   1.405  0.6350 -0.0448 -0.9299
14100TIP3    H263792   2.112   1.770   1.475  0.3525 -0.7447 -0.5620
14101TIP3   OH263793   5.267   2.160  17.024  0.1085 -0.1266  0.1241
14101TIP3    H163794   5.248   2.083  16.971 -1.2526  1.2810 -1.5499
14101TIP3    H263795   5.235   2.234  16.972 -0.7491  1.4099  2.6346
14102TIP3   OH263796   1.500   1.820   2.386  0.0212 -0.1448 -0.0773
14102TIP3    H163797   1.462   1.734   2.371  0.1854 -0.4771  1.2471
14102TIP3    H263798   1.552   1.810   2.466  0.8198  0.9437 -0.4232
14103TIP3   OH263799   2.008   6.506   1.627 -0.5318  0.1154 -0.0827
14103TIP3    H163800   2.018   6.601   1.637 -0.6084  0.2049 -0.8541
14103TIP3    H263801   2.084   6.470   1.673 -0.0756  0.5769 -0.4601
14104TIP3   OH263802   3.567   3.266  17.457  0.0896  0.0546  0.6830
14104TIP3    H163803   3.551   3.180  17.496  1.4134  0.2002  1.5780
14104TIP3    H263804   3.661   3.280  17.466 -0.2313  2.0386  1.5140
14105TIP3   OH263805   6.523   4.118   4.231  0.2546 -0.1042  0.4054
14105TIP3    H163806   6.602   4.126   4.177  0.0693  0.0694  0.1530
14105TIP3    H263807   6.465   4.061   4.180  0.1159 -0.0167  0.4636
14106TIP3   OH263808   1.165   5.306  17.185  0.1481 -0.2083  0.4417
14106TIP3    H163809   1.114   5.379  17.149 -0.4615 -0.4625  0.7852
14106TIP3    H263810   1.100   5.244  17.217  0.6668 -0.7939  0.3852
14107TIP3   OH263811   3.959   1.533   6.195  0.0359 -0.5093  0.7488
14107TIP3    H163812   4.049   1.566   6.198 -0.3759  1.0209 -1.2761
14107TIP3    H263813   3.912   1.585   6.260  0.4944 -0.9677  1.4577
14108TIP3   OH263814   2.552   1.317  11.880  0.6874  0.5066 -0.8892
14108TIP3    H163815   2.494   1.256  11.833 -1.8572  1.5570  0.7337
14108TIP3    H263816   2.524   1.311  11.971  1.8642  2.5065 -0.3562
14109TIP3   OH263817   3.145   0.803  16.011 -0.6012  0.0919 -0.4633
14109TIP3    H163818   3.120   0.888  16.047 -0.8352 -0.3583  0.4759
14109TIP3    H263819   3.062   0.758  15.998 -0.4430 -0.2807 -0.2063
14110TIP3   OH263820   4.438   0.390  13.869  0.8963 -0.7492  0.0239
14110TIP3    H163821   4.485   0.309  13.890  0.3490 -1.2419 -0.6169
14110TIP3    H263822   4.346   0.368  13.884  0.8299  0.1203  0.9877
14111TIP3   OH263823   3.652   1.221  12.306 -0.0771 -0.2079  1.1541
14111TIP3    H163824   3.627   1.284  12.374 -0.6548  1.4930 -0.5508
14111TIP3    H263825   3.570   1.180  12.280  0.0595 -0.4699  1.1396
14112TIP3   OH263826   3.519   6.657  15.221  0.3384 -0.0309  0.3215
14112TIP3    H163827   3.542   6.649  15.313 -0.3335 -0.8980  0.4335
14112TIP3    H263828   3.474   6.575  15.200  0.3879  0.1932 -0.7508
14113TIP3   OH263829   0.597   5.219   4.856  0.1094 -0.4684 -0.0273
14113TIP3    H163830   0.558   5.225   4.943 -0.8353 -2.2181 -0.2866
14113TIP3    H263831   0.530   5.255   4.797  0.1772 -0.5559 -0.1597
14114TIP3   OH263832   1.028   0.196  11.556 -0.6489 -0.2580  0.5863
14114TIP3    H163833   0.955   0.227  11.503  0.7837  2.5552  0.0735
14114TIP3    H263834   1.084   0.148  11.495  0.1191  1.4712 -0.1314
14115TIP3   OH263835   1.553   5.312  13.742  0.2612  0.2245 -0.7718
14115TIP3    H163836   1.479   5.368  13.766  0.1316 -0.2972  0.1045
14115TIP3    H263837   1.599   5.360  13.673 -0.6034  0.7876 -0.9723
14116TIP3   OH263838   3.170   3.779   5.311 -0.9234 -0.1432  0.5052
14116TIP3    H163839   3.082   3.815   5.298 -0.7232  0.1082 -0.1833
14116TIP3    H263840   3.181   3.715   5.242 -1.1244 -1.2747  1.4940
14117TIP3   OH263841   6.512   0.065  17.412  0.7245 -0.0036 -0.7544
14117TIP3    H163842   6.608   0.069  17.418  0.6676  1.7926 -0.4448
14117TIP3    H263843   6.489  -0.022  17.445  2.0552  0.7097  2.4034
14118TIP3   OH263844   2.578   3.253   3.025 -0.2506  0.1519  0.4171
14118TIP3    H163845   2.621   3.224   3.106 -0.3647  0.4716  0.5940
14118TIP3    H263846   2.637   3.318   2.988 -0.3577  0.2475  0.4140
14119TIP3   OH263847   3.919   4.128  12.390 -0.2716 -0.1067 -0.1653
14119TIP3    H163848   3.915   4.084  12.475 -0.2188 -0.7840 -0.5058
14119TIP3    H263849   4.007   4.109  12.357  0.5295  1.9711  0.5631
14120TIP3   OH263850   2.467   1.736   2.032 -0.1203 -0.0306  0.2494
14120TIP3    H163851   2.391   1.778   2.071 -0.1732  0.3532 -0.2459
14120TIP3    H263852   2.509   1.806   1.981 -0.2744 -0.6134 -0.6900
14121TIP3   OH263853   0.688   5.103   2.776 -0.0165 -0.5439 -0.0257
14121TIP3    H163854   0.727   5.128   2.859 -0.1325 -0.6211  0.0518
14121TIP3    H263855   0.716   5.013   2.762  0.5443 -0.3148 -0.3890
14122TIP3   OH263856   1.125   2.937  14.961 -1.1596  0.3080 -0.2820
14122TIP3    H163857   1.118   3.026  14.925 -0.2805  0.2102 -0.7303
14122TIP3    H263858   1.215   2.911  14.942 -0.7735  0.0825  1.6092
14123TIP3   OH263859   0.572   5.748  17.181 -0.0235 -0.4766  0.4367
14123TIP3    H163860   0.609   5.729  17.095  2.0886 -1.2558  1.4511
14123TIP3    H263861   0.486   5.706  17.180 -0.1600 -0.2292 -1.3661
14124TIP3   OH263862   3.171   1.980  13.248 -0.1901  0.3961  0.1802
14124TIP3    H163863   3.131   1.903  13.207  0.6905 -1.0023  1.7732
14124TIP3    H263864   3.241   2.005  13.188 -1.1070  0.5999 -0.8386
14125TIP3   OH263865   0.208   2.880   4.475  0.2683  0.0804  0.0280
14125TIP3    H163866   0.164   2.964   4.460  1.3700  0.7607  0.4751
14125TIP3    H263867   0.294   2.904   4.511 -0.3329 -1.3097  2.6040
14126TIP3   OH263868   4.781   6.224  16.016  0.3115 -0.3294 -0.0758
14126TIP3    H163869   4.776   6.318  16.000 -0.6722 -0.4933 -0.8214
14126TIP3    H263870   4.707   6.187  15.968  1.8776 -1.7403 -1.5486
14127TIP3   OH263871   5.118   4.593   2.875  0.3553  0.4488  0.3275
14127TIP3    H163872   5.065   4.640   2.940  1.5187  0.6418  1.1842
14127TIP3    H263873   5.192   4.559   2.925  2.4909  2.4771 -1.2176
14128TIP3   OH263874   1.005   2.920  16.867 -0.3046 -0.4095 -0.1939
14128TIP3    H163875   1.097   2.937  16.847 -0.1246 -0.6336  0.4222
14128TIP3    H263876   1.000   2.925  16.962 -0.8400 -0.8598 -0.1942
14129TIP3   OH263877   0.393   2.361  13.468  0.4961 -0.1991 -0.0332
14129TIP3    H163878   0.377   2.298  13.398  1.5217  0.6785 -1.0812
14129TIP3    H263879   0.420   2.307  13.542  0.8351 -1.0341 -0.7462
14130TIP3   OH263880   4.865   5.043  12.617  0.1667  0.2371 -1.1608
14130TIP3    H163881   4.886   5.116  12.560  2.3018  0.7616  0.1716
14130TIP3    H263882   4.847   5.083  12.702 -0.5091 -0.6682 -0.8614
14131TIP3   OH263883   3.009   1.108  13.750 -0.5046 -0.0402 -0.2491
14131TIP3    H163884   2.960   1.051  13.691 -0.9404  1.0663 -1.0003
14131TIP3    H263885   2.964   1.101  13.834 -2.1021  1.1051 -0.9750
14132TIP3   OH263886   6.211   0.854  16.822  0.2111 -0.2785 -0.1503
14132TIP3    H163887   6.127   0.891  16.849  0.0502 -1.0306  0.4260
14132TIP3    H263888   6.269   0.929  16.813 -0.2435  0.1582  0.4940
14133TIP3   OH263889   6.295   6.037   0.913 -0.0271 -0.0629  0.4942
14133TIP3    H163890   6.323   6.071   0.998  3.9939  1.0784 -1.0779
14133TIP3    H263891   6.261   6.113   0.866  1.3540  0.1458 -0.2019
14134TIP3   OH263892   1.540   5.108   4.031 -0.1268  0.1918 -0.0894
14134TIP3    H163893   1.612   5.120   4.092  0.3026 -0.8197 -0.3759
14134TIP3    H263894   1.498   5.194   4.027 -1.2388 -0.0827  2.9364
14135TIP3   OH263895   0.010   1.226   5.148  0.5267  0.1436  0.3735
14135TIP3    H163896   0.002   1.283   5.071  1.6084  1.3248  1.0906
14135TIP3    H263897   0.027   1.286   5.221 -0.4450 -0.9478  1.5475
14136TIP3   OH263898   6.670   3.544   5.778  0.6990 -0.3621 -0.6577
14136TIP3    H163899   6.669   3.546   5.874  2.1497  0.0620 -0.6373
14136TIP3    H263900   6.615   3.618   5.752  1.8353  0.6875 -0.1302
14137TIP3   OH263901   2.447   1.798  16.338  0.2841 -0.3802 -0.1559
14137TIP3    H163902   2.504   1.769  16.409  2.1862 -1.5389 -2.0332
14137TIP3    H263903   2.463   1.892  16.330  2.5971 -0.7950 -1.1077
14138TIP3   OH263904   5.587   0.515   5.081 -0.1671  0.0335 -0.5735
14138TIP3    H163905   5.661   0.558   5.037  1.6480 -2.0103  0.2896
14138TIP3    H263906   5.561   0.578   5.149  2.6041 -0.2305  0.8583
14139TIP3   OH263907   4.661   1.287  13.907 -0.1920 -0.7893 -0.1093
14139TIP3    H163908   4.698   1.228  13.972 -1.3494 -1.1941  0.2054
14139TIP3    H263909   4.567   1.271  13.911 -0.4054  0.1716 -0.9156
14140TIP3   OH263910   2.275   4.735   0.230 -0.3925 -0.0953  0.2325
14140TIP3    H163911   2.190   4.715   0.269 -0.3627 -0.1930  0.2478
14140TIP3    H263912   2.255   4.779   0.147 -0.4613  0.8211  0.7135
14141TIP3   OH263913   1.277   6.083  14.412  0.1287 -0.3482  0.2376
14141TIP3    H163914   1.296   5.989  14.414  0.9316 -0.2439 -1.1140
14141TIP3    H263915   1.356   6.124  14.447  0.1537 -0.1330 -0.0717
14142TIP3   OH263916   1.029   0.584   2.894  0.0359  0.3532  0.6865
14142TIP3    H163917   0.966   0.630   2.838 -0.2458  0.9005  1.4298
14142TIP3    H263918   1.012   0.619   2.982  1.3917  0.5295  0.8985
14143TIP3   OH263919   3.006   3.689   4.347 -0.3123 -0.0309  0.8716
14143TIP3    H163920   2.993   3.624   4.278 -0.4133  0.3979  0.4863
14143TIP3    H263921   2.961   3.767   4.316  0.7858  0.5943  0.7945
14144TIP3   OH263922   3.941   3.949   2.831  0.2928  0.2183  0.6249
14144TIP3    H163923   3.948   3.914   2.743  0.1947  1.2913  0.1665
14144TIP3    H263924   3.932   3.873   2.888 -0.1170 -0.4649 -0.3412
14145TIP3   OH263925   6.251   4.850  15.989  0.3579  0.3122 -0.1621
14145TIP3    H163926   6.168   4.896  15.998  0.0819 -0.2887  0.5362
14145TIP3    H263927   6.313   4.917  15.960 -0.3157  0.8152 -0.4674
14146TIP3   OH263928   1.617   3.261  14.969  0.0101 -0.3702 -0.0293
14146TIP3    H163929   1.651   3.231  14.884  0.5930 -1.3088  0.5195
14146TIP3    H263930   1.657   3.347  14.982  1.1139 -0.8660 -0.0302
14147TIP3   OH263931   4.928   6.662   0.949 -0.2677 -0.4675 -0.2284
14147TIP3    H163932   4.890   6.633   0.866 -2.4639 -1.8935  1.1617
14147TIP3    H263933   4.940   6.581   0.999 -1.5187  0.5265  1.8091
14148TIP3   OH263934   0.882   2.009   0.487 -0.2686  0.2173  0.2660
14148TIP3    H163935   0.938   1.939   0.452 -0.3582  0.6040 -0.6572
14148TIP3    H263936   0.904   2.012   0.580 -0.7562 -1.5052  0.4686
14149TIP3   OH263937   4.927   2.914  13.806 -0.5417  0.0487 -0.3355
14149TIP3    H163938   5.000   2.880  13.858 -0.1421  0.4726 -0.6019
14149TIP3    H263939   4.954   2.900  13.715 -1.8582 -1.9973 -0.4617
14150TIP3   OH263940   5.759   4.938   2.865  0.0733 -0.1528  0.5143
14150TIP3    H163941   5.680   4.990   2.853  0.5099  0.4096  0.0320
14150TIP3    H263942   5.831   5.002   2.866  0.3684 -0.3909  3.2143
14151TIP3   OH263943   0.635   3.631   5.151  0.3458  0.7712  0.4009
14151TIP3    H163944   0.589   3.715   5.140  0.0293  0.4850 -0.5980
14151TIP3    H263945   0.570   3.574   5.191  0.3781  0.8481  0.5621
14152TIP3   OH263946   5.635   0.127  10.834  0.2850  0.0874  0.3413
14152TIP3    H163947   5.574   0.192  10.801 -0.3198 -0.1697  0.9455
14152TIP3    H263948   5.586   0.044  10.831  0.8159 -0.2291  0.2240
14153TIP3   OH263949   1.181   5.276   0.294  0.3480 -0.4594  0.1751
14153TIP3    H163950   1.199   5.345   0.230 -2.8396  1.9241  1.6026
14153TIP3    H263951   1.162   5.199   0.241 -1.3996  1.2009 -1.8080
14154TIP3   OH263952   4.530   1.608  10.704 -0.3348  0.6252 -0.0181
14154TIP3    H163953   4.468   1.565  10.763  0.8035 -1.9679 -0.5657
14154TIP3    H263954   4.596   1.645  10.762  1.1703 -2.5205  0.4981
14155TIP3   OH263955   6.271   1.255  11.505 -0.3587  0.2329 -0.0655
14155TIP3    H163956   6.270   1.240  11.410 -0.0519  0.0508 -0.0414
14155TIP3    H263957   6.351   1.211  11.535 -1.4569 -1.4498  0.5595
14156TIP3   OH263958   5.428   6.628  12.968 -0.3993 -0.4760  0.4870
14156TIP3    H163959   5.377   6.557  13.007  1.6656 -2.0286  0.5054
14156TIP3    H263960   5.495   6.584  12.917  0.2107  1.5055 -0.5122
14157TIP3   OH263961   6.113   2.134   1.032  0.0085 -0.3614 -0.2891
14157TIP3    H163962   6.185   2.085   1.073  0.6902  0.8717  0.0553
14157TIP3    H263963   6.067   2.175   1.106 -0.1742 -0.0031 -0.6008
14158TIP3   OH263964   0.660   4.846   0.497 -0.0471  0.0247 -0.3210
14158TIP3    H163965   0.619   4.889   0.422  2.1464 -0.2128 -1.7571
14158TIP3    H263966   0.685   4.760   0.463  0.4490 -0.3155  0.8745
14159TIP3   OH263967   2.152   0.096   4.301 -0.7342 -0.6417 -0.1863
14159TIP3    H163968   2.093   0.050   4.362  1.3846 -1.5077  1.3439
14159TIP3    H263969   2.197   0.025   4.255  0.7162 -0.0955  0.3333
14160TIP3   OH263970   0.822   0.958  14.302 -0.6197 -0.1983  0.1560
14160TIP3    H163971   0.794   0.868  14.318 -0.2379 -0.3518 -0.0229
14160TIP3    H263972   0.761   1.012  14.353 -0.8776 -0.5547  0.2257
14161TIP3   OH263973   0.555   0.898   5.767  0.0841 -0.3703 -0.0811
14161TIP3    H163974   0.500   0.834   5.812 -0.6528 -0.8983 -1.6476
14161TIP3    H263975   0.529   0.982   5.802 -0.5233 -0.7580  0.4149
14162TIP3   OH263976   3.612   6.378  11.971  0.4643 -0.1089 -0.1825
14162TIP3    H163977   3.568   6.463  11.973 -0.1851 -0.4473  1.8712
14162TIP3    H263978   3.694   6.391  12.017  1.2895 -0.1677 -1.5689
14163TIP3   OH263979   5.588   4.222   1.011  0.1388 -0.6308  0.3945
14163TIP3    H163980   5.543   4.294   1.055 -0.3662 -0.9823  0.4667
14163TIP3    H263981   5.552   4.143   1.052 -2.6716 -1.1539 -2.6622
14164TIP3   OH263982   0.675   4.449   5.974 -0.2926 -0.2275 -0.3110
14164TIP3    H163983   0.754   4.473   5.926  0.1513 -0.0928  0.4736
14164TIP3    H263984   0.607   4.442   5.907 -0.1484  1.9226 -0.7533
14165TIP3   OH263985   0.838   4.009  16.113  0.0134  0.5492 -0.6230
14165TIP3    H163986   0.906   3.995  16.178 -0.6094  0.2152 -0.0410
14165TIP3    H263987   0.756   3.990  16.158 -0.4975  1.2294 -1.2331
14166TIP3   OH263988   5.648   6.606  14.241  0.4786  0.0322 -0.0904
14166TIP3    H163989   5.661   6.549  14.165  1.4347  0.0033  0.0724
14166TIP3    H263990   5.583   6.561  14.294  0.3270 -0.3015 -0.5500
14167TIP3   OH263991   6.467   1.241   1.242 -0.4243  0.0327  0.2385
14167TIP3    H163992   6.519   1.295   1.301 -1.3315  1.6117 -0.3564
14167TIP3    H263993   6.428   1.175   1.299 -0.3011  0.7617  1.1951
14168TIP3   OH263994   1.078   0.453  14.441  0.7605 -1.1746 -0.2134
14168TIP3    H163995   0.997   0.482  14.483  1.0780  0.1758 -0.4768
14168TIP3    H263996   1.146   0.510  14.478  1.7476 -2.7837  0.5777
14169TIP3   OH263997   3.122   0.527  15.662 -0.5909  0.6204  0.1566
14169TIP3    H163998   3.146   0.492  15.576  1.3975  1.6785  0.2180
14169TIP3    H263999   3.050   0.587  15.644 -1.5660 -0.6948 -0.4544
14170TIP3   OH264000   0.487   3.611   3.188 -0.5363  0.0287  0.2740
14170TIP3    H164001   0.453   3.691   3.228  0.0100 -0.6303  2.1967
14170TIP3    H264002   0.491   3.548   3.261  0.6295 -1.2327 -0.8231
14171TIP3   OH264003   1.379   6.699   1.383  0.1452  0.5830  0.4126
14171TIP3    H164004   1.314   6.673   1.449 -0.9534  1.6606 -0.2023
14171TIP3    H264005   1.440   6.756   1.431  1.1355 -1.0510  1.1775
14172TIP3   OH264006   0.594   3.966  13.260 -0.2427 -0.0246  0.1712
14172TIP3    H164007   0.508   3.956  13.302 -0.3241  0.6273  0.1728
14172TIP3    H264008   0.595   3.900  13.190 -1.2644  0.8072 -0.6604
14173TIP3   OH264009   4.110   1.609  10.866 -0.5357 -0.1842  0.1055
14173TIP3    H164010   4.033   1.575  10.913 -1.7002  0.2264 -1.4101
14173TIP3    H264011   4.150   1.670  10.927 -0.6196 -1.3890  1.4386
14174TIP3   OH264012   2.078   4.492   6.157 -0.0366  0.0726  0.0466
14174TIP3    H164013   2.035   4.483   6.072 -1.3236  1.1374  0.5305
14174TIP3    H264014   2.033   4.566   6.198  2.8735  1.8716  0.2751
14175TIP3   OH264015   4.899   1.357  15.950 -0.1324 -0.0489  0.3786
14175TIP3    H164016   4.847   1.322  15.878  1.6046 -2.6194  0.2674
14175TIP3    H264017   4.966   1.291  15.966  0.8672  1.4470  2.9394
14176TIP3   OH264018   5.344   1.498   4.422  0.4798  0.7826 -0.1914
14176TIP3    H164019   5.293   1.545   4.356  1.0237  2.4219  0.5081
14176TIP3    H264020   5.360   1.412   4.383 -1.4186  0.7898 -1.0831
14177TIP3   OH264021   5.445   1.381   4.880  0.0913  0.1016 -0.3680
14177TIP3    H164022   5.507   1.450   4.903 -0.9385  0.9676 -0.1606
14177TIP3    H264023   5.385   1.422   4.818  0.7737 -1.2382 -2.0024
14178TIP3   OH264024   1.282   6.171  15.465  0.3395 -0.5616  0.2925
14178TIP3    H164025   1.237   6.243  15.509  2.4123 -0.1749  1.9416
14178TIP3    H264026   1.365   6.208  15.435  0.0806 -1.4930 -1.7272
14179TIP3   OH264027   1.287   0.091  15.798 -0.2245  0.8723 -0.0378
14179TIP3    H164028   1.236   0.035  15.856  0.8986  1.1346  1.2527
14179TIP3    H264029   1.224   0.156  15.766 -1.2666 -0.3779 -0.5894
14180TIP3   OH264030   1.640   6.403  16.730 -0.5493  0.3671 -0.6858
14180TIP3    H164031   1.604   6.450  16.806 -0.1244 -2.3093  1.3272
14180TIP3    H264032   1.734   6.399  16.746 -0.3300  0.4991 -1.8462
14181TIP3   OH264033   3.402   1.434  14.647  0.5825  0.1252  0.2259
14181TIP3    H164034   3.433   1.368  14.709  1.2243  0.5657  0.3905
14181TIP3    H264035   3.461   1.508  14.661  1.3781 -0.1127 -1.6049
14182TIP3   OH264036   0.171   4.911  17.609  0.2129 -0.3542  0.1531
14182TIP3    H164037   0.105   4.841  17.605 -0.0876 -0.1869  1.6510
14182TIP3    H264038   0.126   4.984  17.651  1.3360 -0.2416  1.2287
14183TIP3   OH264039   2.773   4.667  15.353  0.2355  0.1217 -0.0962
14183TIP3    H164040   2.683   4.693  15.376  0.5742  0.2702  1.1185
14183TIP3    H264041   2.769   4.571  15.350  0.1615  0.0963  0.5557
14184TIP3   OH264042   2.127   1.819   5.987 -0.4095 -0.0909  0.4815
14184TIP3    H164043   2.120   1.808   5.892  1.1397 -1.7888  0.4983
14184TIP3    H264044   2.205   1.768   6.011 -0.4930  0.6872  2.6087
14185TIP3   OH264045   2.118   4.840  13.763 -0.2325 -0.2379  0.0623
14185TIP3    H164046   2.100   4.934  13.769  2.4055  0.5170 -1.8899
14185TIP3    H264047   2.169   4.820  13.841  0.1004  0.2235 -0.0319
14186TIP3   OH264048   6.649   4.170  16.247  0.3408  0.0653  0.2342
14186TIP3    H164049   6.661   4.202  16.157  0.8140 -0.0607  0.2520
14186TIP3    H264050   6.636   4.249  16.299 -0.3285  0.1184 -0.0003
14187TIP3   OH264051   1.948   2.969   1.386  0.1794 -0.4501 -0.4045
14187TIP3    H164052   2.022   3.021   1.416  0.0774 -0.8838  0.6496
14187TIP3    H264053   1.920   3.011   1.305  1.7439 -0.4371 -0.9679
14188TIP3   OH264054   4.265   0.403  15.960 -0.2495  0.3691 -0.6547
14188TIP3    H164055   4.192   0.411  15.898 -0.6241 -1.9945 -0.6102
14188TIP3    H264056   4.246   0.468  16.027 -1.4103  0.9660 -1.5263
14189TIP3   OH264057   2.532   1.150  13.403 -0.6297 -0.3362 -0.3246
14189TIP3    H164058   2.437   1.152  13.392 -0.8059 -2.2586  0.4359
14189TIP3    H264059   2.548   1.206  13.479 -0.8742  1.6845 -1.6728
14190TIP3   OH264060   1.345   5.353  12.272  1.0715 -0.0435  0.8222
14190TIP3    H164061   1.347   5.315  12.359  1.3017  0.1761  0.9149
14190TIP3    H264062   1.426   5.404  12.266  0.5024  0.9121  0.9266
14191TIP3   OH264063   2.259   6.398   6.419 -0.0428  0.7240 -0.2382
14191TIP3    H164064   2.279   6.476   6.471  0.9232  1.1852 -1.2528
14191TIP3    H264065   2.340   6.380   6.371 -1.3167  1.3459 -2.8670
14192TIP3   OH264066   6.414   0.536  16.315  0.0630 -0.1913  0.2668
14192TIP3    H164067   6.339   0.483  16.342  0.0252 -0.7400 -0.8647
14192TIP3    H264068   6.391   0.569  16.228  1.4078 -0.9441 -0.4079
14193TIP3   OH264069   4.050   1.551  16.502 -0.6131 -0.0507 -0.7074
14193TIP3    H164070   4.119   1.490  16.476 -0.0126  0.6463 -0.7971
14193TIP3    H264071   4.047   1.545  16.597 -0.9774 -0.6646 -0.7583
14194TIP3   OH264072   6.168   6.097  16.328  0.0835  0.3788  0.6394
14194TIP3    H164073   6.257   6.124  16.350  0.4804 -0.9973  0.7687
14194TIP3    H264074   6.170   6.087  16.233  0.4564 -0.9532  0.7716
14195TIP3   OH264075   4.862   2.395  11.780 -0.3740 -0.3678 -0.1473
14195TIP3    H164076   4.821   2.479  11.799  1.3358  0.4556  0.0428
14195TIP3    H264077   4.865   2.391  11.685 -0.0912 -0.0154 -0.1560
14196TIP3   OH264078   4.869   4.663   3.347  0.3412 -0.0360 -0.2667
14196TIP3    H164079   4.921   4.705   3.416  0.8415 -0.0647 -0.6227
14196TIP3    H264080   4.923   4.591   3.316 -0.1701 -0.4437 -0.2310
14197TIP3   OH264081   1.916   5.106  11.176 -0.1766 -0.5446  0.2052
14197TIP3    H164082   1.887   5.193  11.151  1.7394 -0.1804 -0.9310
14197TIP3    H264083   1.861   5.046  11.125 -0.7940  0.0233  0.2021
14198TIP3   OH264084   2.480   5.012  15.691 -0.1619  0.7209  0.2996
14198TIP3    H164085   2.397   5.058  15.703 -0.3741  0.4718 -0.2035
14198TIP3    H264086   2.519   5.011  15.779 -2.2541 -2.1859  1.3808
14199TIP3   OH264087   6.156   3.762  12.472 -0.2108  0.0250  0.1355
14199TIP3    H164088   6.178   3.687  12.418  1.5488  0.5021  0.1234
14199TIP3    H264089   6.104   3.819  12.415  1.7196  0.5882 -1.1561
14200TIP3   OH264090   6.166   5.015  12.226  0.0280  0.3252 -0.1478
14200TIP3    H164091   6.085   5.052  12.191  0.5422  1.9156  0.2666
14200TIP3    H264092   6.157   4.920  12.214 -1.7709  0.5003 -0.3469
14201TIP3   OH264093   2.386   4.700  14.836  0.0968  0.6594  0.5920
14201TIP3    H164094   2.417   4.788  14.811  4.4482 -1.2520 -2.0071
14201TIP3    H264095   2.346   4.666  14.756 -0.3467 -0.1955  1.1692
14202TIP3   OH264096   4.524   0.094  17.236 -0.1169 -0.1838  0.8793
14202TIP3    H164097   4.465   0.137  17.173 -0.3227 -0.2813  1.0014
14202TIP3    H264098   4.492   0.004  17.240  1.1399 -0.7233 -0.3863
14203TIP3   OH264099   0.203   6.654   2.621 -0.4400 -0.1362 -0.0956
14203TIP3    H164100   0.108   6.643   2.629 -0.3514 -0.8385  0.0985
14203TIP3    H264101   0.235   6.567   2.599  0.1702  0.0757 -0.0590
14204TIP3   OH264102   0.173   5.574  11.061  0.6597  0.5258 -0.3622
14204TIP3    H164103   0.191   5.605  10.971 -1.8685  1.1590 -0.7088
14204TIP3    H264104   0.106   5.508  11.051  0.8676  0.0742  1.0410
14205TIP3   OH264105   0.276   1.038   0.416  0.5735  0.2226 -0.0434
14205TIP3    H164106   0.281   1.114   0.358  1.2498  0.7763  0.7072
14205TIP3    H264107   0.229   1.071   0.493 -2.7247 -1.1868 -1.2574
14206TIP3   OH264108   2.466   4.318   2.945 -0.0322  0.4782  0.0028
14206TIP3    H164109   2.548   4.367   2.953 -0.0951  0.7232 -0.8280
14206TIP3    H264110   2.398   4.385   2.942 -0.0890  0.3878 -1.5599
14207TIP3   OH264111   2.673   3.507  16.671  0.1744  0.4724 -0.3865
14207TIP3    H164112   2.734   3.492  16.743  1.1457  1.0602 -1.0626
14207TIP3    H264113   2.591   3.468  16.700  0.8243 -0.1812  0.6197
14208TIP3   OH264114   0.666   6.048   3.460 -0.0795  0.1640  0.0011
14208TIP3    H164115   0.604   5.992   3.415  0.7740 -0.5327 -0.3459
14208TIP3    H264116   0.748   5.998   3.462  0.4280  0.9680  0.6135
14209TIP3   OH264117   6.367   5.280   1.556 -0.1865  0.6013  0.8412
14209TIP3    H164118   6.399   5.359   1.513 -1.3709 -0.7874 -2.9821
14209TIP3    H264119   6.273   5.296   1.568  0.0058  0.6877  2.3608
14210TIP3   OH264120   5.816   6.371  15.549 -0.2594  0.1848  0.4822
14210TIP3    H164121   5.866   6.440  15.592  1.0306 -0.7331  0.5253
14210TIP3    H264122   5.744   6.416  15.505  0.4447  1.5165  0.6690
14211TIP3   OH264123   2.695   3.575   5.705  0.0080 -0.2506  0.2678
14211TIP3    H164124   2.678   3.620   5.788 -0.5373  0.3946 -0.1883
14211TIP3    H264125   2.666   3.636   5.638  0.1032 -0.9201 -0.3922
14212TIP3   OH264126   0.847   0.329  13.246 -0.0779  0.1753 -0.4225
14212TIP3    H164127   0.845   0.347  13.340  0.3785  0.0709 -0.3943
14212TIP3    H264128   0.830   0.415  13.206  0.1072  0.2921 -0.2531
14213TIP3   OH264129   3.927   0.327  14.477 -0.1590 -0.6778  0.1206
14213TIP3    H164130   3.963   0.413  14.456 -2.2807 -0.3679 -3.0567
14213TIP3    H264131   3.988   0.265  14.436 -0.1555 -0.4840 -0.1726
14214TIP3   OH264132   2.143   2.795   0.843  0.2379  0.0675  0.2270
14214TIP3    H164133   2.099   2.860   0.788 -0.6219  0.2923  1.1674
14214TIP3    H264134   2.164   2.843   0.923  0.1207 -0.6680  0.6969
14215TIP3   OH264135   2.744   4.978   1.986 -0.6419  0.1676  0.7481
14215TIP3    H164136   2.698   5.044   2.038 -0.6580  0.8657 -0.1344
14215TIP3    H264137   2.789   5.028   1.918 -1.4510 -0.7806 -0.5469
14216TIP3   OH264138   1.640   0.801  12.876 -0.0351 -0.7349  0.0582
14216TIP3    H164139   1.550   0.808  12.845  0.4292 -1.3995 -1.5632
14216TIP3    H264140   1.632   0.777  12.968 -1.4968  0.7514  0.3739
14217TIP3   OH264141   3.153   6.427   3.115  0.5347  0.3995 -0.2902
14217TIP3    H164142   3.071   6.467   3.143  0.7229  0.6307 -0.0638
14217TIP3    H264143   3.217   6.455   3.181  0.6535 -0.3391 -0.0828
14218TIP3   OH264144   2.104   1.504  14.681 -0.3341 -0.1113  0.0437
14218TIP3    H164145   2.088   1.598  14.682  0.6504  0.0884 -1.0860
14218TIP3    H264146   2.102   1.480  14.588 -0.7503 -1.2376  0.3277
14219TIP3   OH264147   4.971   4.005   4.688 -0.8539 -0.1011 -0.0206
14219TIP3    H164148   5.015   4.007   4.603 -0.7824 -0.0200  0.0188
14219TIP3    H264149   4.910   4.079   4.684  0.8751  1.4501  0.9388
14220TIP3   OH264150   2.830   5.837   3.170  0.3392  0.2901  0.1941
14220TIP3    H164151   2.908   5.886   3.195 -0.3859  1.8657 -0.5329
14220TIP3    H264152   2.766   5.903   3.146  0.0632 -0.9725 -3.0771
14221TIP3   OH264153   5.619   3.999   0.453 -0.1691  0.4043 -0.2014
14221TIP3    H164154   5.575   4.076   0.490 -0.4924  0.1613 -0.0853
14221TIP3    H264155   5.639   3.944   0.529 -0.1430  0.2641 -0.3094
14222TIP3   OH264156   6.334   4.350  16.277  0.2073 -0.2020 -0.2245
14222TIP3    H164157   6.300   4.333  16.190 -1.7405  1.5940  0.1058
14222TIP3    H264158   6.403   4.415  16.264 -1.9609  2.2345 -0.2886
14223TIP3   OH264159   4.490   6.180   5.610  0.2343 -0.3740 -0.0787
14223TIP3    H164160   4.484   6.088   5.583 -1.1937  0.0480 -1.3044
14223TIP3    H264161   4.402   6.215   5.597  0.5880  1.0073  1.0321
14224TIP3   OH264162   1.148   4.839   5.448 -0.5050 -0.5969 -0.4170
14224TIP3    H164163   1.147   4.884   5.364  0.4808  0.5518  0.1398
14224TIP3    H264164   1.125   4.749   5.428 -2.4496  0.1140 -1.6073
14225TIP3   OH264165   5.726   2.295   3.108  0.4536 -0.5481  0.4686
14225TIP3    H164166   5.718   2.362   3.041 -3.0257 -0.9475  0.2677
14225TIP3    H264167   5.768   2.221   3.063  0.7656  0.1543 -0.4234
14226TIP3   OH264168   3.750   6.219   5.179  0.5114  0.3038 -0.5405
14226TIP3    H164169   3.714   6.166   5.251 -2.0723  2.0222 -0.4629
14226TIP3    H264170   3.844   6.221   5.197  0.2129 -1.0935  1.5750
14227TIP3   OH264171   5.620   3.748  14.885 -0.0540 -0.4117 -0.3389
14227TIP3    H164172   5.557   3.675  14.885 -0.4766 -0.0543  0.3397
14227TIP3    H264173   5.699   3.711  14.925 -0.5133 -0.3039  0.6970
14228TIP3   OH264174   2.367   2.136   5.365 -0.3474  0.1527  0.3233
14228TIP3    H164175   2.339   2.220   5.329  2.8490  0.3822 -2.0497
14228TIP3    H264176   2.435   2.159   5.429 -0.4242 -0.6040  0.6865
14229TIP3   OH264177   0.064   3.424  12.317 -0.2155 -0.4706  0.0314
14229TIP3    H164178   0.127   3.356  12.291 -1.3260 -1.3090 -0.5271
14229TIP3    H264179   0.111   3.506  12.303  0.9876 -1.0903  0.2506
14230TIP3   OH264180   0.764   4.000  16.966  0.3823  0.1223 -0.1092
14230TIP3    H164181   0.773   3.996  17.061 -1.6831  2.2430  0.2393
14230TIP3    H264182   0.853   4.017  16.935  1.0932 -0.5942  1.4014
14231TIP3   OH264183   5.546   2.087  14.198 -0.6257 -0.3236  0.6260
14231TIP3    H164184   5.503   2.078  14.282  0.7524  1.7261  1.6257
14231TIP3    H264185   5.616   2.021  14.200 -0.6033 -0.2861  1.0792
14232TIP3   OH264186   1.948   2.219   4.498  0.2719  0.1804 -0.3102
14232TIP3    H164187   1.856   2.233   4.521  0.3196  0.5378 -0.3348
14232TIP3    H264188   1.950   2.131   4.460 -0.7614  1.5416 -3.9160
14233TIP3   OH264189   4.031   4.625  13.206 -0.5181  0.1531  0.0920
14233TIP3    H164190   4.098   4.599  13.144 -0.0661 -2.5542  1.5450
14233TIP3    H264191   3.964   4.667  13.153  0.2952 -1.1450 -2.0917
14234TIP3   OH264192   2.415   5.773  13.204 -0.5744  0.0625  0.2109
14234TIP3    H164193   2.440   5.790  13.113 -2.5407  0.5097 -0.2976
14234TIP3    H264194   2.495   5.788  13.254  0.4830  0.0947 -1.3986
14235TIP3   OH264195   3.218   2.224  14.351 -0.5458 -0.6398  0.3557
14235TIP3    H164196   3.253   2.294  14.296  1.2637 -0.9201  1.0975
14235TIP3    H264197   3.141   2.263  14.393  0.0393  0.6747  0.2448
14236TIP3   OH264198   5.051   3.711   6.010 -0.0400 -0.2572 -0.0111
14236TIP3    H164199   5.105   3.632   6.007 -1.6219 -1.3707 -0.5786
14236TIP3    H264200   5.081   3.757   6.088  0.6603 -1.6216  0.5632
14237TIP3   OH264201   1.107   5.943   0.718  0.6634  0.1828 -0.2682
14237TIP3    H164202   1.193   5.902   0.731 -0.0157 -1.1192  0.2234
14237TIP3    H264203   1.046   5.870   0.711 -0.4498  1.0989 -0.3904
14238TIP3   OH264204   5.033   1.395   6.147  0.1894 -0.2168 -1.0204
14238TIP3    H164205   5.021   1.481   6.187 -0.1633 -0.3985 -0.7286
14238TIP3    H264206   4.993   1.333   6.209  1.0395 -0.6656 -0.9044
14239TIP3   OH264207   4.071   1.415  17.227 -0.1179 -0.0562 -0.1218
14239TIP3    H164208   4.091   1.362  17.150 -0.0448  1.3924 -1.1517
14239TIP3    H264209   4.154   1.456  17.251 -0.2661 -0.0285  0.3638
14240TIP3   OH264210   2.454   1.792   4.086 -0.3777  0.3034  0.3741
14240TIP3    H164211   2.393   1.825   4.020 -1.7153  0.1996  1.5080
14240TIP3    H264212   2.487   1.870   4.129  0.0432  0.3449 -0.0176
14241TIP3   OH264213   2.353   2.162   3.385  0.1295  0.0987  0.5069
14241TIP3    H164214   2.391   2.085   3.428  0.7050  1.6635  3.0560
14241TIP3    H264215   2.260   2.142   3.378  0.3205 -0.9591  0.8104
14242TIP3   OH264216   4.824   2.457   2.875  0.6616 -0.4628  0.0678
14242TIP3    H164217   4.769   2.404   2.932  1.5278 -1.9603 -0.4002
14242TIP3    H264218   4.870   2.516   2.934 -0.4292 -0.1280  0.6011
14243TIP3   OH264219   6.676   0.781  15.961  0.0335 -0.0407  0.0924
14243TIP3    H164220   6.735   0.855  15.977  1.8941 -1.7351  1.4232
14243TIP3    H264221   6.706   0.744  15.878  3.3993 -2.9958  2.3334
14244TIP3   OH264222   1.190   4.259  11.959  0.0299  0.7958  0.1915
14244TIP3    H164223   1.215   4.232  12.047 -0.0044  3.9234  1.2839
14244TIP3    H264224   1.137   4.186  11.926  0.8642 -0.8946  2.3381
14245TIP3   OH264225   2.309   4.016  13.727  0.3418 -0.3714 -0.2442
14245TIP3    H164226   2.230   4.041  13.775 -0.1407 -1.9193 -0.1629
14245TIP3    H264227   2.379   4.020  13.792  0.5223  1.7646 -0.4991
14246TIP3   OH264228   0.853   4.126   4.125  0.0486  0.3531  0.1296
14246TIP3    H164229   0.920   4.194   4.127  0.6149 -0.1944  0.1007
14246TIP3    H264230   0.862   4.086   4.039  2.3776 -2.3294  1.4494
14247TIP3   OH264231   4.990   1.840  12.477  0.1285 -0.7279  0.3596
14247TIP3    H164232   4.934   1.814  12.550 -2.9205 -0.8467 -1.8180
14247TIP3    H264233   4.996   1.936  12.484  0.4922 -0.7976  1.1334
14248TIP3   OH264234   5.943   1.972   0.313  0.6019 -0.2092 -0.1140
14248TIP3    H164235   6.017   2.000   0.259  1.4295 -1.9237  0.0462
14248TIP3    H264236   5.963   2.002   0.401 -0.8156  2.7187 -0.6684
14249TIP3   OH264237   6.035   2.316  16.957  0.0297 -0.8111  0.0748
14249TIP3    H164238   6.105   2.270  17.004  0.8156 -2.6064 -2.5706
14249TIP3    H264239   5.955   2.272  16.985  0.3940 -1.3835  0.2383
14250TIP3   OH264240   6.102   5.007   6.935 -0.4866  0.5406 -0.4209
14250TIP3    H164241   6.076   5.090   6.895 -2.2766 -0.1149 -0.7227
14250TIP3    H264242   6.195   4.999   6.916 -0.3414  2.3345 -0.6326
14251TIP3   OH264243   1.018   0.580  14.992  0.2178 -0.5922 -0.3878
14251TIP3    H164244   1.056   0.621  15.070  0.7868 -0.8448 -0.5199
14251TIP3    H264245   0.928   0.612  14.989  0.9625  1.6146 -1.1698
14252TIP3   OH264246   4.350   6.559   6.475 -0.2265  0.0725 -0.5697
14252TIP3    H164247   4.403   6.627   6.432  0.9503 -1.2768 -1.3198
14252TIP3    H264248   4.393   6.545   6.559 -0.8959  0.7502 -0.1076
14253TIP3   OH264249   1.341   2.986  12.746  0.0693  0.7889 -0.1706
14253TIP3    H164250   1.325   2.924  12.675 -1.0992 -0.6469  1.2382
14253TIP3    H264251   1.419   3.033  12.721  0.4018 -0.5539 -1.8157
14254TIP3   OH264252   2.545   0.619  15.267 -0.5368  0.4117  0.5908
14254TIP3    H164253   2.612   0.609  15.200  1.6386 -1.3122  2.8147
14254TIP3    H264254   2.527   0.713  15.270 -1.7915  0.4673 -3.1867
14255TIP3   OH264255   0.266   6.421   4.294 -0.1820  0.2561  0.0055
14255TIP3    H164256   0.217   6.394   4.371 -0.0310  1.2788  0.4732
14255TIP3    H264257   0.241   6.512   4.280  2.6303  1.3408  1.1447
14256TIP3   OH264258   4.827   6.383   3.709  0.4410  0.5694  0.4342
14256TIP3    H164259   4.847   6.302   3.756  1.7038  1.1189  0.8979
14256TIP3    H264260   4.871   6.452   3.760 -2.4489  1.8856  1.3314
14257TIP3   OH264261   4.286   4.056   3.456  0.3156  0.0502 -0.1127
14257TIP3    H164262   4.323   3.998   3.522 -0.4754 -0.2597  0.0639
14257TIP3    H264263   4.212   4.098   3.499  0.6989  0.9791 -0.3335
14258TIP3   OH264264   4.659   2.099   0.388  0.1171  0.2991 -0.2300
14258TIP3    H164265   4.720   2.172   0.380  0.6969 -0.1919 -0.3287
14258TIP3    H264266   4.689   2.034   0.325  1.5532 -1.3838  2.0063
14259TIP3   OH264267   0.569   4.790   3.248 -0.5753  0.0241 -0.3989
14259TIP3    H164268   0.529   4.850   3.311 -0.1082  0.2949 -0.3496
14259TIP3    H264269   0.569   4.838   3.165  0.3503  0.3464 -0.2278
14260TIP3   OH264270   6.375   6.217  15.365 -0.1530 -0.0393  0.7243
14260TIP3    H164271   6.466   6.198  15.343 -0.2900  2.2094 -2.4856
14260TIP3    H264272   6.376   6.236  15.459  2.7373  0.2063  0.7205
14261TIP3   OH264273   5.271   1.901   6.799  0.4138 -0.2714  0.6510
14261TIP3    H164274   5.251   1.944   6.716  0.6917 -0.2806  0.5783
14261TIP3    H264275   5.258   1.808   6.782  0.6967 -0.2944  0.5494
14262TIP3   OH264276   6.636   2.270  16.603  0.3172 -0.1747 -0.3028
14262TIP3    H164277   6.672   2.182  16.605 -2.4581 -1.4275 -0.7538
14262TIP3    H264278   6.541   2.257  16.599 -0.2535  2.8609  0.8464
14263TIP3   OH264279   3.778   0.184   1.905  0.7258  0.0559 -0.5020
14263TIP3    H164280   3.799   0.273   1.935 -1.7843  0.4697  0.2907
14263TIP3    H264281   3.837   0.128   1.954 -0.1487  1.0659  1.8471
14264TIP3   OH264282   6.006   1.807  14.779  0.5803 -0.6235 -0.1783
14264TIP3    H164283   5.983   1.778  14.691 -0.4199 -0.2827 -0.0437
14264TIP3    H264284   6.017   1.901  14.771  0.7222 -0.6245  0.0073
14265TIP3   OH264285   0.166   4.664  16.846 -0.1717 -0.4690 -0.2658
14265TIP3    H164286   0.139   4.574  16.863  0.3295 -0.4024  1.0458
14265TIP3    H264287   0.092   4.717  16.876  0.0913 -0.4041  0.2832
14266TIP3   OH264288   3.657   3.534  15.818  0.1105  0.9620  0.0434
14266TIP3    H164289   3.625   3.603  15.760 -0.7055  1.0377  0.5718
14266TIP3    H264290   3.735   3.572  15.860  0.9451  0.7628 -1.2808
14267TIP3   OH264291   6.254   5.235  14.908  0.5199  0.0445 -1.2285
14267TIP3    H164292   6.350   5.226  14.904  0.6101  0.5294 -0.4522
14267TIP3    H264293   6.240   5.312  14.963 -0.3261 -0.0927 -1.2418
14268TIP3   OH264294   3.208   4.730  13.305 -0.0640 -0.1592 -0.2866
14268TIP3    H164295   3.133   4.673  13.321  0.0813 -0.3625 -0.3159
14268TIP3    H264296   3.244   4.747  13.392 -1.1430  1.3341 -0.0990
14269TIP3   OH264297   3.891   0.613   4.484 -0.6428 -0.6380 -0.1285
14269TIP3    H164298   3.935   0.537   4.521 -1.2727 -0.2904  1.3829
14269TIP3    H264299   3.960   0.679   4.476 -0.5312 -0.6610  0.5988
14270TIP3   OH264300   5.265   2.831  16.457 -0.0509  0.2367 -0.0023
14270TIP3    H164301   5.296   2.904  16.404  0.5939  0.6015  0.8541
14270TIP3    H264302   5.274   2.862  16.547 -1.0374 -0.4022  0.3336
14271TIP3   OH264303   4.623   2.626  14.623  0.0332 -0.1356  0.2254
14271TIP3    H164304   4.685   2.630  14.550  0.9053  0.2898  0.9737
14271TIP3    H264305   4.557   2.562  14.594 -1.2331  2.0441 -2.1014
14272TIP3   OH264306   5.960   5.053  15.327  0.0016  0.0262 -0.2429
14272TIP3    H164307   5.966   5.099  15.243  0.3860 -1.4849 -1.0945
14272TIP3    H264308   5.876   5.007  15.323  0.0269 -0.0612  0.1940
14273TIP3   OH264309   5.389   2.669   5.860  0.3650 -0.1783  0.5174
14273TIP3    H164310   5.307   2.622   5.878  0.2519 -0.3206 -0.3220
14273TIP3    H264311   5.457   2.602   5.870  0.3895 -0.0558  1.2329
14274TIP3   OH264312   5.255   3.023   2.590 -0.7086  0.0152  0.0628
14274TIP3    H164313   5.257   3.023   2.686 -0.4015 -0.0104  0.0572
14274TIP3    H264314   5.240   2.932   2.566  0.1915 -0.1489  0.0731
14275TIP3   OH264315   2.847   3.060  14.046  0.0477  0.3831  0.0972
14275TIP3    H164316   2.810   3.052  14.134  1.5415  1.2175  0.8511
14275TIP3    H264317   2.911   2.990  14.040 -1.0095 -0.5348 -0.8797
14276TIP3   OH264318   2.326   2.574   5.059  0.1579 -0.4930 -0.3157
14276TIP3    H164319   2.318   2.589   4.965  0.5780  0.0955 -0.2633
14276TIP3    H264320   2.391   2.504   5.066 -0.1237 -0.7693 -0.4787
14277TIP3   OH264321   5.591   3.526  17.282  0.2210  0.2281  0.4723
14277TIP3    H164322   5.654   3.519  17.210 -0.9139 -0.6208 -0.4727
14277TIP3    H264323   5.592   3.618  17.306  0.9114  0.4468 -0.3539
14278TIP3   OH264324   0.741   6.081   6.108 -0.3160  0.0101  0.3640
14278TIP3    H164325   0.748   6.155   6.169  0.2670  0.1251  0.1647
14278TIP3    H264326   0.701   6.011   6.160 -0.1079  0.2059  0.7957
14279TIP3   OH264327   3.599   6.278  11.320 -0.1120  0.6579  0.4687
14279TIP3    H164328   3.597   6.315  11.231  0.9423 -0.5343 -0.0852
14279TIP3    H264329   3.511   6.294  11.355 -0.5221  1.2092 -0.7595
14280TIP3   OH264330   2.963   1.273  14.344  0.2518  0.2955 -0.5390
14280TIP3    H164331   2.890   1.221  14.309 -0.5661  2.8650 -3.0611
14280TIP3    H264332   2.928   1.362  14.352  2.4888  1.1671  0.4019
14281TIP3   OH264333   1.615   3.989  12.523 -0.4792  0.1826 -0.0987
14281TIP3    H164334   1.592   4.058  12.461 -2.0316  0.1060  0.3686
14281TIP3    H264335   1.679   3.935  12.476  1.1155  2.1516 -0.3198
14282TIP3   OH264336   0.795   2.267  12.388  0.1944 -0.7787  0.3345
14282TIP3    H164337   0.759   2.316  12.462  0.2942  0.1092 -0.1929
14282TIP3    H264338   0.720   2.254  12.329  0.6212  0.8004 -0.6180
14283TIP3   OH264339   2.797   3.068   5.146 -0.1100 -0.7032 -0.3204
14283TIP3    H164340   2.774   3.161   5.135  0.2967 -0.3906  1.1705
14283TIP3    H264341   2.849   3.047   5.069  2.5997  1.2647  0.8027
14284TIP3   OH264342   0.118   3.186  12.071  0.4974 -0.1218  0.4219
14284TIP3    H164343   0.024   3.180  12.056  0.7203 -1.8080 -0.4890
14284TIP3    H264344   0.135   3.127  12.144  0.7997  0.5236  0.8828
14285TIP3   OH264345   4.051   2.950  17.477  0.1547  0.2501 -0.1769
14285TIP3    H164346   3.983   2.887  17.500  0.7310  0.2107  1.6180
14285TIP3    H264347   4.008   3.012  17.418 -1.3976  0.1295  0.7732
14286TIP3   OH264348   3.571   4.531  15.138  0.5601 -0.0735  0.0122
14286TIP3    H164349   3.531   4.445  15.153  2.2566 -0.5947  2.1182
14286TIP3    H264350   3.592   4.532  15.044 -0.6098 -1.4301 -0.2919
14287TIP3   OH264351   2.640   6.387   4.884  0.1617  0.4094  0.5345
14287TIP3    H164352   2.606   6.430   4.962 -0.3373  2.3571 -0.6864
14287TIP3    H264353   2.636   6.293   4.904 -0.7376  0.8249  2.4990
14288TIP3   OH264354   2.753   5.539  13.315 -0.3504 -0.8047 -0.7291
14288TIP3    H164355   2.720   5.526  13.226  0.8149  0.2787 -1.3465
14288TIP3    H264356   2.834   5.490  13.319  1.6528  2.1390 -1.5989
14289TIP3   OH264357   4.579   0.021  17.662  0.1338  0.3156 -0.8087
14289TIP3    H164358   4.505  -0.038  17.650 -1.9061  2.5619 -0.1539
14289TIP3    H264359   4.639  -0.026  17.720 -0.6792 -1.6503 -1.4996
14290TIP3   OH264360   5.723   3.475   6.768 -0.2060 -0.4934  0.5044
14290TIP3    H164361   5.744   3.568   6.777 -1.3904  0.5339 -4.6187
14290TIP3    H264362   5.808   3.433   6.749 -0.1007  0.1181 -0.3913
14291TIP3   OH264363   3.588   5.114   0.787  0.3296  0.5781 -0.0192
14291TIP3    H164364   3.572   5.045   0.851 -0.3229 -0.7208 -1.5239
14291TIP3    H264365   3.519   5.102   0.721  1.3421  1.4866 -1.2911
14292TIP3   OH264366   0.604   2.251  14.450 -0.1113  0.3110  0.2729
14292TIP3    H164367   0.541   2.185  14.481 -0.5696  1.0656  1.0248
14292TIP3    H264368   0.558   2.334  14.463  1.3184  0.9439  1.5895
14293TIP3   OH264369   0.148   2.516  13.546  0.3658 -0.5939  0.1461
14293TIP3    H164370   0.154   2.612  13.549  1.0334 -0.6309  0.1327
14293TIP3    H264371   0.216   2.490  13.484 -0.1852 -1.0466 -0.2749
14294TIP3   OH264372   1.709   4.834   5.613  0.5839 -0.0534 -0.0305
14294TIP3    H164373   1.759   4.835   5.694  1.3697 -2.9037 -0.3947
14294TIP3    H264374   1.773   4.816   5.545 -0.0012  2.6541 -1.4409
14295TIP3   OH264375   0.851   1.809   3.921  0.2730  0.3016  0.5287
14295TIP3    H164376   0.809   1.773   3.843 -1.1547 -0.2865  1.5251
14295TIP3    H264377   0.840   1.904   3.913  2.5806  0.4987 -1.2880
14296TIP3   OH264378   5.100   1.593   4.670  0.2240  0.2785 -0.0487
14296TIP3    H164379   5.075   1.674   4.625  0.3150 -0.6395 -1.8672
14296TIP3    H264380   5.191   1.578   4.644 -0.3048 -1.2668 -1.1786
14297TIP3   OH264381   3.131   3.259   4.353 -0.3748 -0.3941 -0.3447
14297TIP3    H164382   3.105   3.336   4.403 -0.0221 -0.5381  0.0703
14297TIP3    H264383   3.198   3.217   4.408 -0.0721 -0.6198 -0.8835
14298TIP3   OH264384   2.888   4.866   0.957  0.0558  0.0610  0.0184
14298TIP3    H164385   2.902   4.870   0.863  0.7998 -0.9302  0.0659
14298TIP3    H264386   2.794   4.882   0.968  0.0196  0.5075 -0.8592
14299TIP3   OH264387   2.106   5.933  14.754  0.5749  0.0091  0.0053
14299TIP3    H164388   2.097   5.974  14.840 -0.5928  0.3101 -0.2505
14299TIP3    H264389   2.081   6.002  14.692  0.7544 -0.4126 -0.5428
14300TIP3   OH264390   1.600   6.049  11.624  0.6439 -0.3750  0.0048
14300TIP3    H164391   1.558   5.992  11.559  0.6266 -1.2323  0.7497
14300TIP3    H264392   1.692   6.054  11.595  0.4184  0.1193 -0.6678
14301TIP3   OH264393   1.183   3.439   3.952 -0.1043  0.1355 -0.2424
14301TIP3    H164394   1.102   3.488   3.965 -0.3536 -0.7117  1.7365
14301TIP3    H264395   1.237   3.462   4.028  1.3145  0.2668 -1.2451
14302TIP3   OH264396   6.089   0.594  10.973  0.3558 -0.2041 -0.7762
14302TIP3    H164397   6.130   0.562  10.893 -1.1312 -0.8400 -1.3062
14302TIP3    H264398   6.042   0.518  11.008 -0.4880  0.5328 -0.2627
14303TIP3   OH264399   3.644   0.363   2.929 -0.4085 -0.3080 -0.3238
14303TIP3    H164400   3.556   0.378   2.963 -0.1990  0.2875 -0.0249
14303TIP3    H264401   3.674   0.284   2.974  0.2772  1.0535  1.7711
14304TIP3   OH264402   2.454   1.860  13.327 -0.1364  0.0716  0.1032
14304TIP3    H164403   2.380   1.913  13.355 -1.4337 -1.6549  0.1199
14304TIP3    H264404   2.488   1.822  13.408  0.4544  0.4390  0.0372
14305TIP3   OH264405   3.717   2.589  14.835 -0.3922  0.0579  0.0242
14305TIP3    H164406   3.764   2.552  14.760 -0.9487  0.2743 -0.4458
14305TIP3    H264407   3.640   2.533  14.845 -0.7196  0.4820 -0.0621
14306TIP3   OH264408   3.834   5.603  15.218  0.3876  0.2896 -0.4328
14306TIP3    H164409   3.763   5.583  15.156  0.4451  1.2968 -0.8300
14306TIP3    H264410   3.913   5.569  15.175 -0.0182 -2.6341  0.8546
14307TIP3   OH264411   2.912   3.100  15.196  0.5080  0.1504  0.1544
14307TIP3    H164412   2.916   3.080  15.102 -0.1064 -0.5875  0.2734
14307TIP3    H264413   2.821   3.125  15.210  0.3496 -0.6933  0.7272
14308TIP3   OH264414   2.724   2.312  17.499  0.0368 -0.5957  0.7259
14308TIP3    H164415   2.643   2.329  17.547 -0.9255 -0.5167 -0.8588
14308TIP3    H264416   2.768   2.243  17.549 -0.9093 -0.5018  1.7062
14309TIP3   OH264417   2.868   2.261  15.840  0.0577  0.1654 -0.4360
14309TIP3    H164418   2.783   2.304  15.825  0.9453  1.2886 -2.5842
14309TIP3    H264419   2.933   2.328  15.822  1.4551 -0.9762  0.1273
14310TIP3   OH264420   1.179   4.650   3.213  0.4120  0.2315  0.4414
14310TIP3    H164421   1.144   4.727   3.167  0.8088  2.3659  3.4253
14310TIP3    H264422   1.253   4.683   3.263  2.1215 -2.6734  0.0823
14311TIP3   OH264423   4.694   4.185  13.961 -0.2198  0.8267 -0.3745
14311TIP3    H164424   4.620   4.216  14.013 -0.1859  1.3053 -0.5984
14311TIP3    H264425   4.733   4.116  14.013 -0.5389  0.8988 -0.0340
14312TIP3   OH264426   5.888   3.520  15.653 -0.7332  0.1065  0.3312
14312TIP3    H164427   5.929   3.544  15.737  0.5982 -0.3644 -0.1567
14312TIP3    H264428   5.892   3.424  15.651 -0.5962  0.1235 -0.3439
14313TIP3   OH264429   5.975   3.362   6.673  0.3635  0.3404  0.4522
14313TIP3    H164430   5.948   3.292   6.614 -1.0324  1.4542 -0.2894
14313TIP3    H264431   6.070   3.353   6.679  0.4269 -0.3879 -1.2143
14314TIP3   OH264432   0.732   1.830  13.336 -0.6427 -0.1523  0.1511
14314TIP3    H164433   0.812   1.834  13.285 -0.7600 -0.0024 -0.0238
14314TIP3    H264434   0.682   1.759  13.297 -0.9120  0.2309 -0.2102
14315TIP3   OH264435   0.915   5.531   0.848  0.1145 -0.1492 -0.4703
14315TIP3    H164436   0.923   5.500   0.939 -0.7412 -2.8666 -1.2031
14315TIP3    H264437   0.836   5.487   0.816 -0.6549  2.2091 -2.0291
14316TIP3   OH264438   0.383   3.524  14.016 -0.9969 -0.0908  0.3424
14316TIP3    H164439   0.404   3.526  13.923  0.0386  1.1740  0.5716
14316TIP3    H264440   0.456   3.570  14.058 -1.9808  0.3285  1.6590
14317TIP3   OH264441   3.413   1.332   0.567  0.5155  0.4395 -0.8117
14317TIP3    H164442   3.360   1.375   0.634  2.4098  1.1524  0.3141
14317TIP3    H264443   3.383   1.241   0.567 -1.3442  1.0147 -0.9418
14318TIP3   OH264444   1.253   1.994   2.615  0.3327 -0.0073 -0.5931
14318TIP3    H164445   1.281   2.052   2.545 -1.0423  0.4121 -0.8193
14318TIP3    H264446   1.207   1.922   2.571 -0.9430  0.4908 -0.1281
14319TIP3   OH264447   4.746   1.378   2.743 -0.1056  0.2972  0.7214
14319TIP3    H164448   4.789   1.299   2.776 -0.4369  0.5711  1.8472
14319TIP3    H264449   4.788   1.394   2.659  0.0523 -1.0055  0.5294
14320TIP3   OH264450   1.165   5.696   2.399 -0.4865  0.3956  0.3675
14320TIP3    H164451   1.122   5.655   2.324 -0.6337  1.0798  0.0689
14320TIP3    H264452   1.180   5.786   2.371  0.3905  0.3856  0.7830
14321TIP3   OH264453   4.583   6.018   3.196  0.6764  0.2176 -0.1213
14321TIP3    H164454   4.577   6.110   3.219  0.9689  0.4977 -1.1035
14321TIP3    H264455   4.493   5.986   3.202  0.3426  0.9263 -1.1456
14322TIP3   OH264456   3.985   4.636  14.452 -0.8223 -0.4352  0.5706
14322TIP3    H164457   4.039   4.690  14.395 -1.0384  1.4225  2.0258
14322TIP3    H264458   3.941   4.576  14.393 -1.4415  1.7442 -1.3345
14323TIP3   OH264459   2.158   3.232  13.850 -0.4052 -0.9495  0.6785
14323TIP3    H164460   2.226   3.229  13.783 -0.9354 -0.2882  0.0882
14323TIP3    H264461   2.113   3.315  13.834 -2.2323 -1.9819  0.1645
14324TIP3   OH264462   4.120   3.342   1.242  0.2690  0.3774  0.3819
14324TIP3    H164463   4.088   3.394   1.316 -0.3669 -0.6340  0.8327
14324TIP3    H264464   4.067   3.371   1.168  0.4278  0.8950  0.4688
14325TIP3   OH264465   6.184   4.954   6.321  0.5865  0.0960 -0.1856
14325TIP3    H164466   6.142   4.881   6.276  1.8881 -0.2580 -0.8872
14325TIP3    H264467   6.180   4.931   6.414 -0.1480 -0.2428 -0.2955
14326TIP3   OH264468   1.697   1.658  15.629  0.2984 -0.1115 -0.1082
14326TIP3    H164469   1.749   1.631  15.704 -0.2651  0.7002  0.5884
14326TIP3    H264470   1.752   1.639  15.553  0.1786 -2.6015  0.3644
14327TIP3   OH264471   3.391   0.701   2.278  0.2838 -0.7916  0.2399
14327TIP3    H164472   3.471   0.749   2.257  0.7837 -0.7457  2.0207
14327TIP3    H264473   3.333   0.716   2.204  0.7585  1.8100  0.2916
14328TIP3   OH264474   2.438   1.964  15.732 -0.8609 -0.3093  0.7056
14328TIP3    H164475   2.397   1.949  15.817  0.0729 -1.2972  1.0169
14328TIP3    H264476   2.513   1.904  15.731  1.1066  1.9971  0.5450
14329TIP3   OH264477   0.430   1.351  17.243  0.2847  0.2191 -0.0890
14329TIP3    H164478   0.507   1.408  17.239 -0.4585  1.4969  2.4036
14329TIP3    H264479   0.437   1.306  17.327 -0.4202 -1.6179 -0.9375
14330TIP3   OH264480   0.082   2.227  13.841  0.4870 -0.3529  0.2418
14330TIP3    H164481  -0.001   2.249  13.799 -0.3693 -1.2573  1.4207
14330TIP3    H264482   0.132   2.309  13.839 -0.1121  0.0090 -1.1435
14331TIP3   OH264483   4.817   1.215  11.683 -0.3335  0.4519  0.2799
14331TIP3    H164484   4.796   1.151  11.750 -1.1945 -1.1641 -1.4405
14331TIP3    H264485   4.749   1.204  11.617  0.1256  2.4059 -0.6004
14332TIP3   OH264486   5.075   1.638  11.438  0.0579  0.1107  0.3787
14332TIP3    H164487   5.079   1.637  11.534  1.5444 -0.4079  0.3363
14332TIP3    H264488   5.013   1.568  11.416  0.2759 -0.2707  0.9465
14333TIP3   OH264489   2.126   6.673  11.854  0.2720 -0.1829  0.0143
14333TIP3    H164490   2.100   6.619  11.929  1.7533  0.5953  1.1446
14333TIP3    H264491   2.174   6.613  11.797 -1.2266 -0.8841 -0.5581
14334TIP3   OH264492   1.042   5.284   2.724  0.3119 -0.0030 -0.8499
14334TIP3    H164493   1.078   5.366   2.690 -0.0210  0.6565  0.3407
14334TIP3    H264494   1.119   5.231   2.746  0.5375  0.3538 -0.7711
14335TIP3   OH264495   1.245   1.898  14.816 -0.0539  0.0804  0.2109
14335TIP3    H164496   1.236   1.850  14.733 -0.3137 -1.1464  0.9222
14335TIP3    H264497   1.335   1.881  14.843  0.0048  0.4144  0.2332
14336TIP3   OH264498   3.461   3.178   4.393  0.3103 -0.2448  0.2094
14336TIP3    H164499   3.518   3.228   4.335  1.2896 -1.3649  0.1678
14336TIP3    H264500   3.463   3.089   4.358  0.1181 -0.7266  1.3786
14337TIP3   OH264501   0.002   2.621  17.378 -0.3801 -0.3414 -0.3729
14337TIP3    H164502   0.073   2.566  17.411  0.4173  1.9375  2.0574
14337TIP3    H264503  -0.073   2.599  17.433 -0.4051  0.0946 -0.2262
14338TIP3   OH264504   6.174   6.080   5.220 -0.0694  0.1049  0.3534
14338TIP3    H164505   6.179   6.173   5.244  0.2763  0.4988 -1.1721
14338TIP3    H264506   6.081   6.059   5.228 -0.3320  0.9110 -0.4333
14339TIP3   OH264507   5.282   0.406  12.571  0.4743 -0.0206  0.1978
14339TIP3    H164508   5.357   0.393  12.512 -0.9505  1.2341 -2.0271
14339TIP3    H264509   5.294   0.340  12.639  3.8270  0.4286  0.2102
14340TIP3   OH264510   6.234   2.147  16.178  0.1834  0.2595 -0.4164
14340TIP3    H164511   6.174   2.115  16.246  0.1089 -0.7793 -0.9550
14340TIP3    H264512   6.190   2.224  16.141  0.6956  1.5048  1.4017
14341TIP3   OH264513   4.315   0.971  12.579 -0.0517  1.2995 -0.1192
14341TIP3    H164514   4.397   0.964  12.529  1.1604  0.5934  1.8485
14341TIP3    H264515   4.344   0.987  12.669 -2.0129 -0.6509  0.9486
14342TIP3   OH264516   6.535   1.372   3.521 -0.3611  0.3262  0.2202
14342TIP3    H164517   6.537   1.374   3.617 -0.1557 -1.1744  0.2774
14342TIP3    H264518   6.627   1.365   3.495 -0.4833 -0.6371 -0.0059
14343TIP3   OH264519   4.925   3.458   2.449  0.9039 -0.1292  0.1473
14343TIP3    H164520   4.893   3.396   2.383  1.1426 -0.1877  0.0852
14343TIP3    H264521   4.986   3.514   2.401  0.4492  0.3614  0.1291
14344TIP3   OH264522   2.857   3.351  14.482 -0.1988 -0.3907  0.5057
14344TIP3    H164523   2.946   3.369  14.512  0.1033 -1.8861  0.5671
14344TIP3    H264524   2.815   3.309  14.557 -0.2457 -1.7344 -0.2427
14345TIP3   OH264525   6.703   3.512  13.528  0.0689 -0.6546  0.4276
14345TIP3    H164526   6.673   3.428  13.562 -0.7742 -0.8090 -0.6581
14345TIP3    H264527   6.628   3.571  13.539  0.2359 -0.3690  0.0592
14346TIP3   OH264528   0.397   4.717  17.013  0.0812 -0.3362  0.3753
14346TIP3    H164529   0.335   4.700  16.943 -0.2918  1.6934  0.1422
14346TIP3    H264530   0.456   4.642  17.012 -1.3183 -1.4813 -0.5314
14347TIP3   OH264531   4.591   2.384   4.921 -0.5497  0.1272  0.4365
14347TIP3    H164532   4.657   2.438   4.877  0.0971  0.6515  1.9857
14347TIP3    H264533   4.531   2.357   4.851  0.2155  1.2478 -0.6852
14348TIP3   OH264534   0.664   0.279   1.721  0.1299 -0.3563  0.2048
14348TIP3    H164535   0.742   0.259   1.669  1.6114  1.5526  1.5702
14348TIP3    H264536   0.640   0.196   1.761  2.4675 -0.7138  1.0289
14349TIP3   OH264537   0.246   0.763   0.510  0.0980  0.0051  0.1634
14349TIP3    H164538   0.162   0.733   0.475  1.1615 -3.8751  0.4204
14349TIP3    H264539   0.257   0.851   0.474 -2.5947 -0.5769 -2.5272
14350TIP3   OH264540   0.571   0.793   1.228  0.0971 -0.1885  0.1161
14350TIP3    H164541   0.602   0.804   1.138 -1.9627 -0.2594 -0.6503
14350TIP3    H264542   0.503   0.726   1.223  2.1216 -2.6466  2.3056
14351TIP3   OH264543   0.039   1.838   4.156  0.2559 -0.0546  0.4036
14351TIP3    H164544   0.088   1.857   4.076  0.0090 -1.8321 -0.2204
14351TIP3    H264545   0.102   1.853   4.227  1.0116 -0.1221 -0.2375
14352TIP3   OH264546   0.420   0.805   2.156 -0.2271  0.2192  0.2402
14352TIP3    H164547   0.471   0.725   2.162  1.6077  1.3098  0.1421
14352TIP3    H264548   0.412   0.823   2.063  0.3652  0.7338  0.2819
14353TIP3   OH264549   3.229   1.565   2.195  0.9028 -0.0421  0.1425
14353TIP3    H164550   3.260   1.650   2.164 -0.3336  0.5254  0.4027
14353TIP3    H264551   3.156   1.543   2.138  1.5195 -1.1850 -0.2429
14354TIP3   OH264552   5.057   1.134  15.902 -0.5764  0.1137 -0.0042
14354TIP3    H164553   5.132   1.188  15.927 -0.1321 -0.4457 -0.1040
14354TIP3    H264554   5.061   1.129  15.806 -0.0519 -0.8667  0.0531
14355TIP3   OH264555   5.086   4.901   6.196 -0.0138  0.4385  0.3840
14355TIP3    H164556   5.019   4.947   6.246  0.3858  0.1613  1.1891
14355TIP3    H264557   5.097   4.953   6.117 -1.9470 -0.0801 -0.2911
14356TIP3   OH264558   0.658   1.654  12.985  0.1617  0.2898  0.0587
14356TIP3    H164559   0.585   1.593  12.986  0.8278 -0.5194  0.8000
14356TIP3    H264560   0.626   1.731  13.033  0.4646 -0.9028  2.2825
14357TIP3   OH264561   3.208   2.784  13.697  0.6456  0.3214  0.5331
14357TIP3    H164562   3.193   2.848  13.627  0.6599 -0.2766 -0.0297
14357TIP3    H264563   3.195   2.699  13.654  3.0383 -0.1530  0.6493
14358TIP3   OH264564   6.679   0.900  11.533 -0.4524 -0.4730  0.0230
14358TIP3    H164565   6.710   0.959  11.464  0.4725 -0.9462  0.0130
14358TIP3    H264566   6.644   0.959  11.600  1.0982  0.1575  0.3290
14359TIP3   OH264567   2.663   0.881   0.082  0.3508  0.3148  0.3390
14359TIP3    H164568   2.729   0.930   0.033 -1.4315  2.2867 -0.2514
14359TIP3    H264569   2.610   0.838   0.014 -0.6548  1.0505  0.6423
14360TIP3   OH264570   6.124   3.982   3.436 -0.5301 -0.4930  0.3512
14360TIP3    H164571   6.060   3.910   3.432 -1.7529  0.5874 -0.3728
14360TIP3    H264572   6.132   4.011   3.345  0.7467 -0.3737  0.4884
14361TIP3   OH264573   4.081   6.000   2.535 -0.2223  1.0437 -0.1863
14361TIP3    H164574   4.148   6.023   2.600  0.4351 -0.2059 -0.3836
14361TIP3    H264575   4.022   5.941   2.582  0.1934  0.2240 -0.6726
14362TIP3   OH264576   5.960   2.493  15.724  0.3847 -0.4484 -0.0089
14362TIP3    H164577   5.920   2.538  15.799  0.2138 -0.2477 -0.2201
14362TIP3    H264578   5.896   2.426  15.700  0.2017 -0.1714 -0.3037
14363TIP3   OH264579   0.211   4.086  14.892 -0.1548 -0.1614  0.8241
14363TIP3    H164580   0.288   4.126  14.931  0.1483  0.1106 -0.0285
14363TIP3    H264581   0.226   4.092  14.797 -0.9235 -0.6854  0.6576
14364TIP3   OH264582   4.122   3.397  17.421 -0.3144  0.2825 -0.1372
14364TIP3    H164583   4.045   3.367  17.371 -0.5197 -0.0918  0.4022
14364TIP3    H264584   4.099   3.487  17.447 -0.5941  0.1529  0.0700
14365TIP3   OH264585   6.534   1.209   4.942  0.1446 -0.3529  0.0618
14365TIP3    H164586   6.623   1.176   4.936  0.0690 -0.6278  0.4232
14365TIP3    H264587   6.491   1.153   5.006 -0.8051 -1.3361 -1.3674
14366TIP3   OH264588   4.697   2.018   5.682 -0.3552  0.3950 -0.1971
14366TIP3    H164589   4.659   2.044   5.766  1.4529  1.2942  0.3973
14366TIP3    H264590   4.768   1.958   5.704 -0.8916 -0.6690 -1.2245
14367TIP3   OH264591   0.671   0.103   5.920 -0.1943  0.3608 -0.0343
14367TIP3    H164592   0.610   0.120   5.991  0.4482  1.3521  0.3008
14367TIP3    H264593   0.627   0.038   5.866 -0.3386 -1.0568  1.7146
14368TIP3   OH264594   6.105   4.579  13.005  0.0213  0.1376 -0.6459
14368TIP3    H164595   6.050   4.646  12.967  0.2099  0.4410 -0.3932
14368TIP3    H264596   6.048   4.533  13.067 -0.3407 -0.4904 -1.4344
14369TIP3   OH264597   5.574   2.002  11.344  0.2506  0.0428 -0.5279
14369TIP3    H164598   5.651   2.040  11.385  0.1557 -0.4974  0.1578
14369TIP3    H264599   5.502   2.060  11.370 -0.1045 -1.2613  1.5723
14370TIP3   OH264600   1.153   2.233  12.210 -0.3053  0.3178  0.1173
14370TIP3    H164601   1.230   2.280  12.179 -0.3734 -0.1511 -0.7970
14370TIP3    H264602   1.180   2.195  12.294  1.5949 -2.5019 -1.6018
14371TIP3   OH264603   4.048   5.368  12.528 -0.4002 -0.1260 -0.1672
14371TIP3    H164604   4.136   5.404  12.542  0.1016 -1.5798  0.5396
14371TIP3    H264605   4.001   5.439  12.484  1.4264  0.3147 -1.5613
14372TIP3   OH264606   5.137   3.328   2.911 -0.3822 -0.3934 -0.3581
14372TIP3    H164607   5.119   3.327   2.817 -0.8377  1.3175 -0.3138
14372TIP3    H264608   5.220   3.375   2.920  0.3403 -1.6864  0.0259
14373TIP3   OH264609   2.351   5.892  14.532 -0.5092  0.6668 -0.7866
14373TIP3    H164610   2.362   5.973  14.581  1.3688 -0.6741  1.1506
14373TIP3    H264611   2.258   5.871  14.542 -0.6792  1.7450  0.0623
14374TIP3   OH264612   0.506   3.034  12.499 -0.3003 -0.2463  0.5400
14374TIP3    H164613   0.574   2.967  12.494 -0.6695 -0.6380  0.7135
14374TIP3    H264614   0.462   3.018  12.583 -0.9819 -0.3682  0.1677
14375TIP3   OH264615   2.937   1.019  16.953  0.2403 -0.4942  0.4937
14375TIP3    H164616   2.938   1.037  17.047  1.5187 -0.6374  0.5248
14375TIP3    H264617   2.989   1.089  16.914 -1.7803  0.6247 -0.3445
14376TIP3   OH264618   1.297   0.577   4.299 -0.5490 -0.1371 -0.6586
14376TIP3    H164619   1.345   0.585   4.382  0.8628  0.0647 -1.4670
14376TIP3    H264620   1.312   0.486   4.272  0.4863  0.2801 -1.5492
14377TIP3   OH264621   2.225   6.338  14.129  0.5838  0.2954  0.3509
14377TIP3    H164622   2.173   6.291  14.194  0.5494  0.3012  0.3276
14377TIP3    H264623   2.301   6.370  14.177  0.6833  0.0893  0.3324
14378TIP3   OH264624   3.695   6.580   0.716 -0.1915  0.0330  0.0675
14378TIP3    H164625   3.752   6.514   0.677 -0.4802  0.2555 -0.7340
14378TIP3    H264626   3.753   6.635   0.768  0.3119  0.2187 -0.6865
14379TIP3   OH264627   1.144   4.203  13.154 -0.6508 -0.6925 -0.2749
14379TIP3    H164628   1.078   4.147  13.112 -0.1908 -1.4838  0.0285
14379TIP3    H264629   1.226   4.154  13.144 -0.5857 -1.1348  1.9114
14380TIP3   OH264630   0.007   2.073   2.460  0.0047 -0.3721 -0.1956
14380TIP3    H164631   0.072   2.021   2.506  0.4071 -0.6852 -1.0816
14380TIP3    H264632   0.032   2.164   2.478 -0.5160 -0.4643  1.0952
14381TIP3   OH264633   3.172   2.930   0.292 -0.0467 -0.0058 -0.5217
14381TIP3    H164634   3.211   2.957   0.375  1.5087  0.4197 -1.3359
14381TIP3    H264635   3.141   2.841   0.307 -0.1412  0.2094  0.6149
14382TIP3   OH264636   0.242   1.929   2.616 -0.1129  0.3758 -0.2584
14382TIP3    H164637   0.267   2.016   2.649 -1.8905  0.8120  0.0796
14382TIP3    H264638   0.289   1.868   2.672 -0.5889  1.1424  1.0335
14383TIP3   OH264639   3.596   3.509   5.487 -0.9560  0.0685  0.4305
14383TIP3    H164640   3.634   3.466   5.410  1.3174 -1.9920  2.5123
14383TIP3    H264641   3.614   3.602   5.475  3.2020 -0.5645  0.2586
14384TIP3   OH264642   6.378   1.556  16.402 -0.0318  0.1971  0.1592
14384TIP3    H164643   6.354   1.625  16.464  1.0905  0.6177  0.1536
14384TIP3    H264644   6.467   1.532  16.427 -0.1296 -0.7032 -0.3431
14385TIP3   OH264645   0.121   6.715   6.091  0.4368 -0.8931  0.4574
14385TIP3    H164646   0.191   6.747   6.148  0.6477  0.5102 -0.5411
14385TIP3    H264647   0.167   6.685   6.012 -0.0646 -0.0486 -0.1660
14386TIP3   OH264648   0.031   4.741  11.788  0.2110 -0.5443  0.2397
14386TIP3    H164649   0.096   4.674  11.765  0.3710 -0.2879 -0.0546
14386TIP3    H264650  -0.030   4.696  11.847  0.3873 -0.9163  0.1386
14387TIP3   OH264651   3.893   2.918   1.997  0.6441  0.0694 -0.3550
14387TIP3    H164652   3.928   2.835   2.031  1.2925  0.5110  0.0671
14387TIP3    H264653   3.799   2.912   2.014  0.7704 -0.3112  0.2567
14388TIP3   OH264654   1.881   6.438  16.488 -0.3172  0.4775  0.5301
14388TIP3    H164655   1.889   6.356  16.439  1.0741  1.4650 -0.9914
14388TIP3    H264656   1.918   6.505  16.430  1.8630  1.6832  3.0935
14389TIP3   OH264657   4.993   0.245   4.920 -0.3529 -0.1364  0.5569
14389TIP3    H164658   4.997   0.204   5.006 -2.8153  0.1519  0.8876
14389TIP3    H264659   4.913   0.298   4.922  0.1123  0.7670 -1.5353
14390TIP3   OH264660   3.355   5.072   0.035  0.1438  0.6437 -0.8333
14390TIP3    H164661   3.261   5.085   0.024  0.2884  1.6379 -0.9926
14390TIP3    H264662   3.391   5.161   0.038  0.9798  0.2903  0.0824
14391TIP3   OH264663   3.652   4.289  14.962  0.7011 -0.6637  0.4463
14391TIP3    H164664   3.720   4.348  14.930  0.8341 -0.3791  1.2264
14391TIP3    H264665   3.571   4.325  14.927  1.0207 -1.5724 -1.3274
14392TIP3   OH264666   3.086   0.563   1.626 -0.1054 -0.1766 -0.0095
14392TIP3    H164667   3.154   0.529   1.567 -0.2290  0.7757 -0.7251
14392TIP3    H264668   3.050   0.485   1.668  0.4599 -0.8204 -0.6895
14393TIP3   OH264669   2.154   3.575  13.580  0.1344 -0.1665 -0.1372
14393TIP3    H164670   2.220   3.616  13.637 -0.1169 -1.4790  1.1655
14393TIP3    H264671   2.179   3.483  13.577  0.2488 -0.1182 -2.3717
14394TIP3   OH264672   5.114   3.390  11.245 -0.1285 -0.7107 -0.8326
14394TIP3    H164673   5.039   3.335  11.222 -1.5071  1.1379 -0.9316
14394TIP3    H264674   5.104   3.468  11.191  1.4591 -0.0688 -0.2639
14395TIP3   OH264675   6.530   3.358   0.159  0.1201  0.1071  0.2718
14395TIP3    H164676   6.561   3.421   0.224 -2.1942  1.0322  0.5758
14395TIP3    H264677   6.599   3.356   0.092  1.7883  0.3778  1.9045
14396TIP3   OH264678   2.503   6.080   1.153  0.0619  0.0627  0.0843
14396TIP3    H164679   2.420   6.113   1.186 -0.4362 -1.5235  0.5361
14396TIP3    H264680   2.560   6.156   1.148 -1.5771  1.2897 -0.7644
14397TIP3   OH264681   4.513   6.066  13.354 -0.3851 -0.1108 -0.2504
14397TIP3    H164682   4.443   6.026  13.406 -1.3000  0.4316 -1.0407
14397TIP3    H264683   4.578   6.093  13.419  0.6158 -3.4083  0.3099
14398TIP3   OH264684   1.824   1.017   4.310 -0.1705 -0.0515 -0.8127
14398TIP3    H164685   1.799   0.931   4.343 -2.0030  1.8407  3.6234
14398TIP3    H264686   1.740   1.061   4.292  0.4672  1.8396  0.4622
14399TIP3   OH264687   2.717   1.034  15.536  0.3589 -0.1912 -0.2484
14399TIP3    H164688   2.785   1.003  15.476  1.0258  1.1906 -0.2528
14399TIP3    H264689   2.758   1.109  15.581 -0.4469 -0.6105  1.2437
14400TIP3   OH264690   4.084   1.345   0.721 -0.0047 -0.1251  0.0753
14400TIP3    H164691   4.128   1.422   0.757  0.6211 -0.8016  0.7765
14400TIP3    H264692   3.991   1.361   0.738  0.0791  0.6481 -0.1353
14401TIP3   OH264693   1.885   4.178  16.747 -0.3351 -0.3306  0.4126
14401TIP3    H164694   1.857   4.172  16.838 -1.5831 -2.1002 -0.0400
14401TIP3    H264695   1.864   4.093  16.709  3.1320 -0.8498 -0.7497
14402TIP3   OH264696   1.780   1.335  15.876 -0.0120  0.4122  0.3491
14402TIP3    H164697   1.723   1.300  15.944 -0.6075  1.4457  0.3973
14402TIP3    H264698   1.847   1.267  15.865  0.5158  0.5067  2.4596
14403TIP3   OH264699   1.777   0.100  11.477 -0.2447 -1.1131 -0.1004
14403TIP3    H164700   1.768   0.194  11.460  0.9024 -1.1545 -1.0645
14403TIP3    H264701   1.832   0.096  11.556 -0.5410 -0.9740  0.1140
14404TIP3   OH264702   1.540   2.215   3.342 -0.3093  0.4483 -0.3359
14404TIP3    H164703   1.484   2.153   3.388 -0.8990  1.0068 -0.2887
14404TIP3    H264704   1.590   2.258   3.412  0.9874 -0.8049 -0.4537
14405TIP3   OH264705   4.869   6.036  13.783  0.2751  0.7062  0.0127
14405TIP3    H164706   4.862   6.011  13.875  0.7003  0.2035 -0.0856
14405TIP3    H264707   4.963   6.040  13.766  0.2752 -1.7163 -1.0297
14406TIP3   OH264708   2.136   4.709   2.426  0.4159 -0.4612  0.1737
14406TIP3    H164709   2.190   4.676   2.498  3.4075  0.1007 -1.6123
14406TIP3    H264710   2.172   4.665   2.348 -0.0536  1.8368 -1.4321
14407TIP3   OH264711   0.653   5.072   3.408  0.1258  0.1825  0.1877
14407TIP3    H164712   0.680   5.081   3.499  2.3548  1.1189 -0.5132
14407TIP3    H264713   0.734   5.075   3.357 -1.1539  1.5101 -1.9648
14408TIP3   OH264714   4.703   0.791   5.615  0.3537  0.1989  0.3540
14408TIP3    H164715   4.746   0.761   5.696  0.1426  1.4791  0.9745
14408TIP3    H264716   4.651   0.716   5.586  2.1281 -1.0376  0.1749
14409TIP3   OH264717   0.359   5.502   3.622 -0.1134  0.2230 -0.4952
14409TIP3    H164718   0.387   5.413   3.602 -0.3582  0.2375 -0.9319
14409TIP3    H264719   0.408   5.527   3.700  1.3017  0.3508 -1.3868
14410TIP3   OH264720   6.486   1.815   1.857  0.5126  0.3041 -0.1357
14410TIP3    H164721   6.539   1.886   1.894 -0.2291  0.5801  0.4097
14410TIP3    H264722   6.442   1.776   1.933  0.6704 -0.5425 -0.4672
14411TIP3   OH264723   3.029   0.600  12.965  0.1073 -0.6657 -0.4478
14411TIP3    H164724   3.056   0.654  13.039 -0.0459  1.0876 -1.6108
14411TIP3    H264725   3.069   0.643  12.889 -2.4270 -0.4605 -1.7541
14412TIP3   OH264726   1.280   5.717  14.128 -0.1831  0.1645 -0.0919
14412TIP3    H164727   1.321   5.642  14.085 -1.5987 -0.7089  0.0140
14412TIP3    H264728   1.213   5.747  14.066  1.7392  2.7747 -1.1167
14413TIP3   OH264729   4.590   1.168  11.499 -0.0137 -0.2875  0.3442
14413TIP3    H164730   4.625   1.129  11.419  0.0326 -1.5061  0.9298
14413TIP3    H264731   4.533   1.238  11.469 -0.5106 -1.1497 -0.7876
14414TIP3   OH264732   1.591   5.821   1.703 -0.0097 -0.0061  0.2374
14414TIP3    H164733   1.542   5.776   1.634 -0.2144 -1.4639  1.2784
14414TIP3    H264734   1.527   5.880   1.743 -0.0910  0.2898 -0.3236
14415TIP3   OH264735   1.350   1.041  12.453 -0.3455  0.8536  0.4707
14415TIP3    H164736   1.414   1.091  12.504  0.3368  0.2088  0.2606
14415TIP3    H264737   1.291   1.108  12.419 -1.1403  1.2680  2.5089
14416TIP3   OH264738   6.519   5.650  10.728 -0.4179 -0.4462 -0.3996
14416TIP3    H164739   6.578   5.672  10.800 -1.2704 -0.5564  0.3553
14416TIP3    H264740   6.468   5.730  10.715 -1.0414 -0.7903 -0.1026
14417TIP3   OH264741   4.000   1.095   3.793 -0.8737  0.4211 -0.3494
14417TIP3    H164742   4.039   1.182   3.789 -1.5103  0.8382  1.4200
14417TIP3    H264743   3.984   1.071   3.702 -1.4929  2.5291 -0.8416
14418TIP3   OH264744   3.106   3.813  16.798 -0.0485  0.1991 -0.4909
14418TIP3    H164745   3.176   3.845  16.742  1.4796 -0.4519  0.9623
14418TIP3    H264746   3.027   3.824  16.746  1.2237  0.0672 -2.5826
14419TIP3   OH264747   6.302   0.057  12.102 -0.1862 -0.5566 -0.1332
14419TIP3    H164748   6.311  -0.038  12.092  1.7031 -0.3645 -0.6277
14419TIP3    H264749   6.390   0.088  12.122 -0.4496  1.2748 -1.5279
14420TIP3   OH264750   1.357   2.080  15.527 -0.0384 -0.1372 -0.8120
14420TIP3    H164751   1.430   2.135  15.497  2.0542 -0.7389  2.6447
14420TIP3    H264752   1.397   1.994  15.542 -1.5768 -0.6358  0.6954
14421TIP3   OH264753   0.217   4.554   3.853  1.0090  0.2763  0.8042
14421TIP3    H164754   0.216   4.616   3.926 -0.0424 -0.9803  1.9102
14421TIP3    H264755   0.127   4.557   3.819  1.6422  1.3198 -0.9014
14422TIP3   OH264756   1.596   0.923   2.755 -0.3492 -0.3513 -0.6528
14422TIP3    H164757   1.517   0.917   2.808  0.2692 -0.3863  0.3042
14422TIP3    H264758   1.611   0.834   2.722 -0.1438 -0.5814  0.0352
14423TIP3   OH264759   0.020   0.905   1.091 -0.1043  0.0119  0.1695
14423TIP3    H164760   0.003   0.995   1.065 -1.0564 -0.1524  0.2038
14423TIP3    H264761  -0.058   0.878   1.138  0.4780 -0.5976  0.8145
14424TIP3   OH264762   6.723   5.400   0.045 -0.0590 -0.2553  0.1926
14424TIP3    H164763   6.644   5.398  -0.008  1.0810  0.5915 -1.6435
14424TIP3    H264764   6.792   5.371  -0.014  1.3541  1.2834  0.9916
14425TIP3   OH264765   1.662   0.026   5.465 -0.7427  0.2732  0.6762
14425TIP3    H164766   1.663   0.113   5.426  1.4122  0.1970  0.4435
14425TIP3    H264767   1.688  -0.033   5.394 -2.2474 -0.6140  0.8064
14426TIP3   OH264768   5.435   0.495  15.456 -0.5705 -0.1146  0.0284
14426TIP3    H164769   5.363   0.475  15.398 -0.2815  1.4742 -0.9361
14426TIP3    H264770   5.410   0.577  15.499  0.5098  0.3017 -0.0946
14427TIP3   OH264771   4.265   0.024  11.655  0.1269  0.3626 -0.2803
14427TIP3    H164772   4.331   0.092  11.639 -0.9760  1.2742 -1.0591
14427TIP3    H264773   4.253  -0.018  11.570 -0.4062  0.3090 -0.1807
14428TIP3   OH264774   6.649   0.864   5.039  0.2603  0.3650 -0.5795
14428TIP3    H164775   6.694   0.897   5.117  2.7233 -0.9383 -1.3418
14428TIP3    H264776   6.700   0.899   4.966 -0.5671 -0.3771 -1.5412
14429TIP3   OH264777   0.493   3.669   1.029  0.2141  0.0098 -0.1068
14429TIP3    H164778   0.484   3.591   0.975 -0.8534  1.0607 -1.5373
14429TIP3    H264779   0.578   3.659   1.072 -0.5910 -2.6706  1.0505
14430TIP3   OH264780   6.197   2.943  12.881  0.3423 -1.0941 -0.3993
14430TIP3    H164781   6.232   2.868  12.832  0.0057 -1.3504 -0.2439
14430TIP3    H264782   6.155   2.997  12.815 -1.1078 -2.0007 -0.2478
14431TIP3   OH264783   6.505   2.831   3.111 -0.1875 -0.0913  0.3059
14431TIP3    H164784   6.561   2.753   3.114  1.0167  0.7494  0.2735
14431TIP3    H264785   6.557   2.896   3.065 -1.0655  0.8253  0.5772
14432TIP3   OH264786   3.055   5.089   1.060  1.0166 -0.3736 -0.2997
14432TIP3    H164787   3.038   4.995   1.060  0.3354 -0.2563 -0.6734
14432TIP3    H264788   2.970   5.128   1.081  1.3765  0.1460  0.2080
14433TIP3   OH264789   4.142   0.758   4.038 -0.5690 -0.3395  0.4561
14433TIP3    H164790   4.076   0.751   3.969  1.0715 -0.0518 -1.2147
14433TIP3    H264791   4.132   0.848   4.071  0.9531  0.8225 -1.9652
14434TIP3   OH264792   4.308   5.606   0.171  0.0894 -0.5996 -0.4125
14434TIP3    H164793   4.367   5.535   0.144 -1.4487 -1.7581 -0.9207
14434TIP3    H264794   4.227   5.561   0.194 -1.0896  1.0592 -1.1866
14435TIP3   OH264795   1.726   0.745  14.910  0.7099 -0.5618  0.0285
14435TIP3    H164796   1.745   0.752  14.816  0.8178 -0.3912  0.0638
14435TIP3    H264797   1.657   0.810  14.925  1.3141  0.0420  0.2418
14436TIP3   OH264798   1.727   2.121   0.549 -0.2430 -0.3933  0.2988
14436TIP3    H164799   1.634   2.118   0.570 -0.1217  1.5881  1.3279
14436TIP3    H264800   1.763   2.041   0.588 -1.4484 -1.0709  0.0685
14437TIP3   OH264801   0.125   6.422   1.398  0.0877  0.5461 -0.3828
14437TIP3    H164802   0.214   6.397   1.423  0.6787  1.0478 -1.8457
14437TIP3    H264803   0.071   6.348   1.424  0.8995  0.2976  0.6786
14438TIP3   OH264804   1.683   3.083   0.132  0.1789 -0.3986  0.1149
14438TIP3    H164805   1.654   3.169   0.103 -0.7966 -0.9900 -0.7829
14438TIP3    H264806   1.739   3.051   0.061 -1.3604 -1.4203 -0.7244
14439TIP3   OH264807   2.435   4.496  13.004  0.2691  0.3579 -0.0885
14439TIP3    H164808   2.527   4.501  13.029  0.2942  0.8432 -0.2625
14439TIP3    H264809   2.387   4.516  13.085  0.3440  1.4689 -0.2997
14440TIP3   OH264810   5.498   5.899   5.680  0.1899 -0.1404  0.4107
14440TIP3    H164811   5.509   5.808   5.654 -1.7526 -0.1976 -0.3619
14440TIP3    H264812   5.459   5.942   5.604  0.1172  1.1016  1.1076
14441TIP3   OH264813   4.080   4.838  11.523  0.0066 -0.2404  0.6155
14441TIP3    H164814   4.091   4.933  11.516  1.4033 -0.4347 -0.1329
14441TIP3    H264815   4.002   4.820  11.471 -0.3375  0.5076  0.8510
14442TIP3   OH264816   4.155   0.084   0.394 -0.1458 -0.1499  0.1184
14442TIP3    H164817   4.165   0.007   0.339 -0.3231 -0.1272  0.0546
14442TIP3    H264818   4.069   0.074   0.435  0.6735 -1.0234  1.7302
14443TIP3   OH264819   4.045   2.842  13.225 -0.5271 -0.0657 -0.3945
14443TIP3    H164820   4.121   2.802  13.182  0.6659  0.1089  1.4402
14443TIP3    H264821   3.973   2.783  13.206  0.2224 -0.6451 -1.5563
14444TIP3   OH264822   5.057   5.189  14.479  0.1855 -0.4738  0.1396
14444TIP3    H164823   5.040   5.098  14.457  1.1132 -0.6114 -0.0115
14444TIP3    H264824   5.044   5.193  14.574 -1.5375 -0.3728 -0.0551
14445TIP3   OH264825   2.308   0.363   3.230 -0.4334  0.0779 -0.3218
14445TIP3    H164826   2.303   0.443   3.284 -0.0355  0.7742 -1.2888
14445TIP3    H264827   2.331   0.294   3.292  3.6006  1.4482 -0.0014
14446TIP3   OH264828   0.363   2.510   1.964 -0.5219 -0.5170  0.5604
14446TIP3    H164829   0.331   2.567   2.034 -0.9296 -0.5926  0.4384
14446TIP3    H264830   0.300   2.522   1.893 -0.8905 -1.4804  0.7040
14447TIP3   OH264831   1.675   1.090  11.273 -0.5341 -0.1203  0.2149
14447TIP3    H164832   1.625   1.158  11.228 -0.1826 -0.4627 -0.7150
14447TIP3    H264833   1.742   1.064  11.210  0.5087 -0.0287  1.2405
14448TIP3   OH264834   0.674   3.960  12.942 -0.2141 -0.3743 -0.1587
14448TIP3    H164835   0.721   3.972  12.859 -0.9947 -0.1412 -0.5820
14448TIP3    H264836   0.677   4.046  12.984 -2.9585  0.5827 -1.6660
14449TIP3   OH264837   0.147   2.701  14.008 -0.3894  0.2943  0.0100
14449TIP3    H164838   0.059   2.693  14.045 -1.7410  0.5866 -2.8809
14449TIP3    H264839   0.173   2.791  14.028 -1.3023  0.6147 -0.1892
14450TIP3   OH264840   3.200   2.066  15.580  0.0880 -0.0104 -0.4875
14450TIP3    H164841   3.263   1.994  15.573  0.4923  0.2635  0.2446
14450TIP3    H264842   3.117   2.027  15.553 -0.2097 -1.4666  2.1962
14451TIP3   OH264843   6.325   5.973   3.921  0.2694  0.3598 -0.1209
14451TIP3    H164844   6.277   6.055   3.935  0.3727  0.2998  0.6063
14451TIP3    H264845   6.416   5.999   3.914  0.0963  0.5795 -2.4115
14452TIP3   OH264846   3.086   4.760   4.981  0.0691 -0.0298 -0.4899
14452TIP3    H164847   3.007   4.762   4.928  0.5697 -0.8046 -1.3014
14452TIP3    H264848   3.158   4.762   4.917  0.6874 -0.2962  0.1800
14453TIP3   OH264849   0.251   4.223  14.162 -0.4521 -0.3003 -0.1217
14453TIP3    H164850   0.340   4.257  14.153 -0.7799  0.9568  1.0946
14453TIP3    H264851   0.214   4.230  14.073  0.0972  0.8211 -0.2758
14454TIP3   OH264852   0.800   3.513   5.861 -0.2166  0.1036 -0.3655
14454TIP3    H164853   0.758   3.434   5.895 -0.7749  0.2597 -0.6757
14454TIP3    H264854   0.783   3.510   5.767  2.5041 -1.0614 -0.9328
14455TIP3   OH264855   4.828   3.627   0.786  0.0576  0.0906  0.5053
14455TIP3    H164856   4.841   3.698   0.723  2.2400 -0.4764  0.2231
14455TIP3    H264857   4.782   3.669   0.859 -1.3497  1.0634 -0.8696
14456TIP3   OH264858   4.781   4.893   6.063 -0.5968 -0.3837 -0.3149
14456TIP3    H164859   4.731   4.812   6.051  0.8757 -1.3342 -0.3077
14456TIP3    H264860   4.782   4.906   6.158 -1.1527 -0.1456 -0.3404
14457TIP3   OH264861   6.372   2.354   0.462 -0.2951 -0.1750 -0.4327
14457TIP3    H164862   6.389   2.413   0.535 -1.1891 -2.4402  1.7825
14457TIP3    H264863   6.286   2.315   0.482 -0.4216 -1.1672 -2.5328
14458TIP3   OH264864   3.889   3.578  12.910  0.3109  0.0841  0.0321
14458TIP3    H164865   3.804   3.612  12.938 -0.2150  0.0582 -1.4654
14458TIP3    H264866   3.936   3.655  12.876  0.6541 -0.0126  0.2759
14459TIP3   OH264867   0.693   0.437  11.708 -0.1435  0.2100 -0.1560
14459TIP3    H164868   0.669   0.386  11.785 -0.7938  0.1725 -0.3771
14459TIP3    H264869   0.703   0.371  11.638  0.3930  0.2483 -0.1218
14460TIP3   OH264870   1.331   1.006  13.058  0.3876  0.1693  0.2668
14460TIP3    H164871   1.393   1.006  12.986  0.6158  2.7935  0.3680
14460TIP3    H264872   1.339   1.094  13.097 -0.4876 -0.7731  2.8151
14461TIP3   OH264873   2.894   4.731   1.696 -0.5558  0.2433  0.4218
14461TIP3    H164874   2.988   4.712   1.697 -0.6283 -0.4267 -1.2917
14461TIP3    H264875   2.871   4.744   1.788  1.1498  0.1454  0.9035
14462TIP3   OH264876   0.369   6.022  12.591  0.5235 -0.3059 -0.0325
14462TIP3    H164877   0.419   6.051  12.667 -0.7499  0.4400  0.5383
14462TIP3    H264878   0.296   5.972  12.627  1.6410 -2.7669 -0.9138
14463TIP3   OH264879   1.132   5.431   6.601 -0.0995  0.2731  0.3716
14463TIP3    H164880   1.218   5.403   6.568 -0.2235 -0.1576  0.3999
14463TIP3    H264881   1.098   5.490   6.533 -0.5750 -1.0028 -0.5474
14464TIP3   OH264882   3.678   1.269   1.556  0.0931  0.2808 -0.0428
14464TIP3    H164883   3.748   1.275   1.491  0.9629 -1.0334  0.7194
14464TIP3    H264884   3.718   1.296   1.638  0.0868 -1.5463  0.6243
14465TIP3   OH264885   3.108   5.388  14.083  0.0872  0.5339 -0.0782
14465TIP3    H164886   3.127   5.396  14.176 -1.0856 -2.2255  0.5279
14465TIP3    H264887   3.161   5.455  14.041  1.0208  1.5471  2.5143
14466TIP3   OH264888   1.751   4.579  14.069  0.4426  0.9912  0.8336
14466TIP3    H164889   1.726   4.487  14.059  2.5418  0.4972 -0.3404
14466TIP3    H264890   1.674   4.620  14.109 -1.2919 -0.8745 -0.3726
14467TIP3   OH264891   1.929   6.505  16.087 -0.3850  0.2675  0.3771
14467TIP3    H164892   1.985   6.543  16.155  3.2773 -0.7976 -1.7815
14467TIP3    H264893   1.925   6.572  16.019 -0.8985 -0.0776  0.0645
14468TIP3   OH264894   1.563   0.529  14.546 -0.5443 -0.3990 -0.2368
14468TIP3    H164895   1.527   0.535  14.635 -0.2281  1.3249 -0.1975
14468TIP3    H264896   1.655   0.551  14.557 -0.5733  0.1197 -1.0401
14469TIP3   OH264897   2.900   3.726  12.474 -0.7207 -0.4784 -0.2082
14469TIP3    H164898   2.941   3.750  12.391 -0.3823 -0.3268  0.0013
14469TIP3    H264899   2.906   3.805  12.528  0.8600 -1.1503  0.6665
14470TIP3   OH264900   3.832   5.281  13.873  0.0260 -0.0742  0.4226
14470TIP3    H164901   3.795   5.364  13.901 -0.7479 -0.5286  0.7910
14470TIP3    H264902   3.919   5.303  13.840 -0.7334  1.1043 -0.9025
14471TIP3   OH264903   3.388   4.570  14.145  0.1802  0.0099  0.1953
14471TIP3    H164904   3.453   4.501  14.160 -0.3143 -0.9520 -1.6855
14471TIP3    H264905   3.438   4.650  14.137  0.8815 -0.3032  1.2374
14472TIP3   OH264906   0.948   4.362  16.576 -0.2832 -0.0426  0.3297
14472TIP3    H164907   0.947   4.373  16.671  0.3344  1.0209  0.2312
14472TIP3    H264908   0.873   4.307  16.558 -0.6823  0.1199  1.3962
14473TIP3   OH264909   4.718   1.694   0.683 -0.4221 -0.3268  0.3630
14473TIP3    H164910   4.781   1.660   0.620  1.7509  1.0697  1.6430
14473TIP3    H264911   4.632   1.668   0.648  0.7577 -1.1562 -2.1601
14474TIP3   OH264912   3.266   0.778   5.112 -0.1873 -0.6233 -0.0345
14474TIP3    H164913   3.224   0.742   5.191 -0.6264 -1.2009 -0.5114
14474TIP3    H264914   3.333   0.714   5.090  0.3495 -0.1503  0.2152
14475TIP3   OH264915   0.835   0.362  14.149  0.3822  0.5078  0.0471
14475TIP3    H164916   0.818   0.367  14.055 -2.4798  0.7098  0.5024
14475TIP3    H264917   0.769   0.418  14.189 -0.1181 -1.5275  2.3205
14476TIP3   OH264918   3.646   5.535  15.020 -0.0839 -0.0254  0.0093
14476TIP3    H164919   3.669   5.531  14.927  1.3304  0.6696  0.2849
14476TIP3    H264920   3.583   5.465  15.033 -1.9225  1.1582 -1.8861
14477TIP3   OH264921   5.056   1.581  12.923 -0.1161 -0.9820  0.1439
14477TIP3    H164922   5.096   1.668  12.917 -0.6415 -0.6639  1.1530
14477TIP3    H264923   5.124   1.526  12.962  1.0329 -1.5926 -2.4779
14478TIP3   OH264924   0.680   2.942   0.161  0.1003  0.0706  0.6732
14478TIP3    H164925   0.608   2.939   0.224  0.4864 -0.5743  1.1080
14478TIP3    H264926   0.738   2.871   0.190  0.2470 -0.2854 -0.4554
14479TIP3   OH264927   4.232   5.074   3.149 -0.0515  0.0042  0.4100
14479TIP3    H164928   4.314   5.066   3.198 -2.8513 -2.5989  5.5075
14479TIP3    H264929   4.190   5.152   3.184 -0.6966  0.0471 -0.4328
14480TIP3   OH264930   0.214   3.251  13.132  0.1058  0.5862 -0.4067
14480TIP3    H164931   0.173   3.289  13.210 -1.5076  0.4750 -1.1624
14480TIP3    H264932   0.254   3.325  13.087 -0.0677  0.8506 -0.1296
14481TIP3   OH264933   3.527   1.148  15.818  0.2437 -0.1477 -0.1494
14481TIP3    H164934   3.528   1.236  15.781 -2.1687 -0.5264 -1.3086
14481TIP3    H264935   3.609   1.108  15.788  0.1530  0.8467 -1.8232
14482TIP3   OH264936   0.089   1.943   0.973 -0.0727  0.7555 -0.8941
14482TIP3    H164937   0.038   1.966   1.050  1.0753  1.0644 -0.1991
14482TIP3    H264938   0.024   1.931   0.904 -1.1059  0.7115  0.0525
14483TIP3   OH264939   0.781   3.619   1.942 -0.2422 -0.6475 -0.4864
14483TIP3    H164940   0.766   3.625   2.037 -1.6854  0.4583 -0.7498
14483TIP3    H264941   0.733   3.540   1.916 -2.3885  0.6630 -0.7028
14484TIP3   OH264942   0.613   2.552  15.919 -0.3741 -0.0068  0.2625
14484TIP3    H164943   0.631   2.533  15.827 -0.1108  0.4972  0.2081
14484TIP3    H264944   0.629   2.469  15.964 -0.5527 -0.2691 -0.1494
14485TIP3   OH264945   4.163   2.347   6.384  0.4588 -0.3061 -0.4288
14485TIP3    H164946   4.220   2.326   6.310 -0.1029  1.4180 -1.3917
14485TIP3    H264947   4.222   2.368   6.455  1.0275  0.4230 -1.1079
14486TIP3   OH264948   2.828   2.145   3.376  0.3292  0.2113  0.0638
14486TIP3    H164949   2.917   2.156   3.344 -0.1374  0.5973 -1.1547
14486TIP3    H264950   2.794   2.234   3.383  0.3351  0.1315  1.4724
14487TIP3   OH264951   4.596   2.074   2.538  0.2262 -0.2521  0.3200
14487TIP3    H164952   4.657   2.027   2.482  0.8830  1.2769 -0.2961
14487TIP3    H264953   4.520   2.090   2.482  0.7503  0.9878 -0.0774
14488TIP3   OH264954   5.521   4.431  12.361  0.2580 -0.5862  0.7461
14488TIP3    H164955   5.468   4.352  12.373 -2.3053  1.0073  0.6738
14488TIP3    H264956   5.483   4.495  12.421  0.0514  1.5537 -1.5164
14489TIP3   OH264957   0.729   1.307  12.361  0.2230  0.0866  0.0999
14489TIP3    H164958   0.737   1.372  12.431  0.6439  1.2860 -1.0282
14489TIP3    H264959   0.819   1.289  12.334  0.0241  0.2884 -0.7134
14490TIP3   OH264960   4.491   4.180   0.304 -0.0784 -0.3431 -0.3928
14490TIP3    H164961   4.420   4.172   0.240 -0.1154  0.3461 -0.4457
14490TIP3    H264962   4.526   4.268   0.290  0.3363 -0.4264  0.0981
14491TIP3   OH264963   6.550   0.379   5.318  0.8241 -0.3188 -0.4579
14491TIP3    H164964   6.477   0.355   5.376  1.3819  0.5176  0.6175
14491TIP3    H264965   6.566   0.471   5.336  0.8443  0.0499 -2.1760
14492TIP3   OH264966   1.245   1.993   6.020 -0.0624 -0.0930 -0.2574
14492TIP3    H164967   1.246   2.070   5.963  0.5352  0.2295  0.1622
14492TIP3    H264968   1.156   1.960   6.017 -0.2242  0.3937 -0.7501
14493TIP3   OH264969   0.464   1.207  14.559  0.2323  0.1103  0.2932
14493TIP3    H164970   0.543   1.226  14.608  1.4771  0.2921 -1.6666
14493TIP3    H264971   0.485   1.231  14.468 -2.6781  1.9688 -0.0535
14494TIP3   OH264972   0.354   1.169  12.438  0.4583  0.3875  0.7335
14494TIP3    H164973   0.336   1.077  12.459 -1.3214  0.3936 -0.4857
14494TIP3    H264974   0.375   1.210  12.521 -0.6418 -0.7379  1.5996
14495TIP3   OH264975   4.021   3.545   3.714 -0.2383  0.4571 -0.4086
14495TIP3    H164976   3.945   3.528   3.769 -2.1936  0.7526 -2.8554
14495TIP3    H264977   4.058   3.459   3.696  0.7056  0.3895  1.6345
14496TIP3   OH264978   6.305   5.162  12.737  0.2582 -0.0085  0.8144
14496TIP3    H164979   6.299   5.213  12.818 -0.6306  1.0762  0.1051
14496TIP3    H264980   6.337   5.225  12.672 -1.2965 -0.1924 -0.1960
14497TIP3   OH264981   2.682   5.229   4.101 -0.6694 -0.5570 -0.2770
14497TIP3    H164982   2.755   5.173   4.073 -0.1372 -0.6110  1.1301
14497TIP3    H264983   2.645   5.183   4.176 -1.4134  0.0658 -0.2565
14498TIP3   OH264984   2.099   5.613   3.479 -0.1354  0.4690  0.2315
14498TIP3    H164985   2.147   5.645   3.403 -0.1435 -1.0601 -0.4581
14498TIP3    H264986   2.130   5.523   3.491 -3.1384 -0.7922 -0.5728
14499TIP3   OH264987   3.884   0.771  14.199  0.0733  0.4394 -0.8283
14499TIP3    H164988   3.832   0.841  14.238 -0.7743  0.1349 -1.3867
14499TIP3    H264989   3.846   0.691  14.234 -0.4466  0.1784 -1.9544
14500TIP3   OH264990   4.600   5.626   1.695 -0.2477 -0.5337 -0.4509
14500TIP3    H164991   4.616   5.532   1.704  1.7472 -0.2738 -0.7532
14500TIP3    H264992   4.643   5.649   1.612 -0.0161  0.7702  0.0138
14501TIP3   OH264993   4.624   2.128  11.366  0.1664  0.8556  0.1144
14501TIP3    H164994   4.536   2.092  11.364  0.2322  0.5951  1.1285
14501TIP3    H264995   4.621   2.204  11.308 -0.1072 -0.4560 -1.6809
14502TIP3   OH264996   5.207   6.578  12.033 -0.0768 -0.2137 -0.2962
14502TIP3    H164997   5.117   6.587  12.000  0.5604 -1.0684 -2.3827
14502TIP3    H264998   5.240   6.499  11.991  1.9241  0.5139 -0.1783
14503TIP3   OH264999   2.556   3.289  13.828  0.3908 -0.5118  0.3870
14503TIP3    H165000   2.570   3.219  13.764  2.3043 -0.0659  0.2509
14503TIP3    H265001   2.643   3.326  13.842 -0.2038  0.2944  2.2461
14504TIP3   OH265002   6.637   1.705   4.841  0.1860  0.6417  0.6233
14504TIP3    H165003   6.614   1.633   4.899  0.2611  0.5974  0.5983
14504TIP3    H265004   6.560   1.718   4.786 -0.0600  0.9907  1.0442
14505TIP3   OH265005   2.168   1.437  14.405 -0.0176  0.3653 -0.3756
14505TIP3    H165006   2.149   1.454  14.313 -0.8305  0.2665 -0.2330
14505TIP3    H265007   2.180   1.524  14.444 -1.0311  0.4748 -0.2954
14506TIP3   OH265008   6.481   2.654   1.167  0.3471  0.2100  0.1537
14506TIP3    H165009   6.455   2.738   1.129 -0.1358  0.2922  0.6555
14506TIP3    H265010   6.503   2.599   1.092  1.3711  1.0072 -0.1597
14507TIP3   OH265011   3.816   2.069   1.802  0.4658 -0.3665  0.5467
14507TIP3    H165012   3.844   2.160   1.811  1.8775 -0.4151 -2.1900
14507TIP3    H265013   3.742   2.074   1.742 -0.2968 -0.9515  1.4158
14508TIP3   OH265014   5.949   5.186  15.610 -0.3683 -0.0426 -0.0112
14508TIP3    H165015   6.040   5.155  15.612  0.1180  1.3382  0.0917
14508TIP3    H265016   5.929   5.197  15.517 -0.4162 -0.2968 -0.0314
14509TIP3   OH265017   2.984   3.832  15.315 -0.3587 -0.5855  0.1910
14509TIP3    H165018   3.042   3.908  15.307 -0.2341 -0.7975 -1.0771
14509TIP3    H265019   3.031   3.761  15.271 -0.0611 -1.6692  2.1784
14510TIP3   OH265020   5.074   1.200  14.995  0.6217  0.2077  0.1099
14510TIP3    H165021   5.152   1.249  14.968  0.2250  0.2064 -1.0812
14510TIP3    H265022   5.072   1.125  14.937  0.0448 -0.1042  0.5301
14511TIP3   OH265023   5.227   5.681  14.711 -0.3262  0.0950 -0.0559
14511TIP3    H165024   5.203   5.708  14.799 -1.1259  1.8013 -0.7436
14511TIP3    H265025   5.319   5.706  14.702  0.2953 -1.6972  0.8391
14512TIP3   OH265026   4.206   3.509  13.703  0.0342  0.3978  0.5110
14512TIP3    H165027   4.159   3.459  13.770 -1.1373  0.2150 -0.4043
14512TIP3    H265028   4.275   3.450  13.673 -0.2532 -0.0207  0.6557
14513TIP3   OH265029   5.405   3.407   2.963 -0.0976  0.1330  0.2222
14513TIP3    H165030   5.411   3.325   3.013  0.0060  0.7747  1.3039
14513TIP3    H265031   5.496   3.436   2.954 -0.2722  1.3505  1.9843
14514TIP3   OH265032   1.674   0.063  13.785  0.4867  0.5327  0.4688
14514TIP3    H165033   1.704   0.154  13.793  0.9961  0.3363  0.8517
14514TIP3    H265034   1.679   0.029  13.874 -0.5903  0.3954  0.4855
14515TIP3   OH265035   4.000   5.863  11.064 -0.2059  1.0541  0.0210
14515TIP3    H165036   3.910   5.853  11.095  0.1084  0.2110  0.7230
14515TIP3    H265037   4.015   5.786  11.009 -0.0233  1.3794 -0.3912
14516TIP3   OH265038   4.591   6.374   2.449 -0.5862  0.3962 -0.7262
14516TIP3    H165039   4.525   6.420   2.398  0.1644  0.5070 -1.6147
14516TIP3    H265040   4.607   6.293   2.402 -0.3710  0.1890 -0.3076
14517TIP3   OH265041   3.972   0.591   5.350  0.3220  0.6298 -0.3155
14517TIP3    H165042   4.008   0.679   5.340  1.7217 -0.0820 -2.3279
14517TIP3    H265043   4.009   0.542   5.276 -0.9418 -1.4769  0.3647
14518TIP3   OH265044   0.139   6.136   0.305  0.4263 -0.5921  0.0382
14518TIP3    H165045   0.128   6.074   0.233 -1.1110  0.5625 -0.7795
14518TIP3    H265046   0.054   6.136   0.350  1.1744 -0.8558  1.5197
14519TIP3   OH265047   4.146   1.957  16.253 -0.0006  0.0701 -0.4693
14519TIP3    H165048   4.073   1.900  16.279 -0.1365  0.3417 -0.2507
14519TIP3    H265049   4.205   1.899  16.204  0.2001 -0.4274  0.3360
14520TIP3   OH265050   0.332   4.888   0.438 -0.0947  0.8287 -0.4275
14520TIP3    H165051   0.237   4.884   0.443 -0.1306  1.9246 -0.1057
14520TIP3    H265052   0.361   4.892   0.529  0.2840  0.1486 -0.5112
14521TIP3   OH265053   6.336   5.077   5.665  0.1127 -0.1444 -0.3354
14521TIP3    H165054   6.245   5.063   5.638 -0.7151  1.3482  1.4493
14521TIP3    H265055   6.337   5.165   5.703  1.9975 -0.6227  0.8783
14522TIP3   OH265056   2.242   3.942  14.247 -0.7598  0.2934  0.3660
14522TIP3    H165057   2.337   3.938  14.238 -0.8261  0.1881 -0.3259
14522TIP3    H265058   2.212   3.853  14.225 -1.1021  0.6320 -0.5920
14523TIP3   OH265059   4.912   2.249  17.609 -0.2290  0.6553 -0.8684
14523TIP3    H165060   4.896   2.159  17.581  0.0130  0.7932 -1.4624
14523TIP3    H265061   4.828   2.280  17.641  0.1709 -0.5463  1.5599
14524TIP3   OH265062   3.366   3.912   2.552  0.0013  0.1984 -0.1122
14524TIP3    H165063   3.371   3.851   2.478 -0.3853 -1.1244  0.9143
14524TIP3    H265064   3.457   3.936   2.570  0.3721 -1.6397  0.6962
14525TIP3   OH265065   1.036   2.286   3.919  0.0078 -0.2342 -0.1139
14525TIP3    H165066   1.063   2.244   3.837  0.7450 -0.2640  0.1393
14525TIP3    H265067   1.105   2.351   3.936  1.6562 -2.3994  2.1507
14526TIP3   OH265068   2.345   3.202  12.549  0.4388 -0.1381 -0.1538
14526TIP3    H165069   2.370   3.142  12.620  1.4193 -0.0894 -0.4568
14526TIP3    H265070   2.350   3.148  12.470  1.2079  0.3118 -0.4127
14527TIP3   OH265071   3.871   2.518   2.292  0.5986  0.1005 -0.1051
14527TIP3    H165072   3.791   2.495   2.338 -0.5309  1.8403 -1.0713
14527TIP3    H265073   3.940   2.468   2.336 -0.8178 -0.4331  1.6148
14528TIP3   OH265074   4.537   4.757   2.245 -0.5283 -0.2958 -0.2873
14528TIP3    H165075   4.566   4.673   2.280 -0.9653 -0.7965 -1.1044
14528TIP3    H265076   4.442   4.751   2.242 -0.6161  0.5306  0.3647
14529TIP3   OH265077   5.377   4.838  16.038 -0.5985  0.2346 -0.3791
14529TIP3    H165078   5.297   4.888  16.054 -0.9907 -0.3275 -0.5677
14529TIP3    H265079   5.360   4.752  16.076 -0.6402 -0.3590 -1.6963
14530TIP3   OH265080   3.824   5.795   3.043  0.0823 -0.0375  0.5924
14530TIP3    H165081   3.746   5.743   3.024  0.4133  0.1766 -1.6049
14530TIP3    H265082   3.814   5.820   3.135 -2.4101 -0.0495  0.4005
14531TIP3   OH265083   5.498   3.660   4.820 -0.0488 -0.4544 -0.1877
14531TIP3    H165084   5.580   3.645   4.866  1.3587 -0.1851 -2.4893
14531TIP3    H265085   5.447   3.715   4.880  2.3972  1.3499  0.4101
14532TIP3   OH265086   3.152   5.738   1.447  0.1550 -0.3722 -0.6204
14532TIP3    H165087   3.072   5.789   1.434 -0.4066 -1.1448 -0.2333
14532TIP3    H265088   3.210   5.767   1.376  0.2145  1.4782  0.1074
14533TIP3   OH265089   5.562   2.443  11.786  0.3784  0.0800 -0.1137
14533TIP3    H165090   5.651   2.473  11.767 -0.0332  0.0290 -2.3714
14533TIP3    H265091   5.574   2.360  11.832  1.5198 -0.3005 -1.0541
14534TIP3   OH265092   5.744   2.941  15.845 -0.3679  0.4348 -0.3028
14534TIP3    H165093   5.675   2.879  15.868  0.6973 -0.2198  1.2645
14534TIP3    H265094   5.823   2.888  15.835  0.5170  1.4819  0.8236
14535TIP3   OH265095   5.958   6.416  13.436 -0.4932  0.5573  0.2437
14535TIP3    H165096   5.904   6.480  13.482  1.4476  0.6950  2.5360
14535TIP3    H265097   6.042   6.419  13.481  0.7082 -1.3032 -1.6784
14536TIP3   OH265098   5.868   3.323   4.256  0.0828 -0.7009 -0.0442
14536TIP3    H165099   5.891   3.414   4.237  2.1666 -1.2360 -0.3489
14536TIP3    H265100   5.773   3.321   4.254 -0.0018  1.4228 -0.2444
14537TIP3   OH265101   6.299   6.528  12.099 -0.5399  0.1112  0.0210
14537TIP3    H165102   6.304   6.459  12.033 -0.4557 -0.0079  0.1503
14537TIP3    H265103   6.355   6.496  12.170 -1.1021 -0.0359  0.4038
14538TIP3   OH265104   2.690   1.877  12.388 -0.5356 -0.0292 -0.3400
14538TIP3    H165105   2.717   1.930  12.313  0.1461  0.6728  0.3786
14538TIP3    H265106   2.623   1.819  12.353  1.2126 -1.1819 -1.9803
14539TIP3   OH265107   1.117   6.486  17.658  0.2962  0.2129 -0.1689
14539TIP3    H165108   1.182   6.496  17.589  1.8329  1.0816  1.3071
14539TIP3    H265109   1.168   6.488  17.739 -1.3442 -1.6003  0.9840
14540TIP3   OH265110   5.224   0.004   1.136  0.0357 -0.7484  0.5078
14540TIP3    H165111   5.174   0.045   1.066  1.3602 -1.7849 -1.1322
14540TIP3    H265112   5.224   0.069   1.207 -0.8549  0.5937 -0.6661
14541TIP3   OH265113   2.451   4.287  16.848  0.3983  0.2424  0.6324
14541TIP3    H165114   2.368   4.290  16.895  1.1161 -2.1279  2.2385
14541TIP3    H265115   2.513   4.331  16.906  0.6347  0.3054  0.3360
14542TIP3   OH265116   3.401   0.524  13.745 -0.3951  0.2634  0.3086
14542TIP3    H165117   3.459   0.472  13.801 -0.5385  0.8895  1.0504
14542TIP3    H265118   3.459   0.567  13.683 -0.3564 -1.5785 -1.0120
14543TIP3   OH265119   5.176   6.584   4.290  0.7039  0.0312  0.1635
14543TIP3    H165120   5.208   6.505   4.246 -1.1295  0.5485 -2.3498
14543TIP3    H265121   5.237   6.652   4.263  1.4625 -0.2455  1.1528
14544TIP3   OH265122   2.352   4.960   0.916 -0.3794 -0.0659 -0.6988
14544TIP3    H165123   2.318   4.873   0.896 -0.0792  0.1635 -2.3519
14544TIP3    H265124   2.300   5.020   0.862  0.0869  0.6792 -0.3493
14545TIP3   OH265125   3.321   6.531  15.880 -0.2884  0.2712  0.2574
14545TIP3    H165126   3.253   6.465  15.896  2.2335 -2.8797 -0.9687
14545TIP3    H265127   3.302   6.563  15.792 -1.5212  1.2623  0.8511
14546TIP3   OH265128   0.045   5.960   0.955 -0.1292 -0.3720  0.3170
14546TIP3    H165129   0.044   6.043   0.909  0.1476 -1.1841 -1.2296
14546TIP3    H265130  -0.038   5.918   0.932  0.3956 -1.1653 -0.2040
14547TIP3   OH265131   4.023   6.449   5.728 -0.4576  0.5093  0.4078
14547TIP3    H165132   4.094   6.414   5.783  1.3823 -1.2628 -2.7804
14547TIP3    H265133   4.067   6.480   5.649 -3.0166  2.3066 -0.4420
14548TIP3   OH265134   3.449   5.936  12.173  0.1051 -0.5841 -0.2845
14548TIP3    H165135   3.384   5.970  12.236  1.2121  1.5676 -0.2097
14548TIP3    H265136   3.404   5.941  12.089  0.2628  1.3636 -0.3040
14549TIP3   OH265137   3.671   5.051  16.245  0.1325 -0.0020 -0.1265
14549TIP3    H165138   3.602   5.117  16.255 -0.7625 -0.8174 -0.6940
14549TIP3    H265139   3.625   4.973  16.215  1.3185 -0.5584 -0.5632
14550TIP3   OH265140   6.161   3.102  11.625  0.9961 -0.2124 -0.2569
14550TIP3    H165141   6.199   3.030  11.574  2.1584  0.9067 -1.0394
14550TIP3    H265142   6.160   3.176  11.564  0.4569  0.6141  0.7295
14551TIP3   OH265143   0.437   6.194   3.947  0.3380 -0.0065  0.6063
14551TIP3    H165144   0.528   6.221   3.944  0.8935 -1.6216  1.9303
14551TIP3    H265145   0.421   6.153   3.862  1.0126 -0.2145  0.5772
14552TIP3   OH265146   5.986   5.891  16.399 -0.8825  0.0999  0.6756
14552TIP3    H165147   5.960   5.981  16.417 -2.2378  0.0423 -0.8087
14552TIP3    H265148   6.037   5.897  16.318 -1.5723 -0.5484  0.1880
14553TIP3   OH265149   5.975   3.141   3.163  0.1402  0.0814 -0.0685
14553TIP3    H165150   5.959   3.153   3.070 -0.3291 -0.0108 -0.0015
14553TIP3    H265151   5.891   3.162   3.205  0.1623 -0.5181  0.2841
14554TIP3   OH265152   0.591   5.968   5.877  0.1375  0.2743  0.0795
14554TIP3    H165153   0.500   5.970   5.906 -0.3141  0.8235 -1.2872
14554TIP3    H265154   0.635   6.029   5.936 -0.1958 -0.5932  1.2610
14555TIP3   OH265155   1.635   3.534   0.560  0.1849 -0.0405  0.6612
14555TIP3    H165156   1.586   3.611   0.588 -1.0033 -0.4955 -0.0711
14555TIP3    H265157   1.568   3.474   0.528  1.0018 -1.6448  1.7971
14556TIP3   OH265158   0.737   5.865  12.403 -0.3464 -0.3307 -0.1496
14556TIP3    H165159   0.785   5.874  12.486  1.2111 -0.4077 -1.0006
14556TIP3    H265160   0.785   5.798  12.354 -0.6460  0.4004 -1.5061
14557TIP3   OH265161   4.104   4.648  13.654  0.3866 -0.4918 -0.3531
14557TIP3    H165162   4.083   4.741  13.660  1.3445 -0.3491  1.5152
14557TIP3    H265163   4.169   4.642  13.583  1.7169  0.5665  0.7313
14558TIP3   OH265164   2.541   0.411   3.602 -0.0181  0.1548 -0.1486
14558TIP3    H165165   2.602   0.358   3.654  0.4062 -1.1530 -1.8905
14558TIP3    H265166   2.456   0.367   3.614 -0.8176  2.1692  2.5520
14559TIP3   OH265167   2.939   5.519  11.100  0.0474 -0.5967 -0.6852
14559TIP3    H165168   2.880   5.532  11.174 -0.3502 -0.7476 -0.9709
14559TIP3    H265169   2.970   5.429  11.110 -0.9532 -1.0362 -1.3629
14560TIP3   OH265170   3.029   3.965  15.878 -0.3582  0.0367 -0.0075
14560TIP3    H165171   3.029   4.049  15.925  0.8601  0.0573 -0.0185
14560TIP3    H265172   3.099   3.914  15.920 -0.7896 -0.8045 -0.2993
14561TIP3   OH265173   4.600   0.117  16.338  0.5645 -0.4398  0.0087
14561TIP3    H165174   4.545   0.039  16.339 -0.0666 -0.0054  0.3348
14561TIP3    H265175   4.562   0.172  16.269 -0.1096  0.3388  0.9741
14562TIP3   OH265176   1.895   1.610   0.943 -0.3978  0.3501  0.7386
14562TIP3    H165177   1.846   1.535   0.907  0.1706  0.9168 -1.3358
14562TIP3    H265178   1.827   1.672   0.969 -0.8439  0.3182 -0.2957
14563TIP3   OH265179   1.721   5.228  15.423  0.0498 -0.5424  0.0317
14563TIP3    H165180   1.778   5.269  15.489  0.3876  0.6785 -0.9800
14563TIP3    H265181   1.637   5.217  15.468  0.5223 -0.5441  0.9347
14564TIP3   OH265182   5.080   4.282   3.891 -0.6064  0.0679  0.1122
14564TIP3    H165183   5.074   4.377   3.897 -0.4786  0.1950 -1.3390
14564TIP3    H265184   5.034   4.249   3.968  0.2086  1.3096  1.1701
14565TIP3   OH265185   2.062   4.253   4.371 -0.6397 -0.3939 -0.3534
14565TIP3    H165186   2.011   4.250   4.290 -0.3012  2.2267 -0.7670
14565TIP3    H265187   2.147   4.288   4.344 -0.0564 -0.7638  0.9377
14566TIP3   OH265188   4.783   5.054  11.138 -0.0320  0.1306  0.2024
14566TIP3    H165189   4.764   4.963  11.112  2.5569 -0.9331  1.6595
14566TIP3    H265190   4.697   5.095  11.144 -1.2246 -1.8285 -1.7925
14567TIP3   OH265191   1.824   5.235  15.803 -0.6194  0.4004 -0.1231
14567TIP3    H165192   1.867   5.197  15.879 -1.3197  0.9849  0.5900
14567TIP3    H265193   1.784   5.161  15.758 -0.4767  0.0835  0.2708
14568TIP3   OH265194   5.893   3.864  14.022  0.0473 -0.0735  0.1518
14568TIP3    H165195   5.940   3.894  13.944  0.3882  3.8121  1.6129
14568TIP3    H265196   5.960   3.822  14.075  0.4527 -0.1708 -0.4277
14569TIP3   OH265197   4.657   2.702  16.260  0.1857  0.4198 -0.1013
14569TIP3    H165198   4.705   2.631  16.216  1.1099  0.3243  1.0057
14569TIP3    H265199   4.569   2.666  16.273  0.6992 -0.6268  0.6360
14570TIP3   OH265200   0.167   0.443  16.127 -0.2540 -0.5160 -0.1594
14570TIP3    H165201   0.244   0.501  16.132 -0.4932 -0.2436  0.6484
14570TIP3    H265202   0.183   0.387  16.052 -0.1304  0.7832 -1.1396
14571TIP3   OH265203   5.848   1.484  13.167 -0.0253  0.3594  0.3743
14571TIP3    H165204   5.897   1.532  13.234  0.7856 -0.9677  0.7805
14571TIP3    H265205   5.912   1.468  13.098 -0.9095  1.8954 -0.8620
14572TIP3   OH265206   0.032   3.234  12.914  0.2623 -0.3010 -0.1413
14572TIP3    H165207   0.069   3.309  12.869  1.0000 -1.3514 -1.3418
14572TIP3    H265208   0.097   3.210  12.980  1.7077 -1.9332 -2.0194
14573TIP3   OH265209   2.682   4.603  12.769  0.3178 -0.1967  0.1578
14573TIP3    H165210   2.615   4.602  12.700  0.2074  1.5244  0.2071
14573TIP3    H265211   2.656   4.674  12.827  1.4763 -0.3685  0.9148
14574TIP3   OH265212   0.807   3.274  15.035  0.6104  0.2318  0.3030
14574TIP3    H165213   0.839   3.362  15.056  3.4666 -1.1642  2.4803
14574TIP3    H265214   0.796   3.232  15.121  2.3271 -2.4839 -0.7043
14575TIP3   OH265215   5.089   5.509  16.106  0.1522  0.2710  0.2645
14575TIP3    H165216   5.158   5.464  16.057  1.1796  0.6679  1.3139
14575TIP3    H265217   5.130   5.536  16.187 -0.8584  1.7906  0.3202
14576TIP3   OH265218   3.894   5.638  17.609 -0.4561 -0.3401 -0.6616
14576TIP3    H165219   3.950   5.580  17.557  0.1966 -0.8705  0.6165
14576TIP3    H265220   3.871   5.587  17.686 -1.2726  0.5074 -0.3319
14577TIP3   OH265221   2.624   1.000  11.936 -0.3587  0.3288  0.4894
14577TIP3    H165222   2.530   1.019  11.946 -0.9542 -2.1599  0.2794
14577TIP3    H265223   2.665   1.041  12.012 -2.1961 -1.9340  2.8760
14578TIP3   OH265224   6.117   6.490  15.597  0.3241 -0.2194  0.1575
14578TIP3    H165225   6.046   6.516  15.655  1.2026  1.5346  0.5362
14578TIP3    H265226   6.157   6.414  15.639 -0.4133 -0.3275  0.6824
14579TIP3   OH265227   5.454   5.345  10.747  0.2321  0.0219  0.0058
14579TIP3    H165228   5.460   5.430  10.704 -3.5589  0.8635  0.7719
14579TIP3    H265229   5.386   5.356  10.813  0.0979 -3.4242  0.6258
14580TIP3   OH265230   0.611   5.013   0.705 -0.4359 -0.1397 -0.2475
14580TIP3    H165231   0.586   4.963   0.782 -2.1979  1.1774  0.1101
14580TIP3    H265232   0.627   4.947   0.637  0.3109 -1.2764  0.9873
14581TIP3   OH265233   4.763   5.463   6.854  0.2927 -0.7692 -0.7265
14581TIP3    H165234   4.794   5.425   6.936 -0.1526 -0.5062 -0.4328
14581TIP3    H265235   4.670   5.478   6.868  0.6270  1.3693 -0.4543
14582TIP3   OH265236   1.835   5.942  13.319 -0.1734 -0.1053 -0.4796
14582TIP3    H165237   1.779   5.998  13.372  2.6907  0.6888  1.9320
14582TIP3    H265238   1.852   5.865  13.374  2.2126  0.3424 -0.4974
14583TIP3   OH265239   0.334   5.754   4.691 -0.1781 -0.1358 -0.1315
14583TIP3    H165240   0.313   5.687   4.626 -0.4791  0.6980 -0.9137
14583TIP3    H265241   0.428   5.743   4.707 -0.4413 -1.5344  0.6961
14584TIP3   OH265242   5.671   1.463  12.067  0.5498 -0.7764 -0.8189
14584TIP3    H165243   5.668   1.369  12.048 -0.4913 -0.6826 -1.1869
14584TIP3    H265244   5.597   1.499  12.020 -0.7050 -0.1572  1.4858
14585TIP3   OH265245   0.057   1.734   2.532  0.0274  0.4608 -0.1635
14585TIP3    H165246   0.063   1.664   2.597 -0.8964 -0.7688 -1.3457
14585TIP3    H265247   0.111   1.805   2.568 -1.7082  0.4787  2.6933
14586TIP3   OH265248   2.524   0.273  17.555 -0.1761 -0.3383  0.0614
14586TIP3    H165249   2.531   0.350  17.498  0.0169 -2.1069 -2.4642
14586TIP3    H265250   2.610   0.267  17.597 -0.0171  0.4919 -0.1304
14587TIP3   OH265251   1.595   1.724   5.591  0.5217  0.2700 -0.0085
14587TIP3    H165252   1.595   1.813   5.556 -2.2478  0.3681  0.0385
14587TIP3    H265253   1.598   1.735   5.686  0.7950  0.2686 -0.0150
14588TIP3   OH265254   0.427   1.202  14.952  0.5254 -0.1571 -0.5835
14588TIP3    H165255   0.407   1.284  14.998  1.8809 -0.2810  0.2744
14588TIP3    H265256   0.379   1.209  14.869  0.1940  1.2622 -0.3057
14589TIP3   OH265257   1.721   6.389   0.484  0.6127 -0.0721 -0.5677
14589TIP3    H165258   1.667   6.343   0.549  0.5059  1.1779  0.2752
14589TIP3    H265259   1.773   6.320   0.443  1.0572 -0.8843  1.2223
14590TIP3   OH265260   5.258   0.695  11.496  0.2600 -0.4530  0.0423
14590TIP3    H165261   5.232   0.744  11.418 -0.7334 -0.0289  0.6178
14590TIP3    H265262   5.195   0.722  11.563  1.8943  0.2055  1.3706
14591TIP3   OH265263   1.920   0.389  16.622 -0.6033 -0.6676  0.1850
14591TIP3    H165264   1.826   0.410  16.621 -0.2034  1.5442  1.5025
14591TIP3    H265265   1.924   0.301  16.661 -2.1614 -1.2951 -0.9696
14592TIP3   OH265266   4.985   3.815  15.013  0.1548  0.5313  0.2005
14592TIP3    H165267   4.991   3.851  15.102  0.9688 -1.4939  1.0251
14592TIP3    H265268   5.042   3.738  15.014 -1.0297 -0.4535 -1.6094
14593TIP3   OH265269   4.616   1.659  17.115  0.4585 -0.1832  0.2687
14593TIP3    H165270   4.680   1.719  17.078  1.9419 -1.2589  0.9860
14593TIP3    H265271   4.535   1.678  17.068  1.4386  0.7838 -1.1033
14594TIP3   OH265272   0.662   2.540  15.611  0.0094  1.0166  0.5952
14594TIP3    H165273   0.715   2.617  15.631 -0.4040  1.2558  0.7946
14594TIP3    H265274   0.725   2.473  15.584  0.4128  1.2754  0.8918
14595TIP3   OH265275   6.000   1.369   5.434 -0.0695 -0.6501  0.1917
14595TIP3    H165276   5.932   1.434   5.452  1.8580  1.8874 -0.9582
14595TIP3    H265277   6.053   1.367   5.513 -0.6090 -1.5080  0.5415
14596TIP3   OH265278   0.256   3.694   6.242  0.3420 -0.1506  0.3178
14596TIP3    H165279   0.233   3.767   6.300 -2.5150 -1.2196  0.6633
14596TIP3    H265280   0.293   3.736   6.164  0.8719  1.5053  1.4135
14597TIP3   OH265281   4.328   4.771  13.831  0.4200  0.4255  0.2141
14597TIP3    H165282   4.283   4.838  13.884  1.5280  1.6445 -0.3304
14597TIP3    H265283   4.260   4.739  13.771 -0.0351  1.4046  0.1796
14598TIP3   OH265284   6.336   0.078  15.205  0.0008  0.0262  0.0857
14598TIP3    H165285   6.242   0.081  15.222 -0.2022  3.5452 -0.9421
14598TIP3    H265286   6.375   0.048  15.288 -1.8923  0.3656  1.1413
14599TIP3   OH265287   0.553   6.023   0.831  0.2595  0.7655 -0.5353
14599TIP3    H165288   0.512   5.942   0.801 -0.3577  0.6737  0.5045
14599TIP3    H265289   0.608   6.051   0.758  1.0651 -0.9760 -0.6549
14600TIP3   OH265290   6.639   2.723  14.131  0.5131 -0.7344  0.4427
14600TIP3    H165291   6.548   2.734  14.103  1.1430  0.3048 -1.4031
14600TIP3    H265292   6.635   2.655  14.198 -1.5475 -1.1783 -0.0363
14601TIP3   OH265293   2.528   1.426  17.396  0.4320 -0.1920  0.1540
14601TIP3    H165294   2.537   1.358  17.329 -1.4408  0.1018 -0.4644
14601TIP3    H265295   2.587   1.496  17.367  0.6376 -0.6139 -0.4726
14602TIP3   OH265296   3.490   4.885  15.050  0.0044 -0.1070 -0.0216
14602TIP3    H165297   3.545   4.809  15.069  0.6931  0.1615 -0.8730
14602TIP3    H265298   3.419   4.880  15.114  2.0002  0.5986  2.4387
14603TIP3   OH265299   2.820   1.806  11.807  0.0294 -0.2910 -0.2366
14603TIP3    H165300   2.729   1.834  11.798  0.1567  0.2552  0.1455
14603TIP3    H265301   2.831   1.790  11.901 -0.0125 -1.5611 -0.4228
14604TIP3   OH265302   6.050   0.532   4.174 -0.5373  0.5993  0.0843
14604TIP3    H165303   6.013   0.607   4.220 -0.8875 -0.3061  1.3302
14604TIP3    H265304   6.098   0.484   4.242  0.5394  0.2323 -0.9035
14605TIP3   OH265305   0.251   3.224  16.197  0.2480 -0.2042 -0.0561
14605TIP3    H165306   0.178   3.281  16.222 -1.0833 -1.0292 -1.8237
14605TIP3    H265307   0.277   3.181  16.278  2.0477  3.5889  1.6080
14606TIP3   OH265308   2.087   0.992  17.155  0.3421 -0.1979  0.1102
14606TIP3    H165309   2.087   0.902  17.187  0.5582 -0.1575  0.2284
14606TIP3    H265310   2.178   1.009  17.133  0.3262  0.0397  0.2281
14607TIP3   OH265311   6.362   4.625   7.161 -0.7022 -0.1557 -0.4590
14607TIP3    H165312   6.369   4.686   7.235 -1.9411 -0.7098  0.1443
14607TIP3    H265313   6.278   4.648   7.120 -0.5406 -0.5768 -1.0265
14608TIP3   OH265314   3.133   4.963   4.662  0.2600  0.4573 -0.5296
14608TIP3    H165315   3.195   5.010   4.718 -0.3303 -0.5542  1.0429
14608TIP3    H265316   3.158   4.988   4.573  2.4231  0.6996  0.0741
14609TIP3   OH265317   1.813   0.840  17.597 -0.4632  0.3363 -0.5956
14609TIP3    H165318   1.856   0.913  17.552 -1.4829 -0.2845 -2.7148
14609TIP3    H265319   1.820   0.862  17.690 -0.0707  2.7574 -1.1203
14610TIP3   OH265320   4.301   3.009  16.763 -0.1587  0.1968  0.6875
14610TIP3    H165321   4.366   2.956  16.717  0.1969 -0.6697  2.1322
14610TIP3    H265322   4.337   3.022  16.851 -1.6917  0.1327  1.3685
14611TIP3   OH265323   2.098   0.854   4.990  0.0488 -0.1728 -0.3905
14611TIP3    H165324   2.096   0.873   4.896  0.8217 -1.4062 -0.6812
14611TIP3    H265325   2.083   0.760   4.996 -0.4589 -0.0326  0.7633
14612TIP3   OH265326   3.221   0.089  14.821  0.4828 -0.1732  0.6381
14612TIP3    H165327   3.161   0.058  14.890  0.2996  1.7276  1.3905
14612TIP3    H265328   3.178   0.063  14.739  0.3619 -1.8751  1.1976
14613TIP3   OH265329   5.882   5.169  10.823 -0.1957 -0.6636  0.2974
14613TIP3    H165330   5.814   5.109  10.792  2.3668 -1.6174 -4.3538
14613TIP3    H265331   5.872   5.248  10.769  3.2885 -1.5627 -2.0100
14614TIP3   OH265332   0.885   4.786  14.106 -0.2593  0.2988 -0.0900
14614TIP3    H165333   0.817   4.852  14.092 -1.2738 -0.6593  0.1831
14614TIP3    H265334   0.846   4.725  14.169  1.1197  0.0960  0.6001
14615TIP3   OH265335   5.844   5.614  13.891 -0.1308  0.2404  0.1627
14615TIP3    H165336   5.864   5.687  13.832  1.9226  0.4463  1.0269
14615TIP3    H265337   5.896   5.632  13.970 -3.3856  0.4083  2.4572
14616TIP3   OH265338   6.668   2.272  17.441 -0.4134  0.9214 -0.1875
14616TIP3    H165339   6.613   2.327  17.385 -0.1164  0.6401 -0.7618
14616TIP3    H265340   6.630   2.184  17.433  0.3502  0.6430 -0.9157
14617TIP3   OH265341   6.288   0.879   5.168  0.3197  0.9324 -0.1352
14617TIP3    H165342   6.325   0.893   5.081  0.6448  0.9264  0.0025
14617TIP3    H265343   6.242   0.795   5.161 -0.1155  1.1893 -0.4505
14618TIP3   OH265344   3.009   5.894  13.010  0.2833  0.0032 -0.2127
14618TIP3    H165345   3.047   5.965  12.958  2.9256 -1.6183 -0.6138
14618TIP3    H265346   3.034   5.914  13.100  0.8431 -0.2916 -0.3002
14619TIP3   OH265347   0.472   4.533  17.381 -0.1627 -0.5667 -0.1437
14619TIP3    H165348   0.552   4.563  17.339  0.8750 -0.4928  1.8177
14619TIP3    H265349   0.426   4.613  17.407  0.6051 -0.5876  1.3835
14620TIP3   OH265350   2.997   3.284   0.360  0.5494  0.3206 -0.6271
14620TIP3    H165351   3.023   3.255   0.272  1.8861  1.3752 -0.6283
14620TIP3    H265352   3.028   3.375   0.364 -0.8235  0.7733  0.4144
14621TIP3   OH265353   3.111   0.553   1.126 -0.2965  0.7415 -0.0525
14621TIP3    H165354   3.181   0.522   1.068 -0.5337  0.8941 -0.4219
14621TIP3    H265355   3.031   0.518   1.088 -0.2095 -2.4878  2.2896
14622TIP3   OH265356   1.356   2.520   4.522  0.3627  0.0763  0.2127
14622TIP3    H165357   1.411   2.464   4.467  0.7595  1.0722 -0.4375
14622TIP3    H265358   1.409   2.538   4.599  0.1258 -0.6635  0.5505
14623TIP3   OH265359   4.091   5.356  13.853  0.2575 -0.0758 -0.2007
14623TIP3    H165360   4.154   5.287  13.872  0.1689  0.0210  0.4496
14623TIP3    H265361   4.130   5.435  13.889  0.8649  0.4354 -1.8810
14624TIP3   OH265362   4.623   0.661  12.473 -0.6956 -0.0680  0.3079
14624TIP3    H165363   4.672   0.725  12.421  0.2983 -1.3293 -0.3733
14624TIP3    H265364   4.551   0.634  12.417 -0.7006 -0.0585  0.3099
14625TIP3   OH265365   1.231   3.489   2.223  0.1796 -0.0280 -0.4334
14625TIP3    H165366   1.185   3.501   2.140 -1.0208  1.4177  0.4015
14625TIP3    H265367   1.198   3.559   2.279  1.9411 -0.1791  0.8581
14626TIP3   OH265368   0.806   1.688   2.488  0.1570 -0.3497  0.2898
14626TIP3    H165369   0.743   1.710   2.419  0.7441  0.4791 -0.0031
14626TIP3    H265370   0.798   1.594   2.498 -0.7834 -0.3260 -0.0807
14627TIP3   OH265371   0.375   4.209   4.624 -0.1726 -0.0023  0.3330
14627TIP3    H165372   0.341   4.296   4.645 -0.1777 -0.0367  0.4676
14627TIP3    H265373   0.464   4.226   4.592  0.4057 -0.0712  1.8392
14628TIP3   OH265374   5.975   5.943  15.904  0.5851  0.1849  0.0789
14628TIP3    H165375   5.973   6.039  15.912  1.1635  0.2259 -0.2132
14628TIP3    H265376   5.974   5.928  15.809 -0.1896 -0.1205  0.1311
14629TIP3   OH265377   2.411   4.981   4.369 -0.6496 -0.3537  0.1233
14629TIP3    H165378   2.501   5.007   4.390 -0.9561 -0.9130  2.3077
14629TIP3    H265379   2.390   5.032   4.290  0.8477  1.3714  0.7623
14630TIP3   OH265380   1.842   0.308  15.593  0.0750 -0.1948  0.2586
14630TIP3    H165381   1.800   0.332  15.510  0.2170 -0.2520  0.1687
14630TIP3    H265382   1.770   0.292  15.653 -0.0263  0.4845  0.3279
14631TIP3   OH265383   5.533   3.956  15.569  0.8166 -0.7232 -0.3243
14631TIP3    H165384   5.508   3.979  15.479 -0.2291 -0.0508  0.1330
14631TIP3    H265385   5.468   3.999  15.624  1.9533 -0.4120  0.8139
14632TIP3   OH265386   6.146   5.644   2.480  0.5300 -0.5135  0.1543
14632TIP3    H165387   6.180   5.575   2.423  1.6513  0.3146 -0.2315
14632TIP3    H265388   6.118   5.598   2.559  1.1984 -1.4230 -0.1166
14633TIP3   OH265389   1.244   3.107  11.495 -0.1002 -0.1987  0.2542
14633TIP3    H165390   1.236   3.202  11.485  2.0305 -0.1021 -1.3858
14633TIP3    H265391   1.339   3.091  11.495 -0.3481 -2.5353 -2.4819
14634TIP3   OH265392   3.854   2.825  15.967 -0.3055  0.4719 -0.5474
14634TIP3    H165393   3.856   2.859  16.057  0.7176  0.2469 -0.4845
14634TIP3    H265394   3.870   2.902  15.912  0.3768  0.3804 -0.4779
14635TIP3   OH265395   5.414   4.012  10.985 -0.2514  0.0848 -0.1585
14635TIP3    H165396   5.465   3.944  10.940  1.1424  0.2149  1.1149
14635TIP3    H265397   5.346   3.964  11.032 -0.0220 -0.3251 -0.2407
14636TIP3   OH265398   6.294   4.933   1.952 -0.1081  0.5216 -0.5147
14636TIP3    H165399   6.389   4.923   1.940 -0.1990 -0.3397 -0.5183
14636TIP3    H265400   6.281   4.931   2.046 -0.1735  0.1796 -0.5312
14637TIP3   OH265401   3.029   2.223  15.208  0.2807  0.4049 -0.1247
14637TIP3    H165402   3.002   2.294  15.265 -0.9694  0.4197 -0.7174
14637TIP3    H265403   2.969   2.151  15.228  1.5504 -0.5317  0.5008
14638TIP3   OH265404   0.275   2.476  11.987 -0.4009  0.3027 -0.3495
14638TIP3    H165405   0.270   2.521  12.072  1.4632  0.0324 -0.0726
14638TIP3    H265406   0.183   2.458  11.965 -0.9174  0.1730  1.7070
14639TIP3   OH265407   1.905   2.016  12.754 -0.2425 -0.3771 -0.1766
14639TIP3    H165408   1.878   1.924  12.758 -2.4537  0.1676 -1.1883
14639TIP3    H265409   1.993   2.017  12.793  0.0770 -2.9845 -0.6693
14640TIP3   OH265410   3.654   1.064  17.128  0.1105  0.7887 -0.4977
14640TIP3    H165411   3.566   1.101  17.130 -0.3615 -0.2484 -1.3578
14640TIP3    H265412   3.711   1.138  17.107 -0.8709  0.9710 -2.7248
14641TIP3   OH265413   0.463   3.625  15.417 -0.9844  0.5383 -0.1688
14641TIP3    H165414   0.504   3.651  15.334 -4.3124  1.8555 -1.5580
14641TIP3    H265415   0.453   3.530  15.410  0.2849  0.3974 -0.4563
14642TIP3   OH265416   4.176   0.297  16.544 -0.3396 -0.1695  0.2085
14642TIP3    H165417   4.113   0.312  16.473  0.1135 -4.5974 -1.4162
14642TIP3    H265418   4.231   0.375  16.544 -0.5181  0.1965 -4.2043
14643TIP3   OH265419   0.656   6.667  16.428 -0.1669 -0.4048 -0.3080
14643TIP3    H165420   0.723   6.719  16.384 -0.3053  1.9706  2.0409
14643TIP3    H265421   0.683   6.665  16.519 -1.9459 -1.6822  0.2413
14644TIP3   OH265422   3.395   0.432   2.136 -0.5079 -0.2173 -0.3886
14644TIP3    H165423   3.400   0.515   2.184 -0.6550 -0.0462 -0.6647
14644TIP3    H265424   3.485   0.401   2.132 -0.7241 -1.3722  1.9689
14645TIP3   OH265425   5.660   5.109   1.104 -0.7130  0.3520 -0.4482
14645TIP3    H165426   5.694   5.093   1.191  0.8815 -1.0592 -1.2856
14645TIP3    H265427   5.566   5.122   1.117 -0.5366 -0.0513  1.4382
14646TIP3   OH265428   0.543   4.071  13.560 -0.7591  0.2939 -0.2888
14646TIP3    H165429   0.506   4.084  13.473 -0.9162  1.2967 -0.0845
14646TIP3    H265430   0.630   4.113  13.556 -0.5567 -0.1047 -0.1173
14647TIP3   OH265431   4.002   4.531   1.221 -0.5633 -0.4504  0.8879
14647TIP3    H165432   3.937   4.517   1.290  0.7581 -1.1954  2.0177
14647TIP3    H265433   3.957   4.586   1.157 -1.9691 -0.1025  2.1207
14648TIP3   OH265434   3.741   3.060   4.683  0.1628  0.0371  0.2410
14648TIP3    H165435   3.665   3.110   4.652  0.6537  0.5415 -0.1718
14648TIP3    H265436   3.807   3.127   4.702  0.2441 -0.3334  1.3732
14649TIP3   OH265437   4.083   5.072  17.390 -0.0354  0.4635  0.1622
14649TIP3    H165438   4.088   4.991  17.340  1.2618  0.4684  0.2357
14649TIP3    H265439   4.046   5.136  17.329 -0.1237  0.0572 -0.2154
14650TIP3   OH265440   5.331   0.854   0.395  0.3118 -0.2318 -0.3595
14650TIP3    H165441   5.366   0.835   0.307  0.5758 -1.9869  0.0939
14650TIP3    H265442   5.284   0.775   0.420 -0.7198  0.6717  0.6475
14651TIP3   OH265443   2.114   2.265   0.027  0.3458 -0.8258 -0.5094
14651TIP3    H165444   2.129   2.208   0.102 -1.0732  0.3127  0.7081
14651TIP3    H265445   2.153   2.349   0.052 -0.0991 -0.4401 -1.0582
14652TIP3   OH265446   3.900   2.366   0.397 -0.0857  0.3078  0.0237
14652TIP3    H165447   3.938   2.340   0.313  3.1851  0.4699  1.3414
14652TIP3    H265448   3.859   2.286   0.430 -1.3141  0.2080 -1.5875
14653TIP3   OH265449   1.159   3.346   6.201  0.8361 -0.0494 -0.2234
14653TIP3    H165450   1.088   3.408   6.185  0.9813  0.2404  0.2425
14653TIP3    H265451   1.144   3.314   6.290  2.5462  1.7294  0.7857
14654TIP3   OH265452   1.073   1.976   2.924 -0.1459 -0.1016  0.1699
14654TIP3    H165453   1.105   2.054   2.877 -2.0588  0.3282 -0.5043
14654TIP3    H265454   0.983   1.964   2.892 -0.2227 -2.0346  0.9796
14655TIP3   OH265455   3.134   1.741   0.184 -1.2851  0.3251 -0.0275
14655TIP3    H165456   3.224   1.765   0.206 -1.5008  0.7641  0.3885
14655TIP3    H265457   3.082   1.818   0.207 -1.9520 -0.4097  1.0116
14656TIP3   OH265458   3.084   3.965   5.848 -0.7650 -0.4425  0.4554
14656TIP3    H165459   3.077   3.991   5.940 -0.4628 -1.0882  0.6646
14656TIP3    H265460   3.111   3.873   5.851 -1.3269 -0.6373 -0.2783
14657TIP3   OH265461   6.575   2.629   2.395 -0.0015  0.0358 -0.3747
14657TIP3    H165462   6.551   2.542   2.428  0.6246 -0.0698 -0.1734
14657TIP3    H265463   6.520   2.689   2.444  1.0528 -0.1051  1.0505
14658TIP3   OH265464   4.998   4.361   6.545  0.3918  0.2732 -0.4263
14658TIP3    H165465   4.986   4.440   6.599 -1.7920 -0.5921  0.4827
14658TIP3    H265466   5.092   4.344   6.548  0.5988  1.4305  1.4547
14659TIP3   OH265467   5.933   6.353   1.616 -0.1095 -0.0136 -0.0988
14659TIP3    H165468   5.872   6.321   1.549  0.8168  0.6132 -1.2650
14659TIP3    H265469   5.929   6.448   1.608  1.6101  0.0237 -0.7317
14660TIP3   OH265470   0.702   6.599   4.810  0.5543  0.0840 -0.0900
14660TIP3    H165471   0.675   6.553   4.730  1.3325 -0.4697 -0.0403
14660TIP3    H265472   0.737   6.682   4.779 -1.5159  0.9889 -0.1332
14661TIP3   OH265473   1.730   3.819   5.748  0.5898 -0.0769 -0.0962
14661TIP3    H165474   1.669   3.790   5.817  0.4932  2.3633  0.9428
14661TIP3    H265475   1.676   3.821   5.669 -0.1271  0.0050  0.3784
14662TIP3   OH265476   3.259   2.848   2.368  0.8862 -0.0407  0.2859
14662TIP3    H165477   3.323   2.778   2.366  0.6036 -0.3391  1.2641
14662TIP3    H265478   3.214   2.842   2.283  1.6220 -0.3072 -0.0913
14663TIP3   OH265479   4.630   4.862   5.001 -0.2699 -0.1062 -0.1585
14663TIP3    H165480   4.609   4.914   5.078  1.0809 -0.7650  0.6912
14663TIP3    H265481   4.639   4.926   4.931  0.8463  0.7653  0.7483
14664TIP3   OH265482   3.613   4.962  16.810  0.7894  0.1025  0.7320
14664TIP3    H165483   3.658   5.045  16.827  2.0382 -0.2518 -0.6613
14664TIP3    H265484   3.683   4.897  16.806  0.3832 -0.3010 -2.5761
14665TIP3   OH265485   0.619   1.263  14.324  0.0556 -0.0654 -0.4032
14665TIP3    H165486   0.715   1.264  14.318  0.0181 -0.9207 -1.4715
14665TIP3    H265487   0.590   1.242  14.235 -1.1420  0.6104 -0.1875
14666TIP3   OH265488   1.054   2.976  16.330  0.1170  0.2113  0.0332
14666TIP3    H165489   1.008   2.990  16.247  0.0234 -1.1227 -0.1724
14666TIP3    H265490   1.008   3.031  16.393 -0.0159  0.9987 -0.7213
14667TIP3   OH265491   5.292   4.692   0.714 -0.4264  0.7768 -0.1577
14667TIP3    H165492   5.289   4.763   0.650  0.3033  0.6659 -0.3329
14667TIP3    H265493   5.249   4.618   0.672  2.4878 -0.1866 -1.7206
14668TIP3   OH265494   2.116   5.494  11.438 -0.4283 -0.1231 -0.9096
14668TIP3    H165495   2.185   5.428  11.448 -1.9285 -1.7823 -1.1909
14668TIP3    H265496   2.088   5.488  11.347 -1.2324  0.2526 -0.6992
14669TIP3   OH265497   3.687   2.054   6.247 -0.0040 -0.1936 -0.0648
14669TIP3    H165498   3.634   1.980   6.218 -0.7408 -1.0693  3.1411
14669TIP3    H265499   3.624   2.127   6.252  0.3296  0.2244 -1.4093
14670TIP3   OH265500   3.468   1.639   3.606 -0.1790  0.7466 -0.3804
14670TIP3    H165501   3.386   1.590   3.598  0.3845 -0.1924 -0.5685
14670TIP3    H265502   3.533   1.583   3.564  0.9319  0.5578  1.4764
14671TIP3   OH265503   5.156   0.896  13.116  0.1949  0.3133 -0.3312
14671TIP3    H165504   5.077   0.942  13.145 -0.4582  2.2730 -4.4880
14671TIP3    H265505   5.173   0.832  13.186 -3.7261  1.2578  1.8230
14672TIP3   OH265506   2.256   4.221   5.163  0.1622  0.8590 -0.1502
14672TIP3    H165507   2.256   4.313   5.136 -0.3800  1.1946  0.9716
14672TIP3    H265508   2.189   4.215   5.231  1.2337 -0.0402  0.8754
14673TIP3   OH265509   5.019   1.829  16.661 -0.0788  0.6423 -0.4971
14673TIP3    H165510   5.082   1.878  16.713  0.4267  0.1688 -0.6568
14673TIP3    H265511   4.995   1.754  16.716  1.1634 -0.3755 -1.2813
14674TIP3   OH265512   5.474   2.706   5.379  0.6156  0.0625 -0.0393
14674TIP3    H165513   5.545   2.643   5.366 -0.4844 -1.2304  0.0423
14674TIP3    H265514   5.415   2.663   5.440 -1.1922  0.3042 -1.5432
14675TIP3   OH265515   4.317   2.320  13.688  0.5707  0.1574  0.1663
14675TIP3    H165516   4.377   2.387  13.719  0.4902 -0.6278  2.1548
14675TIP3    H265517   4.325   2.249  13.752 -1.3300 -0.6028 -0.3675
14676TIP3   OH265518   6.424   3.718   4.404 -0.3607 -0.4383 -0.1897
14676TIP3    H165519   6.452   3.797   4.450  1.3684 -0.1757 -1.5740
14676TIP3    H265520   6.329   3.730   4.392  0.0081  1.9635 -1.2915
14677TIP3   OH265521   2.863   2.746  14.641 -0.1260  0.2262 -0.5181
14677TIP3    H165522   2.823   2.673  14.594 -0.5039  0.6004 -0.7749
14677TIP3    H265523   2.917   2.790  14.576 -1.2115  1.1748 -0.8046
14678TIP3   OH265524   2.409   5.164  11.701  0.3518  0.2581 -1.0397
14678TIP3    H165525   2.460   5.091  11.738  0.0148  1.2194  1.5395
14678TIP3    H265526   2.440   5.171  11.611  3.5278 -0.3193 -0.1313
14679TIP3   OH265527   4.029   2.590  17.261 -0.0208  0.1223 -0.2510
14679TIP3    H165528   4.088   2.640  17.206 -1.6437  0.3949 -1.8279
14679TIP3    H265529   4.056   2.499  17.249  1.0231  0.3493  0.2625
14680TIP3   OH265530   0.857   4.189  17.391 -0.1035  0.8230 -0.1528
14680TIP3    H165531   0.783   4.164  17.336 -0.0265  1.2681 -0.4587
14680TIP3    H265532   0.934   4.164  17.341 -0.0312 -1.1103  0.8349
14681TIP3   OH265533   1.967   0.251   3.380 -0.0338  0.9732  0.5533
14681TIP3    H165534   2.038   0.188   3.364 -0.4760  0.1456  1.7516
14681TIP3    H265535   1.911   0.245   3.303  0.4574  0.6306  0.2196
14682TIP3   OH265536   6.134   0.006   1.025  0.6754 -1.1004  0.4329
14682TIP3    H165537   6.071  -0.024   0.959  0.8462  2.9107 -1.8738
14682TIP3    H265538   6.083   0.011   1.106 -1.7691  0.8057 -1.0810
14683TIP3   OH265539   2.571   2.267   1.736 -0.3259  0.3842  0.4032
14683TIP3    H165540   2.632   2.305   1.672 -0.0689 -0.5933  0.0579
14683TIP3    H265541   2.496   2.239   1.683  0.5285 -1.8278  0.2640
14684TIP3   OH265542   0.623   6.602   4.208 -0.6169 -0.1561 -0.1978
14684TIP3    H165543   0.625   6.673   4.272 -0.2336 -1.1698  0.9513
14684TIP3    H265544   0.533   6.603   4.174 -0.1841  1.9291 -1.4708
14685TIP3   OH265545   2.690   3.067  14.306 -0.0691 -0.0753  0.3035
14685TIP3    H165546   2.605   3.100  14.334 -0.8382 -0.8686 -0.9954
14685TIP3    H265547   2.748   3.083  14.380 -1.3724  0.3517  1.2615
14686TIP3   OH265548   6.101   4.783  15.731  0.6314  0.3690 -0.7113
14686TIP3    H165549   6.118   4.873  15.706 -0.0587  1.3055  1.9107
14686TIP3    H265550   6.173   4.760  15.790 -0.0631 -0.2263 -0.0702
14687TIP3   OH265551   0.128   4.871  10.813 -0.6229  0.2134  0.7239
14687TIP3    H165552   0.106   4.782  10.787  0.5483 -0.0394  0.5393
14687TIP3    H265553   0.044   4.917  10.813 -1.0148 -0.4214 -0.9780
14688TIP3   OH265554   1.178   2.205  14.215 -0.1185 -0.3712  0.1555
14688TIP3    H165555   1.171   2.216  14.310  1.6971 -1.0292  0.3987
14688TIP3    H265556   1.104   2.147  14.192  1.6274 -3.5320  1.8282
14689TIP3   OH265557   2.209   4.204  16.981  0.1771  0.1799  0.2570
14689TIP3    H165558   2.169   4.282  17.018  0.7569  1.5179 -1.7795
14689TIP3    H265559   2.160   4.131  17.019  1.2043  1.2995  4.1677
14690TIP3   OH265560   2.653   4.459   0.208 -0.4693  0.2821  0.5584
14690TIP3    H165561   2.735   4.432   0.168  0.3568  0.2258  2.2284
14690TIP3    H265562   2.587   4.404   0.166  0.5885 -1.0706  0.5915
14691TIP3   OH265563   1.741   1.726  12.506  0.1063  0.3281 -0.1931
14691TIP3    H165564   1.790   1.740  12.587  1.2799 -0.6984 -0.6972
14691TIP3    H265565   1.674   1.661  12.529  0.6411 -0.2009 -0.1188
14692TIP3   OH265566   2.638   2.423   2.557 -0.1176 -0.2513  0.5108
14692TIP3    H165567   2.605   2.459   2.639  0.7351  2.0844 -0.1090
14692TIP3    H265568   2.699   2.355   2.584  1.1875  1.3952  1.8965
14693TIP3   OH265569   4.473   5.628   5.303  0.8179  0.3664 -0.4172
14693TIP3    H165570   4.405   5.569   5.337  1.0777  1.3833  2.1154
14693TIP3    H265571   4.553   5.576   5.307  0.2866 -0.9720 -3.7826
14694TIP3   OH265572   5.526   0.398   3.082 -0.2019 -0.4928 -0.0656
14694TIP3    H165573   5.572   0.327   3.127 -2.3013 -1.4612  0.7171
14694TIP3    H265574   5.518   0.467   3.148  2.9021  1.0965 -1.1804
14695TIP3   OH265575   0.218   2.029  13.429  0.1165 -0.7185  0.4088
14695TIP3    H165576   0.131   2.017  13.469  0.2987 -1.6928  0.5283
14695TIP3    H265577   0.211   2.113  13.384 -0.6242 -0.3787  1.1122
14696TIP3   OH265578   2.618   5.725  15.087 -0.4931 -0.0534  0.0500
14696TIP3    H165579   2.565   5.673  15.027 -0.3131 -0.5683  0.3347
14696TIP3    H265580   2.653   5.662  15.149  0.0821  0.3499  0.1419
14697TIP3   OH265581   5.569   6.541  13.273  0.4619  0.0516 -0.4349
14697TIP3    H165582   5.587   6.606  13.204 -1.2652 -0.0879 -1.0572
14697TIP3    H265583   5.484   6.567  13.308  0.6330 -0.7769  0.6319
14698TIP3   OH265584   5.576   6.365  16.026 -0.5278  0.2400  0.3485
14698TIP3    H165585   5.563   6.270  16.028 -2.9320  0.4784 -0.5927
14698TIP3    H265586   5.581   6.386  15.933  2.3110  0.8656  0.5285
14699TIP3   OH265587   3.675   2.382   4.262  0.4756 -0.1242 -0.4516
14699TIP3    H165588   3.599   2.346   4.307  1.7564 -1.4288  0.7958
14699TIP3    H265589   3.684   2.327   4.184 -0.1407  0.3566 -0.8664
14700TIP3   OH265590   2.911   0.272  11.833 -0.2593  0.0751 -0.3613
14700TIP3    H165591   2.889   0.181  11.855 -2.2064  0.3948 -0.7535
14700TIP3    H265592   2.967   0.301  11.904  3.1292 -2.3434 -1.7678
14701TIP3   OH265593   0.417   6.480  13.490  0.3093  0.2179 -0.0286
14701TIP3    H165594   0.491   6.425  13.464  1.2219  0.3592  2.1087
14701TIP3    H265595   0.352   6.418  13.523 -0.4566  0.1219 -1.6102
14702TIP3   OH265596   3.698   3.656   0.418 -0.0637 -0.4665 -0.0822
14702TIP3    H165597   3.696   3.560   0.427 -0.3503 -0.3609  1.1238
14702TIP3    H265598   3.712   3.670   0.324 -0.7183 -1.6832 -0.3915
14703TIP3   OH265599   0.254   6.523  15.879 -0.1753 -0.0530 -0.2171
14703TIP3    H165600   0.285   6.440  15.913 -1.5823 -0.2007  0.8132
14703TIP3    H265601   0.293   6.589  15.937 -0.1825 -0.1015 -0.1573
14704TIP3   OH265602   0.108   0.935  10.777 -0.2229  0.4998  0.0710
14704TIP3    H165603   0.164   0.957  10.852  1.1175 -0.1981 -0.6837
14704TIP3    H265604   0.131   0.845  10.756  1.1251  1.3866 -2.5860
14705TIP3   OH265605   0.768   6.582  17.207  0.7587  0.0026  0.7020
14705TIP3    H165606   0.768   6.677  17.201  1.1206 -0.0960 -2.1266
14705TIP3    H265607   0.722   6.553  17.128  1.6365 -2.1777  0.9226
14706TIP3   OH265608   0.628   3.983  11.150 -0.1128  0.0961 -0.0375
14706TIP3    H165609   0.567   4.032  11.095 -1.1560 -0.9393  0.1578
14706TIP3    H265610   0.673   4.050  11.201  0.9190  1.1142 -2.1238
14707TIP3   OH265611   4.132   0.874  14.148 -0.2486  0.6525 -0.4148
14707TIP3    H165612   4.173   0.822  14.218  1.8148  1.4681 -0.9387
14707TIP3    H265613   4.039   0.855  14.155  0.2206 -1.5071  0.7184
14708TIP3   OH265614   0.165   5.061   1.859 -0.0600 -0.1487  0.1526
14708TIP3    H165615   0.129   5.150   1.862  1.3285  0.4636 -0.3585
14708TIP3    H265616   0.092   5.007   1.830 -0.6622  0.9872 -0.5328
14709TIP3   OH265617   3.192   5.983   2.938  0.0835 -0.7531  1.1264
14709TIP3    H165618   3.220   6.074   2.925  0.8268 -1.0807  0.3293
14709TIP3    H265619   3.212   5.964   3.029 -1.1392  0.2351  1.6286
14710TIP3   OH265620   2.768   2.771  17.619  0.8719  0.2323  0.1139
14710TIP3    H165621   2.727   2.747  17.701  1.4209  1.3756  0.7508
14710TIP3    H265622   2.724   2.718  17.553  1.0818 -1.4102  1.2513
14711TIP3   OH265623   1.247   4.012   5.242  0.5982 -0.0780 -0.4212
14711TIP3    H165624   1.216   3.935   5.291 -0.3476  0.3193 -0.3749
14711TIP3    H265625   1.318   3.978   5.188 -2.4727 -2.0556 -3.7005
14712TIP3   OH265626   0.903   2.921  15.491  0.2601 -0.3116 -0.0018
14712TIP3    H165627   0.958   2.964  15.425  0.8754 -0.9667  0.0732
14712TIP3    H265628   0.821   2.901  15.446 -0.2412  1.3441  0.0834
14713TIP3   OH265629   3.027   2.796  10.696 -0.0486 -0.0900 -0.4675
14713TIP3    H165630   2.952   2.741  10.719 -0.3265  0.7351  0.6845
14713TIP3    H265631   3.096   2.735  10.672 -0.4988 -0.9230  0.3104
14714TIP3   OH265632   1.049   0.006  15.944  0.3446 -0.1420  0.2000
14714TIP3    H165633   0.979  -0.054  15.971 -0.4638  0.8807  0.4206
14714TIP3    H265634   1.029   0.088  15.988 -1.7408  2.0596 -4.2341
14715TIP3   OH265635   3.521   0.356  11.530 -0.0886  0.0017  0.4859
14715TIP3    H165636   3.428   0.380  11.535  0.0976  0.4965  2.5087
14715TIP3    H265637   3.567   0.440  11.531  0.4091 -0.2713  0.9629
14716TIP3   OH265638   2.203   0.546   4.215 -0.5397 -0.0930  0.1362
14716TIP3    H165639   2.266   0.617   4.228 -0.2084  0.0533 -1.9368
14716TIP3    H265640   2.233   0.476   4.274 -2.7954  2.4814  4.9016
14717TIP3   OH265641   4.684   2.956   4.657 -0.3056 -0.1971 -0.1154
14717TIP3    H165642   4.722   3.010   4.588 -1.1948  1.0683  0.3295
14717TIP3    H265643   4.589   2.966   4.645 -0.5442 -2.8850 -0.9242
14718TIP3   OH265644   0.791   0.767   2.829 -0.4119 -0.7074 -0.4162
14718TIP3    H165645   0.828   0.820   2.899  1.9317  0.0954 -2.1508
14718TIP3    H265646   0.717   0.818   2.796  1.2191  1.1240 -1.4147
14719TIP3   OH265647   4.221   1.811   1.324 -0.5778  0.7182  0.2611
14719TIP3    H165648   4.286   1.841   1.261 -0.0929  1.3900  1.0708
14719TIP3    H265649   4.228   1.872   1.397 -3.1284  1.7391 -0.2381
14720TIP3   OH265650   2.904   4.738   1.972  0.2117 -0.1074 -0.0252
14720TIP3    H165651   2.862   4.824   1.969  0.5451  0.0351 -0.6498
14720TIP3    H265652   2.995   4.756   1.994  0.5528 -0.1896 -1.2676
14721TIP3   OH265653   4.072   4.801   3.616 -0.3105  0.4593 -0.5883
14721TIP3    H165654   4.027   4.791   3.532  2.3293 -2.0198 -1.9033
14721TIP3    H265655   4.161   4.828   3.593  0.4351 -0.0951  1.3983
14722TIP3   OH265656   6.708   3.276   3.467  0.4582  0.0485 -0.2916
14722TIP3    H165657   6.755   3.193   3.478 -1.1228 -1.3037 -2.8657
14722TIP3    H265658   6.633   3.254   3.413 -1.0177  2.8820  0.4398
14723TIP3   OH265659   0.441   6.274   2.481  0.0128  0.1941  0.7448
14723TIP3    H165660   0.481   6.202   2.531  0.8122  1.2872  1.7377
14723TIP3    H265661   0.491   6.351   2.506 -1.2003  1.2107  0.1506
14724TIP3   OH265662   2.248   2.752  16.492 -0.9320 -0.3966 -0.2284
14724TIP3    H165663   2.268   2.839  16.456  0.7511 -0.7840 -0.3352
14724TIP3    H265664   2.232   2.767  16.585 -0.8921  0.0676 -0.2948
14725TIP3   OH265665   6.121   2.355  14.260  0.2117  0.3818  0.3449
14725TIP3    H165666   6.199   2.332  14.310  0.5406 -2.9448 -1.3546
14725TIP3    H265667   6.049   2.311  14.305  0.0991 -0.3933 -0.5448
14726TIP3   OH265668   0.167   4.822   5.015 -0.7111  0.1213  0.4001
14726TIP3    H165669   0.151   4.896   5.073  1.8542  0.4265  0.8164
14726TIP3    H265670   0.224   4.857   4.947  2.4931 -1.8689  1.8451
14727TIP3   OH265671   6.489   0.722   0.962 -0.2529  0.1000  0.1560
14727TIP3    H165672   6.528   0.678   1.037 -0.7698 -0.9614 -0.1691
14727TIP3    H265673   6.418   0.774   0.999  0.3247  0.6375  0.5387
14728TIP3   OH265674   6.562   3.336  15.004  0.3483 -0.0549  0.1811
14728TIP3    H165675   6.628   3.267  14.994  2.0554  1.4300  0.5281
14728TIP3    H265676   6.613   3.418  15.005 -1.5553  1.2060  0.0634
14729TIP3   OH265677   0.199   5.305   2.010  0.3948  0.5648  0.3336
14729TIP3    H165678   0.256   5.369   2.054  0.7096  0.2166  0.4419
14729TIP3    H265679   0.258   5.235   1.984  0.1604  0.6371 -0.4032
14730TIP3   OH265680   1.675   2.363  12.436 -0.0523  0.0020 -0.1075
14730TIP3    H165681   1.703   2.436  12.491 -1.2588  0.1460  0.3414
14730TIP3    H265682   1.731   2.290  12.463  1.3222  0.7995 -0.7243
14731TIP3   OH265683   2.634   1.217   3.377 -0.1447  0.2045  0.3656
14731TIP3    H165684   2.672   1.137   3.414 -1.1135 -0.8948 -0.9074
14731TIP3    H265685   2.596   1.262   3.453  3.2650  1.2388  1.6689
14732TIP3   OH265686   4.691   5.829   4.012  0.7919 -0.0152  0.1836
14732TIP3    H165687   4.631   5.868   3.948  0.0823 -0.4370  0.5813
14732TIP3    H265688   4.715   5.902   4.069  0.5658  0.1387  0.0855
14733TIP3   OH265689   1.677   4.043   6.367 -0.2547 -0.0242  0.6770
14733TIP3    H165690   1.610   4.078   6.425  0.9079  0.4759  1.7554
14733TIP3    H265691   1.747   4.015   6.425  1.1666  0.9548 -0.4942
14734TIP3   OH265692   1.717   6.294  15.079 -0.0961 -0.1886  0.3339
14734TIP3    H165693   1.660   6.222  15.053  1.2299 -1.1780  0.0519
14734TIP3    H265694   1.660   6.371  15.077 -1.5785 -1.2242  0.7503
14735TIP3   OH265695   5.359   1.268  15.920 -0.3763  0.0591 -0.0517
14735TIP3    H165696   5.438   1.214  15.921 -0.7202 -0.4943 -0.7958
14735TIP3    H265697   5.375   1.332  15.851  0.1766  1.1653  1.0708
14736TIP3   OH265698   3.304   4.834   5.494 -0.1188 -0.3728 -0.2085
14736TIP3    H165699   3.342   4.922   5.495 -0.4891 -0.2056  1.4490
14736TIP3    H265700   3.241   4.837   5.422 -0.4532  0.8809  0.1060
14737TIP3   OH265701   0.094   3.878   5.716  0.0801  0.4944  0.7786
14737TIP3    H165702   0.161   3.937   5.751  0.4153  0.2381  0.5765
14737TIP3    H265703   0.125   3.791   5.738 -0.0505  0.3610  0.4425
14738TIP3   OH265704   5.550   1.024  10.850 -0.1966  0.0501 -0.4073
14738TIP3    H165705   5.566   1.113  10.881  0.3791  0.2528 -1.2423
14738TIP3    H265706   5.626   1.004  10.796 -0.3657 -0.9213 -0.3060
14739TIP3   OH265707   6.529   0.348   0.850  0.1945 -0.1432  0.1782
14739TIP3    H165708   6.477   0.427   0.868 -0.6592 -0.1325 -2.0627
14739TIP3    H265709   6.477   0.299   0.787  1.5502 -1.6363  0.1655
14740TIP3   OH265710   0.699   1.785  14.831  0.7768  0.0798 -0.0450
14740TIP3    H165711   0.753   1.742  14.896  1.9278  0.3163 -0.8038
14740TIP3    H265712   0.761   1.833  14.776  0.0346 -1.3809 -2.2918
14741TIP3   OH265713   2.623   5.498  16.618  0.9081  0.3707  0.3994
14741TIP3    H165714   2.542   5.541  16.644  0.8440  0.0417  0.7729
14741TIP3    H265715   2.596   5.429  16.558  0.9938  0.7497 -0.0784
14742TIP3   OH265716   0.392   1.345   3.269 -0.2611 -0.4025  0.1679
14742TIP3    H165717   0.425   1.427   3.306 -0.7749 -0.2599  0.3122
14742TIP3    H265718   0.339   1.372   3.195 -2.6795 -0.4018  1.8007
14743TIP3   OH265719   4.324   4.529   3.267 -0.2039  0.7187  0.6705
14743TIP3    H165720   4.331   4.569   3.181  0.0277  0.8977  0.7718
14743TIP3    H265721   4.414   4.526   3.300  0.4983 -3.5701 -0.9557
14744TIP3   OH265722   4.598   2.925   4.052  0.5338 -0.3344  0.8307
14744TIP3    H165723   4.533   2.861   4.024  0.0501  1.2051 -1.8809
14744TIP3    H265724   4.565   2.957   4.136 -1.9872  0.0397 -0.2184
14745TIP3   OH265725   5.041   5.110  12.959 -0.0110  0.6435 -0.0057
14745TIP3    H165726   5.031   5.092  12.866 -2.1037 -2.5381  0.6866
14745TIP3    H265727   4.993   5.192  12.973  1.0369  1.6161 -1.7936
14746TIP3   OH265728   2.829   0.480   6.380  0.0884 -0.5578 -0.3592
14746TIP3    H165729   2.855   0.570   6.363  0.2274  0.0128  2.4002
14746TIP3    H265730   2.738   0.487   6.410  0.0616 -1.3571 -0.2357
14747TIP3   OH265731   6.008   4.507   5.818 -0.2993 -0.0746  0.9930
14747TIP3    H165732   5.929   4.472   5.858  0.0521 -0.8495  1.0111
14747TIP3    H265733   5.976   4.558   5.743 -0.8423  0.0674  1.3155
14748TIP3   OH265734   4.426   0.707   0.144  0.3441 -0.1789  0.7407
14748TIP3    H165735   4.477   0.698   0.063  0.3523 -0.5220  0.7834
14748TIP3    H265736   4.456   0.790   0.182  2.6963 -1.5235  2.0379
14749TIP3   OH265737   3.192   1.175  16.563  0.2288 -0.3556  0.6632
14749TIP3    H165738   3.166   1.265  16.543  1.2887  0.0218  0.9131
14749TIP3    H265739   3.258   1.155  16.498 -0.3040 -1.1129  0.3504
14750TIP3   OH265740   2.836   3.482   5.366  0.3355 -0.5645 -0.3426
14750TIP3    H165741   2.892   3.439   5.302  0.7029  0.5221 -0.7830
14750TIP3    H265742   2.888   3.485   5.446  0.8116  0.1938 -0.6730
14751TIP3   OH265743   5.875   5.954  12.409 -0.3309 -0.1306 -0.1517
14751TIP3    H165744   5.945   5.928  12.469  0.3257 -0.1313 -0.9057
14751TIP3    H265745   5.836   6.031  12.450  1.3485  1.0277 -0.6238
14752TIP3   OH265746   1.307   5.324  16.464 -0.0961  0.2614  0.3389
14752TIP3    H165747   1.305   5.417  16.440 -0.6347  0.0398 -0.5125
14752TIP3    H265748   1.245   5.282  16.404 -0.8717 -0.4453  1.5919
14753TIP3   OH265749   2.324   1.584   2.749 -0.3947 -0.4242  0.1517
14753TIP3    H165750   2.328   1.540   2.834  0.2555 -2.8198 -1.0093
14753TIP3    H265751   2.416   1.599   2.725 -0.5864  0.6626  0.0557
14754TIP3   OH265752   0.339   4.170  16.602 -0.1801 -0.7190  0.1808
14754TIP3    H165753   0.426   4.202  16.576 -0.6935  0.3784 -0.2501
14754TIP3    H265754   0.279   4.216  16.543 -1.1827 -0.2035  1.5668
14755TIP3   OH265755   4.892   0.828   2.862 -0.6122 -0.1324  0.3388
14755TIP3    H165756   4.871   0.847   2.770 -1.5067 -1.8681  0.1419
14755TIP3    H265757   4.968   0.883   2.881  0.3137 -0.5634 -1.7951
14756TIP3   OH265758   1.643   0.476  13.199  0.4512  0.2506 -0.3841
14756TIP3    H165759   1.569   0.423  13.170 -2.3577  3.2435  0.7110
14756TIP3    H265760   1.659   0.450  13.289 -0.3609  0.6408 -0.1184
14757TIP3   OH265761   6.608   4.058   1.229 -0.3628  0.1403 -0.2000
14757TIP3    H165762   6.622   3.970   1.265 -0.2811  0.1214 -0.2781
14757TIP3    H265763   6.669   4.064   1.156 -0.4476  0.2214 -0.2643
14758TIP3   OH265764   2.227   4.510   5.113  0.4377 -0.2731 -0.0564
14758TIP3    H165765   2.260   4.503   5.023 -0.1034 -0.1310 -0.2759
14758TIP3    H265766   2.141   4.552   5.103  0.2052 -0.6080  0.4938
14759TIP3   OH265767   1.998   6.656  15.352 -0.5499 -0.3686  0.2652
14759TIP3    H165768   1.928   6.706  15.310  1.8625  1.1261 -2.3648
14759TIP3    H265769   2.030   6.598  15.282  0.7996 -1.0324  1.3912
14760TIP3   OH265770   2.218   0.135  13.946  0.2612  0.4683 -0.5349
14760TIP3    H165771   2.200   0.225  13.919 -0.5876  0.2991 -0.5637
14760TIP3    H265772   2.139   0.086  13.922  0.3251 -0.0950  0.3536
14761TIP3   OH265773   2.117   5.603   1.833 -0.5190 -0.4609  0.3552
14761TIP3    H165774   2.077   5.551   1.903 -1.5948  0.8596  0.7561
14761TIP3    H265775   2.183   5.656   1.878 -1.5830  0.7816  0.4729
14762TIP3   OH265776   0.374   6.413  15.661  0.1722  0.1603  0.0351
14762TIP3    H165777   0.362   6.434  15.754  2.4622  0.6371  0.2895
14762TIP3    H265778   0.447   6.468  15.634 -0.5793  0.1832 -2.1423
14763TIP3   OH265779   3.061   6.453   3.608 -0.3374 -0.5314  0.5374
14763TIP3    H165780   3.149   6.486   3.625 -0.0848 -1.0556  0.2729
14763TIP3    H265781   3.004   6.530   3.615  0.1956 -0.1098  0.2766
14764TIP3   OH265782   5.229   5.057  16.458 -0.1200 -0.3360  0.0812
14764TIP3    H165783   5.253   4.965  16.472 -1.6183 -0.8997 -0.7800
14764TIP3    H265784   5.292   5.107  16.511  1.4333 -1.7853 -0.3100
14765TIP3   OH265785   2.189   4.028   4.759 -0.3333  0.0996  0.5306
14765TIP3    H165786   2.186   3.939   4.725  0.9478  0.0902  0.3877
14765TIP3    H265787   2.262   4.028   4.821 -0.5338  0.9552  0.7772
14766TIP3   OH265788   0.728   2.904  12.444 -0.3170 -0.0883  0.0275
14766TIP3    H165789   0.767   2.841  12.384  2.2625  1.9095 -0.5202
14766TIP3    H265790   0.752   2.872  12.531  1.3459  0.3227 -0.2603
14767TIP3   OH265791   4.262   5.086  15.411  0.2426  0.2876 -0.5662
14767TIP3    H165792   4.311   5.117  15.335  1.0469 -1.8520 -0.9894
14767TIP3    H265793   4.320   5.023  15.454 -1.8281 -1.8644 -0.7108
14768TIP3   OH265794   6.370   1.685  14.692  0.0238  0.4787  0.2552
14768TIP3    H165795   6.374   1.754  14.759  2.6435  0.7250 -0.0536
14768TIP3    H265796   6.389   1.730  14.610  0.7967 -0.4313 -0.0847
14769TIP3   OH265797   6.209   5.015  11.366 -0.7778  0.0026 -0.3871
14769TIP3    H165798   6.245   5.081  11.306 -0.4381  0.0148 -0.1748
14769TIP3    H265799   6.181   5.065  11.443 -0.9909 -0.0418 -0.4357
14770TIP3   OH265800   4.581   5.901   6.203 -0.2489 -0.3767 -0.3244
14770TIP3    H165801   4.545   5.821   6.241  0.6479 -0.6743 -0.0627
14770TIP3    H265802   4.665   5.874   6.165 -0.1523  0.3471 -0.6511
14771TIP3   OH265803   1.903   2.280  16.135 -0.6249 -0.1959  0.0010
14771TIP3    H165804   1.927   2.205  16.080 -1.7175 -0.9514  0.5147
14771TIP3    H265805   1.816   2.305  16.104 -0.1617  1.0508 -0.3409
14772TIP3   OH265806   5.657   1.814   3.324  0.0085 -0.0259 -0.1780
14772TIP3    H165807   5.652   1.883   3.391  1.9352  1.3343 -1.3670
14772TIP3    H265808   5.722   1.752   3.358 -0.6530 -0.5272  0.2076
14773TIP3   OH265809   2.028   4.060  15.061 -0.8264  0.0202  0.3175
14773TIP3    H165810   1.962   4.044  15.127  0.1193 -2.0430  0.8418
14773TIP3    H265811   2.097   4.108  15.107 -1.1105  0.5122  0.2429
14774TIP3   OH265812   2.458   6.228  17.220 -0.0158  0.5431  0.7019
14774TIP3    H165813   2.548   6.238  17.187 -0.6162  0.7978 -0.9682
14774TIP3    H265814   2.403   6.252  17.145 -1.4782 -0.1019  1.5415
14775TIP3   OH265815   6.628   4.944   6.376  0.2274  0.1807 -0.1797
14775TIP3    H165816   6.567   4.960   6.304  1.8653  0.2028 -1.6300
14775TIP3    H265817   6.578   4.965   6.455 -1.0669  1.9579 -1.3908
14776TIP3   OH265818   2.058   5.947   5.828 -0.1265 -0.1357 -0.0059
14776TIP3    H165819   2.059   5.894   5.908  0.7384 -0.8562 -0.4732
14776TIP3    H265820   1.967   5.941   5.797  0.1062 -2.0599 -0.4845
14777TIP3   OH265821   4.873   1.985  17.260  0.0591 -0.2901  0.0265
14777TIP3    H165822   4.947   2.041  17.240 -1.0549  1.1484 -0.2650
14777TIP3    H265823   4.860   1.931  17.182 -1.2218  1.8188 -1.3115
14778TIP3   OH265824   5.386   1.655  13.889 -0.3460  0.3176  0.2493
14778TIP3    H165825   5.347   1.657  13.977  1.4529  1.9277  1.0867
14778TIP3    H265826   5.470   1.612  13.901 -0.0160  0.6957 -0.6537
14779TIP3   OH265827   5.556   0.283   5.912 -0.1207  0.1434 -0.1497
14779TIP3    H165828   5.643   0.283   5.872 -0.0011 -2.9525 -0.1225
14779TIP3    H265829   5.572   0.278   6.006 -0.2882 -1.4495 -0.1918
14780TIP3   OH265830   3.059   5.081  14.824  0.3015 -0.2154  0.2910
14780TIP3    H165831   2.985   5.140  14.833  0.1786 -0.5550  1.8653
14780TIP3    H265832   3.072   5.072  14.730 -0.8860  0.7931  0.0092
14781TIP3   OH265833   3.241   1.759  12.831 -0.1697 -0.0215 -0.0131
14781TIP3    H165834   3.263   1.668  12.849  1.6188  0.1997 -0.8360
14781TIP3    H265835   3.324   1.799  12.804 -1.1747  1.5024 -1.0377
14782TIP3   OH265836   5.243   2.530  15.910 -0.1275  0.8118 -0.3536
14782TIP3    H165837   5.202   2.613  15.937  1.0722  1.4222 -0.3344
14782TIP3    H265838   5.239   2.532  15.814  0.0051  0.9458 -0.3564
14783TIP3   OH265839   1.987   5.545  13.110  0.0951 -0.1606 -0.3677
14783TIP3    H165840   1.940   5.511  13.186  0.8379 -0.3738  0.0096
14783TIP3    H265841   2.051   5.606  13.147 -0.8916  1.3001 -1.0006
14784TIP3   OH265842   0.740   0.462   5.681 -0.8737 -0.4440  0.5188
14784TIP3    H165843   0.646   0.464   5.665 -0.8082 -2.1433 -0.2291
14784TIP3    H265844   0.777   0.417   5.605  0.6175  0.6393  0.5502
14785TIP3   OH265845   1.430   6.458  15.852  0.3417 -0.0650 -0.3874
14785TIP3    H165846   1.393   6.512  15.782 -1.7856 -0.7408  0.1719
14785TIP3    H265847   1.475   6.521  15.909  1.3544  0.5965 -1.8493
14786TIP3   OH265848   1.845   3.921  17.290  0.2206  0.1913 -0.4104
14786TIP3    H165849   1.770   3.945  17.236 -0.3240 -0.4006  0.0661
14786TIP3    H265850   1.837   3.826  17.302  0.2105  0.3331  0.8640
14787TIP3   OH265851   1.021   6.552   1.263  0.0577 -0.2514 -0.5626
14787TIP3    H165852   1.029   6.479   1.324 -0.6572  0.1781  0.0705
14787TIP3    H265853   1.066   6.625   1.307 -2.7116  0.7995  0.7402
14788TIP3   OH265854   6.584   4.177   6.204 -0.3847 -0.7270 -0.2720
14788TIP3    H165855   6.618   4.181   6.293  0.6880 -0.2858 -0.6858
14788TIP3    H265856   6.574   4.269   6.178 -1.1060 -0.8522 -0.4520
14789TIP3   OH265857   4.015   4.066   3.297  0.2576 -0.4863  0.4116
14789TIP3    H165858   4.060   4.113   3.367  1.1771  2.0875 -1.7572
14789TIP3    H265859   3.922   4.087   3.309  0.6368  1.8871 -0.4350
14790TIP3   OH265860   0.647   2.291   3.998 -0.1391  0.1960  0.8450
14790TIP3    H165861   0.716   2.346   3.961 -0.5691  0.5376  0.5410
14790TIP3    H265862   0.565   2.332   3.969 -0.4678 -0.4605  0.8287
14791TIP3   OH265863   5.996   0.410   3.903  0.4221  0.2676  0.8158
14791TIP3    H165864   6.072   0.357   3.924  0.8459 -0.1186 -1.4136
14791TIP3    H265865   6.001   0.484   3.964  2.6674  0.3246  0.6642
14792TIP3   OH265866   3.602   1.605  14.706  0.4532  0.0321 -0.4399
14792TIP3    H165867   3.671   1.593  14.642 -0.5831 -2.4017 -1.2118
14792TIP3    H265868   3.548   1.676  14.671  1.8884  1.2232 -0.3529
14793TIP3   OH265869   2.541   2.853   4.452  0.3195  0.4509  0.0426
14793TIP3    H165870   2.485   2.897   4.387  0.0700  0.6906  0.4138
14793TIP3    H265871   2.568   2.923   4.512 -0.0736  0.1057  0.6349
14794TIP3   OH265872   6.113   0.957   1.292  0.5861  0.3812 -1.0084
14794TIP3    H165873   6.136   1.047   1.269  2.5431  0.5116  1.0992
14794TIP3    H265874   6.197   0.912   1.300 -0.2597 -1.1315 -0.1447
14795TIP3   OH265875   4.301   5.760   0.933 -0.0736  0.1241  0.2620
14795TIP3    H165876   4.356   5.754   1.011  1.1342 -2.3882 -0.6822
14795TIP3    H265877   4.362   5.780   0.862 -0.9951  1.2841 -0.2360
14796TIP3   OH265878   1.869   4.317  16.502  0.1827  0.0823 -0.2213
14796TIP3    H165879   1.881   4.288  16.592 -0.7635 -1.4225 -0.5557
14796TIP3    H265880   1.778   4.296  16.481  0.6583 -0.5486 -1.8453
14797TIP3   OH265881   1.364   2.217  15.076  0.5643  0.3344 -0.1982
14797TIP3    H165882   1.325   2.207  14.989 -0.7013 -0.4590  0.4330
14797TIP3    H265883   1.453   2.246  15.059  0.4455 -0.1297 -1.7796
14798TIP3   OH265884   5.947   4.699   5.202  0.1577  0.5394  0.2287
14798TIP3    H165885   5.945   4.786   5.243 -1.4034  1.0509 -0.8065
14798TIP3    H265886   6.032   4.694   5.159  1.3455  0.4606  2.4864
14799TIP3   OH265887   6.689   1.996   1.232  0.0034  0.6666 -0.0768
14799TIP3    H165888   6.687   2.090   1.248  0.9103  0.6012  0.5548
14799TIP3    H265889   6.650   1.957   1.311  0.0475  0.4992 -0.1361
14800TIP3   OH265890   0.033   0.090  14.415  0.8852  0.2975 -0.2412
14800TIP3    H165891   0.057   0.081  14.322 -1.2695  1.7164 -1.0130
14800TIP3    H265892  -0.053   0.050  14.422  0.5538  1.1655  0.9042
14801TIP3   OH265893   3.095   0.516  16.706  0.5646  0.4204 -0.5589
14801TIP3    H165894   3.075   0.609  16.701  0.6678  0.4316 -0.7796
14801TIP3    H265895   3.179   0.507  16.660  0.6885  0.2597 -0.3040
14802TIP3   OH265896   5.136   5.989  11.471 -0.0149  0.0542  0.3008
14802TIP3    H165897   5.090   5.995  11.388  0.1014 -1.9049  0.0476
14802TIP3    H265898   5.222   5.955  11.449 -0.5897 -2.3020  1.3349
14803TIP3   OH265899   3.870   4.474  17.208 -0.0014 -0.8459  0.6032
14803TIP3    H165900   3.850   4.453  17.117 -0.4303 -2.2475  0.9890
14803TIP3    H265901   3.811   4.418  17.259 -0.2437  0.3982  1.7488
14804TIP3   OH265902   6.340   0.669  16.956  0.1977 -0.0236  1.0236
14804TIP3    H165903   6.288   0.743  16.924 -0.2051 -0.5975  0.3268
14804TIP3    H265904   6.297   0.643  17.038 -2.4717 -2.2993 -0.8960
14805TIP3   OH265905   4.231   0.900  15.634  0.6490  0.0732 -0.1174
14805TIP3    H165906   4.253   0.860  15.549  1.5081  0.0500  0.1016
14805TIP3    H265907   4.136   0.897  15.638  0.6539 -1.1461 -0.4968
14806TIP3   OH265908   3.733   0.780  15.812  0.9084 -0.3817  0.2993
14806TIP3    H165909   3.781   0.723  15.873  1.8220  1.1809  1.0931
14806TIP3    H265910   3.653   0.803  15.859  2.2088  1.8904  1.5567
14807TIP3   OH265911   3.749   2.420  16.412 -0.9323  0.4582 -0.1697
14807TIP3    H165912   3.773   2.470  16.333  0.0927  0.5153  0.1684
14807TIP3    H265913   3.657   2.399  16.399 -0.4588 -0.7649 -2.0788
14808TIP3   OH265914   0.746   1.305  15.794 -0.0322 -0.2212 -0.6076
14808TIP3    H165915   0.767   1.225  15.841  1.3464  0.3626 -0.2016
14808TIP3    H265916   0.749   1.374  15.860 -1.1534  0.2022 -0.9629
14809TIP3   OH265917   4.398   1.872  14.330 -0.3431  0.0208  0.6477
14809TIP3    H165918   4.477   1.918  14.357  0.1336 -0.7220  0.5611
14809TIP3    H265919   4.367   1.829  14.410  0.6540 -1.5771  0.2150
14810TIP3   OH265920   0.252   1.977   4.275 -0.6656  0.4824 -0.3083
14810TIP3    H165921   0.332   1.926   4.271 -0.7781  0.2261  0.6561
14810TIP3    H265922   0.250   2.014   4.363 -2.5853 -1.1466  0.4128
14811TIP3   OH265923   1.196   0.790   4.467  0.2813  0.5794 -0.3982
14811TIP3    H165924   1.113   0.838   4.464  0.2038  0.4859  0.0722
14811TIP3    H265925   1.176   0.712   4.519  0.8542  0.9530  0.4034
14812TIP3   OH265926   5.901   3.942   5.104  0.2139 -0.2362  0.2428
14812TIP3    H165927   5.921   3.867   5.159  1.3547 -0.1507 -0.0289
14812TIP3    H265928   5.968   3.940   5.036  0.7537  1.4813  0.6841
14813TIP3   OH265929   4.916   1.788   2.479 -0.6796  0.5731 -0.3244
14813TIP3    H165930   4.896   1.753   2.566  0.5929  1.1642  0.2261
14813TIP3    H265931   4.858   1.863   2.470  0.0252  1.2434  0.5378
14814TIP3   OH265932   5.430   0.218   5.265 -0.0170  0.1803 -0.1951
14814TIP3    H165933   5.408   0.311   5.274 -2.1593 -0.2924  0.0496
14814TIP3    H265934   5.445   0.206   5.172  0.0473  0.7338 -0.2595
14815TIP3   OH265935   5.472   1.173  13.351  0.4761 -0.3705 -0.3020
14815TIP3    H165936   5.479   1.156  13.257  2.0511 -2.6414  0.1296
14815TIP3    H265937   5.492   1.089  13.392 -0.0311  0.5844  2.0898
14816TIP3   OH265938   0.423   4.359   6.133 -0.6393 -0.0466 -0.4145
14816TIP3    H165939   0.380   4.438   6.163 -2.1437 -0.3195 -1.7190
14816TIP3    H265940   0.472   4.386   6.056 -0.0676 -0.1406 -0.0923
14817TIP3   OH265941   5.785   6.221  12.887 -0.0347 -0.5573 -0.0659
14817TIP3    H165942   5.802   6.141  12.838  1.6102  0.6380 -1.5803
14817TIP3    H265943   5.860   6.228  12.946  0.0934  0.1046 -0.3034
14818TIP3   OH265944   2.597   0.902   5.781 -0.4392  0.1313 -0.0051
14818TIP3    H165945   2.539   0.937   5.713 -0.1963  2.3830  0.8563
14818TIP3    H265946   2.593   0.807   5.769 -0.7273  0.4208 -2.8695
14819TIP3   OH265947   0.971   3.768  12.368 -0.3565  0.4787  0.3050
14819TIP3    H165948   1.018   3.707  12.425  0.0652  0.1801 -0.3543
14819TIP3    H265949   1.017   3.763  12.284  0.1982  2.3191  0.4580
14820TIP3   OH265950   1.259   1.245  14.009 -0.3317  0.1866  0.3508
14820TIP3    H165951   1.294   1.304  14.076 -1.7919  0.5685  0.8103
14820TIP3    H265952   1.296   1.277  13.927 -0.9166  1.6192  0.6202
14821TIP3   OH265953   5.310   2.849  17.140  0.0977  0.0899 -0.3372
14821TIP3    H165954   5.275   2.926  17.095  2.0602  0.7381 -0.8807
14821TIP3    H265955   5.242   2.783  17.132 -0.9811  1.2681 -1.2931
14822TIP3   OH265956   0.889   4.172   1.051 -0.2095  0.2505  0.3843
14822TIP3    H165957   0.881   4.267   1.038 -0.2279  0.2422  0.3322
14822TIP3    H265958   0.853   4.156   1.138  1.2872  0.4981  1.0722
14823TIP3   OH265959   5.580   0.836  16.698 -0.3463 -0.4570 -0.4185
14823TIP3    H165960   5.560   0.930  16.706  0.8211 -0.1954 -0.4025
14823TIP3    H265961   5.509   0.801  16.644  0.4347  0.8856 -2.4209
14824TIP3   OH265962   1.634   5.613  14.231  0.0072  0.1748  0.2387
14824TIP3    H165963   1.562   5.560  14.196  0.9202 -0.1715 -1.2304
14824TIP3    H265964   1.667   5.661  14.155 -0.2183  2.2213  1.3576
14825TIP3   OH265965   0.427   6.585   4.743  0.0824 -0.1075  0.3037
14825TIP3    H165966   0.477   6.536   4.677  1.2233  1.6721 -0.2143
14825TIP3    H265967   0.487   6.593   4.817 -0.1388  0.3931  0.4290
14826TIP3   OH265968   4.453   6.609   5.548 -0.5584  0.2294  0.1257
14826TIP3    H165969   4.399   6.673   5.595 -0.7549 -0.5717  1.0201
14826TIP3    H265970   4.491   6.555   5.617 -1.0226 -1.1171 -0.6360
14827TIP3   OH265971   2.257   4.180  13.216  0.3067 -0.0950 -0.0045
14827TIP3    H165972   2.172   4.207  13.251 -1.3787 -1.1377 -2.9518
14827TIP3    H265973   2.250   4.086  13.203  2.0955 -0.2829  0.0249
14828TIP3   OH265974   5.187   0.827  16.685 -0.1850 -0.1641 -0.0917
14828TIP3    H165975   5.190   0.911  16.638 -0.6599  0.3890  0.8315
14828TIP3    H265976   5.109   0.833  16.740  1.1983 -0.1031  2.0009
14829TIP3   OH265977   3.814   1.677  16.442 -0.0565 -0.6879 -0.1180
14829TIP3    H165978   3.889   1.624  16.470 -0.2785  0.0617  2.0755
14829TIP3    H265979   3.764   1.692  16.522 -1.0875  1.1364 -1.0380
14830TIP3   OH265980   1.442   4.079   4.626 -0.4338 -0.2380 -0.1764
14830TIP3    H165981   1.451   4.162   4.674  3.6323 -1.3215  1.3919
14830TIP3    H265982   1.372   4.033   4.670 -0.2547  0.9132  1.3983
14831TIP3   OH265983   3.520   6.624   4.752 -0.0117  0.6399 -0.0568
14831TIP3    H165984   3.557   6.566   4.685 -1.8006  1.0906 -1.5264
14831TIP3    H265985   3.504   6.567   4.827 -1.6428 -0.8450 -1.4197
14832TIP3   OH265986   2.838   2.158   2.334 -0.0990 -0.0960  0.5583
14832TIP3    H165987   2.859   2.065   2.334  1.0489  0.1353 -0.7442
14832TIP3    H265988   2.906   2.198   2.389  0.6140  0.1892 -0.4997
14833TIP3   OH265989   1.071   2.417   0.779 -0.1989  0.6511  0.0985
14833TIP3    H165990   1.076   2.510   0.759 -0.7383  0.8527  0.8705
14833TIP3    H265991   1.085   2.411   0.873  2.0110 -0.2604 -0.2071
14834TIP3   OH265992   1.112   2.383   2.586  0.0178 -0.0027  0.1875
14834TIP3    H165993   1.187   2.418   2.538 -0.2371  1.3794  0.7495
14834TIP3    H265994   1.125   2.415   2.676 -0.1302 -1.5429  0.7841
14835TIP3   OH265995   2.758   3.291   6.284  0.2879 -0.0958  0.1716
14835TIP3    H165996   2.799   3.237   6.216  0.3739  1.9009 -1.4562
14835TIP3    H265997   2.802   3.265   6.365  1.8616 -0.8923 -0.8867
14836TIP3   OH265998   4.684   4.726   3.621  0.1678  0.2568 -0.2375
14836TIP3    H165999   4.595   4.745   3.592  0.6052 -0.0566 -1.8815
14836TIP3    H266000   4.692   4.631   3.611  0.0753 -0.0325  1.8303
14837TIP3   OH266001   3.442   0.783  16.252 -0.1897 -0.6584 -0.0141
14837TIP3    H166002   3.531   0.793  16.285  0.1452  2.6421 -1.5444
14837TIP3    H266003   3.386   0.792  16.329  0.7287 -0.0287  0.5907
14838TIP3   OH266004   2.069   6.608   6.639  0.1234  0.0506  0.4143
14838TIP3    H166005   2.013   6.557   6.581 -1.6775  1.5604  0.7059
14838TIP3    H266006   2.152   6.560   6.642 -1.2745 -2.5629  0.3318
14839TIP3   OH266007   3.362   2.453   2.407  0.7734  0.5200 -0.0761
14839TIP3    H166008   3.431   2.438   2.472  1.4566 -0.3566 -0.9593
14839TIP3    H266009   3.300   2.382   2.422  0.6929  0.5923 -0.0713
14840TIP3   OH266010   1.929   4.923  12.100 -0.4110 -0.0147  0.2254
14840TIP3    H166011   1.955   5.006  12.060 -2.3649  0.7339  0.4188
14840TIP3    H266012   1.987   4.858  12.061  1.2105  1.4304  0.1158
14841TIP3   OH266013   0.937   2.236   0.340 -0.0856  0.4358 -0.6053
14841TIP3    H166014   0.907   2.205   0.255  1.1241 -0.0472 -0.8694
14841TIP3    H266015   0.927   2.161   0.399  3.1514 -0.6771 -1.3181
14842TIP3   OH266016   4.403   3.452  12.964 -0.6773  0.1958 -0.3637
14842TIP3    H166017   4.356   3.406  12.895 -0.6014 -0.2165 -0.1453
14842TIP3    H266018   4.340   3.517  12.997 -1.1335 -0.4142 -0.0072
14843TIP3   OH266019   4.675   3.626  12.434  0.5440  0.0296  0.2063
14843TIP3    H166020   4.691   3.677  12.513 -0.2190  1.8660 -0.7455
14843TIP3    H266021   4.579   3.621  12.429  0.5675  0.4013 -0.8504
14844TIP3   OH266022   4.773   5.627   2.164  0.0526  0.4449  0.0348
14844TIP3    H166023   4.719   5.628   2.086  0.2554 -1.9072 -0.2023
14844TIP3    H266024   4.804   5.717   2.173 -1.4138  1.1594 -1.5437
14845TIP3   OH266025   0.279   3.503   2.817 -0.1396 -0.2899 -0.2897
14845TIP3    H166026   0.257   3.564   2.888  0.6119 -0.7538  0.3622
14845TIP3    H266027   0.229   3.423   2.838 -1.4462  0.1991 -1.3637
14846TIP3   OH266028   3.924   1.725  15.076  0.0779  0.1213  0.1914
14846TIP3    H166029   3.870   1.753  15.002  1.1702 -0.1959 -0.7597
14846TIP3    H266030   4.011   1.712  15.038  0.6594 -0.0682  1.5389
14847TIP3   OH266031   1.851   4.277  13.758 -0.2560  0.5728 -0.5059
14847TIP3    H166032   1.797   4.200  13.777  2.6724 -1.8651 -1.1566
14847TIP3    H266033   1.888   4.302  13.842  1.8257 -1.3560 -0.7452
14848TIP3   OH266034   3.563   0.450   1.480 -0.4613 -0.0976 -0.2496
14848TIP3    H166035   3.534   0.522   1.536 -1.6620 -0.0615 -0.8731
14848TIP3    H266036   3.593   0.492   1.400  0.8552 -0.1755  0.1887
14849TIP3   OH266037   6.317   6.305   1.053  0.1412  0.2889  0.3987
14849TIP3    H166038   6.404   6.277   1.082  0.5350  1.1353  0.0620
14849TIP3    H266039   6.319   6.400   1.059 -1.1062  0.2810  1.3108
14850TIP3   OH266040   5.186   0.143   0.735  0.1774  0.5713  0.1862
14850TIP3    H166041   5.194   0.225   0.687 -1.2280  0.8549  0.4061
14850TIP3    H266042   5.155   0.168   0.822  0.3004 -0.1399  0.4470
14851TIP3   OH266043   2.899   5.752   2.604 -0.1454 -0.4806 -0.5335
14851TIP3    H166044   2.852   5.787   2.529  0.5848 -0.1358 -0.8376
14851TIP3    H266045   2.939   5.828   2.645 -0.6896 -0.6405  0.3258
14852TIP3   OH266046   5.643   6.645  16.097  0.3139  0.1467 -0.3590
14852TIP3    H166047   5.581   6.580  16.066  2.1750 -0.8335 -2.2161
14852TIP3    H266048   5.601   6.729  16.078 -0.9283 -0.4714 -0.4580
14853TIP3   OH266049   3.351   4.021   3.390  0.1599 -0.5950  0.5567
14853TIP3    H166050   3.332   4.032   3.297  3.1037 -1.5612 -0.2778
14853TIP3    H266051   3.275   3.975   3.425 -2.8256  3.1210 -0.3682
14854TIP3   OH266052   0.322   6.492   2.883 -0.9494 -0.1076 -0.3711
14854TIP3    H166053   0.293   6.470   2.795  0.3741  1.3746 -1.2435
14854TIP3    H266054   0.398   6.436   2.898 -2.8998 -2.5489  1.1142
14855TIP3   OH266055   0.164   6.572  12.914 -0.1880 -0.2080 -0.4434
14855TIP3    H166056   0.187   6.665  12.916 -0.2552 -0.1831  2.0591
14855TIP3    H266057   0.243   6.528  12.882  1.9256  0.2986  3.5144
14856TIP3   OH266058   0.502   5.534   1.826  0.4891 -0.5184  0.2456
14856TIP3    H166059   0.568   5.516   1.760  2.2105  0.9528  1.4781
14856TIP3    H266060   0.538   5.499   1.907 -1.4263 -1.9665  0.5493
14857TIP3   OH266061   2.052   1.239   0.511 -0.4377 -0.2354  0.4218
14857TIP3    H166062   2.015   1.155   0.484  1.9504 -1.4216  0.5884
14857TIP3    H266063   2.113   1.217   0.582 -0.8141  1.8415  1.4709
14858TIP3   OH266064   0.920   1.011  11.321  0.0064 -0.3778 -0.6390
14858TIP3    H166065   0.931   1.021  11.226  2.2115 -3.3672 -0.8548
14858TIP3    H266066   0.892   0.920  11.332  0.9985 -0.4773  1.6287
14859TIP3   OH266067   1.466   2.199  14.669  0.3540  0.5170 -0.0285
14859TIP3    H166068   1.410   2.140  14.619 -0.4021  0.8807  0.3491
14859TIP3    H266069   1.463   2.281  14.620  0.9479  0.4006 -0.2582
14860TIP3   OH266070   2.561   1.270   3.114  0.1120 -0.1022  0.4973
14860TIP3    H166071   2.512   1.353   3.110 -1.5655 -1.0715  0.0203
14860TIP3    H266072   2.579   1.258   3.207 -0.8364  0.1367  0.7241
14861TIP3   OH266073   5.072   0.920  17.606  0.4003 -0.2662 -0.1931
14861TIP3    H166074   5.018   0.857  17.559 -0.0549 -1.3817  1.6857
14861TIP3    H266075   5.157   0.916  17.563 -0.1552 -0.7735 -1.2734
14862TIP3   OH266076   0.769   5.411  15.275 -0.1694 -0.4725  0.2177
14862TIP3    H166077   0.768   5.487  15.333  1.5935  1.0548 -1.6082
14862TIP3    H266078   0.701   5.429  15.210  1.1632  0.3276 -1.0338
14863TIP3   OH266079   4.157   0.702   1.907 -0.3304 -0.0763  0.9466
14863TIP3    H166080   4.149   0.649   1.828  0.7517  0.6964  0.2871
14863TIP3    H266081   4.248   0.689   1.936 -0.1651  1.0871  0.9935
14864TIP3   OH266082   0.406   4.351  13.696 -0.1411 -0.2274 -0.3744
14864TIP3    H166083   0.458   4.280  13.658 -0.7225 -0.8745  0.0325
14864TIP3    H266084   0.437   4.430  13.650 -0.9749 -1.0018 -2.3620
14865TIP3   OH266085   3.462   3.161   6.579  0.1049 -0.1770  0.1445
14865TIP3    H166086   3.374   3.198   6.586  0.3864  0.3137  1.4231
14865TIP3    H266087   3.455   3.073   6.616 -0.5318 -1.4496 -2.7664
14866TIP3   OH266088   2.141   4.329   0.291 -0.0447  0.6988  0.3857
14866TIP3    H166089   2.099   4.314   0.207  0.9173  3.3429 -0.6829
14866TIP3    H266090   2.100   4.266   0.351 -0.9193 -1.0908 -1.9580
14867TIP3   OH266091   5.675   6.198  10.889 -0.2819 -0.3909  0.6432
14867TIP3    H166092   5.757   6.158  10.860 -1.2840 -2.1291  0.0266
14867TIP3    H266093   5.607   6.139  10.857 -1.9025  1.8597 -0.3405
14868TIP3   OH266094   0.396   5.681  15.119  0.2737  0.3071  0.4225
14868TIP3    H166095   0.326   5.662  15.057  1.7495 -1.2576 -0.8569
14868TIP3    H266096   0.416   5.774  15.105 -0.2575  0.2893 -0.5373
14869TIP3   OH266097   6.333   5.569  11.571  0.0196  0.0404 -0.3289
14869TIP3    H166098   6.330   5.479  11.602  0.3263  0.2682  0.3638
14869TIP3    H266099   6.267   5.615  11.623  0.3742  0.3743 -0.1700
14870TIP3   OH266100   3.301   0.989  15.568  0.1115 -0.0762 -0.1730
14870TIP3    H166101   3.373   1.023  15.514 -0.5177 -0.5765 -1.3661
14870TIP3    H266102   3.336   0.909  15.606  1.3060  1.3495  1.9641
14871TIP3   OH266103   3.228   4.652   2.991 -0.3011  0.2065  0.0347
14871TIP3    H166104   3.248   4.605   2.911 -0.8182 -0.5244  0.3296
14871TIP3    H266105   3.274   4.736   2.982  1.1597 -0.5903 -0.2263
14872TIP3   OH266106   2.973   5.136  16.459 -0.0552 -0.2064  0.2970
14872TIP3    H166107   3.053   5.160  16.414 -0.9410  0.8679 -0.7602
14872TIP3    H266108   2.973   5.189  16.539  0.2257 -0.1333  0.2457
14873TIP3   OH266109   5.324   3.333   2.517 -0.1425  0.4462  0.2392
14873TIP3    H166110   5.241   3.294   2.546  0.6521 -0.7941  0.8809
14873TIP3    H266111   5.389   3.300   2.578  1.3514 -1.0204 -2.0338
14874TIP3   OH266112   4.274   5.034  11.144  0.5708 -0.0455  0.1264
14874TIP3    H166113   4.258   5.123  11.111 -1.7950 -0.5174 -0.1854
14874TIP3    H266114   4.197   5.014  11.196  1.7620 -1.3980  1.4606
14875TIP3   OH266115   2.469   1.966  13.054 -0.3590  0.5370 -0.0757
14875TIP3    H166116   2.436   1.919  13.131  0.8092  2.6924  1.8415
14875TIP3    H266117   2.456   2.058  13.075  1.2212  1.2326 -1.9186
14876TIP3   OH266118   6.592   5.567   6.648 -0.1126 -0.0097 -0.4533
14876TIP3    H166119   6.576   5.533   6.560 -1.2762 -2.6990  0.6840
14876TIP3    H266120   6.556   5.500   6.706 -0.0663  2.0220  2.0817
14877TIP3   OH266121   5.941   1.512   2.900 -0.4950  0.0274  0.1900
14877TIP3    H166122   5.973   1.444   2.960  0.3174  0.8956  0.7796
14877TIP3    H266123   5.996   1.503   2.822  0.3422  0.6763  0.6888
14878TIP3   OH266124   6.430   6.246  13.582 -0.3549  0.2569 -0.1012
14878TIP3    H166125   6.458   6.200  13.502 -1.1261  1.8282 -1.3205
14878TIP3    H266126   6.511   6.284  13.617 -0.0841 -0.0396 -0.3990
14879TIP3   OH266127   0.790   5.061  16.286 -0.2433  0.4250  0.1002
14879TIP3    H166128   0.841   5.039  16.364 -0.2750  1.5222  0.4488
14879TIP3    H266129   0.712   5.104  16.320 -1.5901 -1.5245 -0.4095
14880TIP3   OH266130   5.298   2.196  12.960  0.1849 -0.1356 -0.5202
14880TIP3    H166131   5.277   2.141  13.035 -0.7411  0.3466 -0.4211
14880TIP3    H266132   5.219   2.195  12.906 -0.1517  1.7403 -0.1186
14881TIP3   OH266133   5.698   5.214   3.386 -0.1324 -0.3555  0.3894
14881TIP3    H166134   5.734   5.271   3.455  0.9158 -1.3875  0.7181
14881TIP3    H266135   5.706   5.266   3.306  0.0411  0.2704  0.8008
14882TIP3   OH266136   2.117   4.122  13.905 -0.0790  0.2027  0.1433
14882TIP3    H166137   2.075   4.205  13.882 -0.1542 -0.3178 -1.7011
14882TIP3    H266138   2.160   4.140  13.989 -0.6448  1.9038  0.1088
14883TIP3   OH266139   5.285   3.480  13.795  0.1618 -0.1748  0.4553
14883TIP3    H166140   5.265   3.530  13.715 -0.6283 -1.5202 -0.2286
14883TIP3    H266141   5.307   3.393  13.763  0.5093 -0.5492  1.6862
14884TIP3   OH266142   5.883   2.210  13.273 -0.0878  0.1019 -0.2125
14884TIP3    H166143   5.977   2.205  13.288  0.1531 -2.1248 -1.8653
14884TIP3    H266144   5.874   2.262  13.192 -0.2598  0.0712 -0.2150
14885TIP3   OH266145   4.226   2.675   1.928  0.1450  0.0028 -0.5771
14885TIP3    H166146   4.164   2.629   1.985 -1.5104  0.0038 -2.2859
14885TIP3    H266147   4.171   2.730   1.872  1.9106  2.2416 -0.2514
14886TIP3   OH266148   1.305   5.488   4.115 -0.1259  0.6479 -0.5332
14886TIP3    H166149   1.235   5.507   4.178  0.1145  1.0414 -0.3792
14886TIP3    H266150   1.312   5.567   4.062 -0.8930  0.0020 -1.6067
14887TIP3   OH266151   1.480   4.013  14.230  0.3390  0.0445  0.5078
14887TIP3    H166152   1.509   3.928  14.196  1.4872  0.8727 -0.6570
14887TIP3    H266153   1.409   3.991  14.291  0.3090 -1.7124 -0.1015
14888TIP3   OH266154   0.010   5.738  11.262  0.3155 -0.3500 -0.6296
14888TIP3    H166155  -0.027   5.650  11.264 -1.2150  0.2649 -0.3534
14888TIP3    H266156  -0.060   5.793  11.225 -0.1085  1.2852  2.2455
14889TIP3   OH266157   6.129   1.964  16.820 -0.1159 -0.3702  0.4248
14889TIP3    H166158   6.073   1.922  16.886 -0.3767 -0.3656  0.2079
14889TIP3    H266159   6.099   1.929  16.737  0.0152 -0.1511  0.2825
14890TIP3   OH266160   1.042   3.200  14.884 -0.4498 -0.1809 -0.0969
14890TIP3    H166161   0.991   3.214  14.964 -0.3151  0.8397 -0.1750
14890TIP3    H266162   0.999   3.256  14.819  0.7670  0.7235 -0.1637
14891TIP3   OH266163   5.477   4.283   1.558  0.1943 -0.3374  0.4497
14891TIP3    H166164   5.438   4.358   1.602 -0.6235 -1.3745  1.5286
14891TIP3    H266165   5.439   4.206   1.600  0.7345 -1.3850 -0.8668
14892TIP3   OH266166   3.795   4.459   5.949 -0.5072  0.4689 -0.3982
14892TIP3    H166167   3.886   4.433   5.939 -0.7658 -0.9813  0.6906
14892TIP3    H266168   3.789   4.544   5.906  1.7718  1.4283  1.0034
14893TIP3   OH266169   5.972   4.059   1.520  0.2064  0.0671  0.1898
14893TIP3    H166170   5.919   3.979   1.512 -1.0187  1.0203 -2.0194
14893TIP3    H266171   5.910   4.130   1.508  1.3547  1.3944  1.6857
14894TIP3   OH266172   0.720   3.967   5.317 -0.1657 -0.3533  0.1533
14894TIP3    H166173   0.659   3.966   5.243  1.2733  1.1046 -1.1109
14894TIP3    H266174   0.708   4.053   5.357  1.8623  0.4578 -0.8647
14895TIP3   OH266175   5.857   2.787   1.428 -0.0335  0.5025 -0.4174
14895TIP3    H166176   5.919   2.861   1.432 -0.0061  0.5339 -1.1890
14895TIP3    H266177   5.771   2.828   1.435  0.0218  0.4323  0.9562
14896TIP3   OH266178   1.979   6.303  14.857 -0.3661 -0.4968  0.1796
14896TIP3    H166179   2.021   6.367  14.914 -1.2953  1.5124 -1.2433
14896TIP3    H266180   1.939   6.356  14.787 -1.4569 -2.6240 -0.9153
14897TIP3   OH266181   5.355   6.396   3.671 -0.5097 -0.0820  0.2665
14897TIP3    H166182   5.315   6.320   3.712 -1.0145 -0.4901 -0.9339
14897TIP3    H266183   5.353   6.377   3.577  2.3167 -0.0341  0.1019
14898TIP3   OH266184   0.959   2.631   3.061  0.0899  0.5495  0.9366
14898TIP3    H166185   1.025   2.694   3.090  1.4502 -0.4596  0.1759
14898TIP3    H266186   0.929   2.589   3.142  1.4939 -0.0108  1.1916
14899TIP3   OH266187   5.180   4.635   1.960  0.5011 -0.4238  0.4625
14899TIP3    H166188   5.211   4.677   2.040  0.1619  0.3380  0.1980
14899TIP3    H266189   5.229   4.552   1.956  0.1596 -0.7023  1.7131
14900TIP3   OH266190   4.820   4.514  12.766 -0.1564 -0.4314 -0.2714
14900TIP3    H166191   4.760   4.517  12.692 -1.3921 -1.8302  0.6002
14900TIP3    H266192   4.860   4.601  12.768  0.2433 -0.4947 -2.7901
14901TIP3   OH266193   4.322   0.609   2.770  0.1090  0.2240  0.0971
14901TIP3    H166194   4.276   0.579   2.848 -0.5368 -0.5403 -0.5499
14901TIP3    H266195   4.408   0.637   2.801 -0.2617  0.2514  1.1212
14902TIP3   OH266196   1.095   1.891  12.552  0.3580  0.1279  0.3573
14902TIP3    H166197   1.046   1.838  12.615 -1.0761  1.8534  0.7916
14902TIP3    H266198   1.052   1.874  12.468 -0.6521  1.1655  0.6345
14903TIP3   OH266199   4.868   2.326   1.243 -0.5963 -0.1097  0.3150
14903TIP3    H166200   4.917   2.299   1.166 -1.3049 -2.9058  0.7222
14903TIP3    H266201   4.919   2.398   1.281  1.7788 -1.1867 -0.6645
14904TIP3   OH266202   2.326   4.725   2.090 -0.0410  0.0102 -0.4742
14904TIP3    H166203   2.323   4.630   2.089  1.2123 -0.0729 -2.5352
14904TIP3    H266204   2.411   4.747   2.051  0.9765  1.9915  2.4544
14905TIP3   OH266205   5.265   6.427  12.337  0.4943  0.0159  0.1152
14905TIP3    H166206   5.324   6.441  12.263  1.5121  1.2679  1.1173
14905TIP3    H266207   5.316   6.451  12.413 -1.2371  0.8905  1.0568
14906TIP3   OH266208   2.779   3.240   0.757  0.3576  0.2212  0.1226
14906TIP3    H166209   2.738   3.220   0.841  1.7268  1.6282  1.1912
14906TIP3    H266210   2.811   3.329   0.767  2.2530 -0.2438 -1.1861
14907TIP3   OH266211   2.763   4.040  14.189 -0.6363  0.1837 -0.2222
14907TIP3    H166212   2.758   4.115  14.130 -0.5427  1.1828  0.9910
14907TIP3    H266213   2.857   4.025  14.200 -0.5360  1.6753  1.6293
14908TIP3   OH266214   6.430   0.704  13.301 -0.5489  0.3269 -0.1460
14908TIP3    H166215   6.439   0.614  13.332 -1.8526  0.0857 -0.3836
14908TIP3    H266216   6.404   0.695  13.209 -2.2813  0.8695  0.2423
14909TIP3   OH266217   4.472   3.074   5.106 -0.5011 -0.5144 -0.2351
14909TIP3    H166218   4.394   3.112   5.066 -1.0481 -0.1704  1.0905
14909TIP3    H266219   4.440   2.996   5.151 -0.0071 -0.6164 -0.0616
14910TIP3   OH266220   2.649   3.179   1.001 -0.2031 -0.0941 -0.8452
14910TIP3    H166221   2.732   3.194   1.046 -0.2180 -1.3876 -0.3318
14910TIP3    H266222   2.632   3.085   1.012 -2.8150  0.4739  1.0451
14911TIP3   OH266223   2.071   1.345   4.509  0.3078 -0.4975  0.4232
14911TIP3    H166224   2.043   1.412   4.572  1.2129  1.1790 -0.8649
14911TIP3    H266225   1.997   1.286   4.502 -0.8004  0.7621  1.1134
14912TIP3   OH266226   3.160   3.368  17.142  0.1667 -0.4471  0.0151
14912TIP3    H166227   3.080   3.338  17.099 -0.0106  1.6665 -1.2840
14912TIP3    H266228   3.228   3.308  17.111 -0.5661 -0.9940 -0.5726
14913TIP3   OH266229   1.553   5.049  15.008 -0.5100  0.9470  0.5799
14913TIP3    H166230   1.493   5.113  15.047 -0.7722  1.3036 -0.3680
14913TIP3    H266231   1.635   5.060  15.056 -1.4945 -0.3483  2.6843
14914TIP3   OH266232   2.777   3.048   2.130 -0.1534  0.5073  0.0893
14914TIP3    H166233   2.686   3.033   2.103  0.3773 -2.5057 -0.3373
14914TIP3    H266234   2.823   3.068   2.049 -0.1969  0.7536  0.1241
14915TIP3   OH266235   0.804   0.200  14.450  1.0609  0.0993  0.1071
14915TIP3    H166236   0.894   0.173  14.434  0.8307  0.2644 -1.7435
14915TIP3    H266237   0.798   0.287  14.411  0.1536  0.1790  0.4039
14916TIP3   OH266238   3.285   3.445  12.176  0.2038  0.0703 -0.0987
14916TIP3    H166239   3.323   3.528  12.146 -0.7266  0.2918 -0.7232
14916TIP3    H266240   3.214   3.472  12.236 -1.1167 -0.1786 -1.4756
14917TIP3   OH266241   2.891   5.512  16.544 -0.4409 -0.5743  0.1250
14917TIP3    H166242   2.811   5.506  16.597  0.0786 -0.8362  0.8867
14917TIP3    H266243   2.962   5.518  16.608  0.4470 -3.4722 -0.4229
14918TIP3   OH266244   3.192   1.095   2.579  0.8022  1.3895 -0.9353
14918TIP3    H166245   3.113   1.078   2.528 -0.6156  0.9657  1.2788
14918TIP3    H266246   3.197   1.022   2.641  2.7742  1.5765 -0.8081
14919TIP3   OH266247   6.636   0.607   2.333 -0.3864 -0.4504 -0.0786
14919TIP3    H166248   6.716   0.607   2.281 -0.4029  0.9054 -0.1373
14919TIP3    H266249   6.638   0.524   2.380  1.8031  0.1283  0.9993
14920TIP3   OH266250   4.840   0.504   2.326  0.2208  0.3191 -0.1007
14920TIP3    H166251   4.802   0.515   2.239 -1.7025 -0.3147  0.6181
14920TIP3    H266252   4.811   0.417   2.354  1.3920  0.2259  0.9135
14921TIP3   OH266253   6.165   5.732   2.089 -0.4730  0.1469 -0.1835
14921TIP3    H166254   6.240   5.715   2.147  0.0049 -0.7580 -1.0579
14921TIP3    H266255   6.197   5.714   2.001 -1.1829  1.5479 -0.7645
14922TIP3   OH266256   2.225   3.798   5.765 -0.7165 -0.3550 -0.2067
14922TIP3    H166257   2.278   3.734   5.716  0.7806 -1.2687  2.4124
14922TIP3    H266258   2.143   3.752   5.783  0.6603 -2.0529  2.3973
14923TIP3   OH266259   0.184   2.653  13.105  0.2639  0.1422  0.2964
14923TIP3    H166260   0.228   2.725  13.151  1.1894 -0.4102  0.3059
14923TIP3    H266261   0.206   2.575  13.155 -0.0385 -0.2618 -0.1852
14924TIP3   OH266262   3.344   3.069   1.771  0.0500  0.1044 -0.5842
14924TIP3    H166263   3.427   3.113   1.790  0.2431  0.1497 -1.4772
14924TIP3    H266264   3.322   3.024   1.852  1.5628 -0.9040 -0.6792
14925TIP3   OH266265   0.171   3.744  15.290  0.3592 -0.2938 -0.1700
14925TIP3    H166266   0.090   3.772  15.334 -0.1867 -0.2375 -1.1968
14925TIP3    H266267   0.143   3.716  15.203  1.7897  2.6084 -1.7016
14926TIP3   OH266268   5.708   2.011  14.800 -0.1157 -0.1402  0.3438
14926TIP3    H166269   5.782   2.041  14.853  0.9420 -0.7419 -0.7379
14926TIP3    H266270   5.662   1.949  14.857 -0.5460  1.1654  1.4802
14927TIP3   OH266271   1.160   4.709   4.356 -0.7211  0.0350  0.3800
14927TIP3    H166272   1.172   4.672   4.268 -0.2201 -1.0161  0.8688
14927TIP3    H266273   1.182   4.637   4.415  0.8100  1.2682  1.4039
14928TIP3   OH266274   6.287   4.257  12.071 -0.5810 -0.0733  0.5114
14928TIP3    H166275   6.376   4.286  12.089 -0.2682 -0.6799 -0.0324
14928TIP3    H266276   6.259   4.216  12.152 -0.7228  0.9579  1.0060
14929TIP3   OH266277   0.475   5.967   1.674  0.0239  0.3316  0.1752
14929TIP3    H166278   0.517   6.008   1.750  0.1536  0.5023  0.0121
14929TIP3    H266279   0.533   5.895   1.650 -0.2668 -0.0259  0.5374
14930TIP3   OH266280   5.424   4.812   5.209 -0.0523  0.5088  0.2176
14930TIP3    H166281   5.329   4.800   5.202  0.0858 -0.0446 -0.9515
14930TIP3    H266282   5.459   4.770   5.131  1.0257  2.1879 -0.2529
14931TIP3   OH266283   1.297   1.359  15.331 -0.1479  0.3974  0.3643
14931TIP3    H166284   1.219   1.409  15.354 -0.5343 -0.9218  2.0999
14931TIP3    H266285   1.291   1.347  15.236 -3.7255 -2.2676  0.7146
14932TIP3   OH266286   6.244   6.706   4.122 -0.1717 -0.3376  0.3213
14932TIP3    H166287   6.269   6.751   4.042 -1.4194  1.2653  0.7714
14932TIP3    H266288   6.274   6.616   4.110 -1.0919 -0.3665 -2.3269
14933TIP3   OH266289   0.657   5.765  13.245  0.7177 -0.0619 -0.2670
14933TIP3    H166290   0.663   5.716  13.327 -2.7541 -0.6400 -0.2177
14933TIP3    H266291   0.613   5.706  13.184 -0.9979  1.8839 -1.0688
14934TIP3   OH266292   3.312   3.701  14.797 -0.0466  0.5973 -0.1596
14934TIP3    H166293   3.401   3.725  14.825  0.2135 -0.4621 -0.0630
14934TIP3    H266294   3.256   3.759  14.848  0.4405 -0.9847  2.3339
14935TIP3   OH266295   5.056   2.381   3.271  0.3400 -1.0055  0.2567
14935TIP3    H166296   5.073   2.323   3.345 -0.4250 -0.5819  0.7848
14935TIP3    H266297   5.129   2.367   3.212  0.7823 -1.6164  0.9329
14936TIP3   OH266298   0.825   5.012   6.864  0.0513 -0.1081  0.2925
14936TIP3    H166299   0.906   5.059   6.842 -0.1706 -0.7801 -2.2857
14936TIP3    H266300   0.843   4.922   6.838 -1.4752 -0.2910 -0.2014
14937TIP3   OH266301   5.200   1.145  17.406  0.1103 -0.6574  0.2792
14937TIP3    H166302   5.279   1.156  17.353 -0.3247 -0.1112 -0.2701
14937TIP3    H266303   5.215   1.065  17.455  0.0891 -1.7615 -1.4541
14938TIP3   OH266304   4.156   4.325  17.527 -0.4781  0.0781 -0.1075
14938TIP3    H166305   4.155   4.368  17.441 -0.4350  1.4218  0.5350
14938TIP3    H266306   4.147   4.232  17.508 -0.7149  0.3802 -1.5536
14939TIP3   OH266307   6.328   2.510   1.719 -0.4279 -0.8036 -0.4256
14939TIP3    H166308   6.394   2.578   1.732 -2.4331  1.0678  0.8616
14939TIP3    H266309   6.301   2.520   1.628  0.3317 -0.8833 -0.6647
14940TIP3   OH266310   5.561   4.742  17.551  0.7146  0.4749 -0.6023
14940TIP3    H166311   5.466   4.747  17.537  0.1673 -5.1995 -1.4484
14940TIP3    H266312   5.592   4.682  17.483  4.1865 -0.8697  1.8888
14941TIP3   OH266313   2.381   3.452  14.281  0.2130 -0.2530 -0.2360
14941TIP3    H166314   2.465   3.472  14.238 -0.9640  1.5248 -1.8700
14941TIP3    H266315   2.329   3.410  14.213 -0.4640 -0.7435  0.5750
14942TIP3   OH266316   0.729   1.171  14.913  0.1316 -0.2856  0.1290
14942TIP3    H166317   0.633   1.168  14.905  0.1405 -0.9810  0.1849
14942TIP3    H266318   0.760   1.187  14.824 -0.0040 -1.1491 -0.0824
14943TIP3   OH266319   2.875   0.051   4.220  1.2561 -0.2301 -0.2632
14943TIP3    H166320   2.841   0.140   4.213  0.2580 -0.6624 -1.1202
14943TIP3    H266321   2.961   0.061   4.261  0.8496  1.0534  0.3028
14944TIP3   OH266322   3.912   5.405  14.264  0.4655 -0.0561  0.9536
14944TIP3    H166323   3.888   5.314  14.244  0.5612  0.3042 -0.9985
14944TIP3    H266324   3.994   5.397  14.314  1.3777 -1.0378 -0.6019
14945TIP3   OH266325   3.305   3.672  16.360  0.5273  0.3176  0.0768
14945TIP3    H166326   3.230   3.673  16.300 -1.6053  2.4639  2.5168
14945TIP3    H266327   3.298   3.587  16.405  1.1903 -0.6096 -1.4938
14946TIP3   OH266328   1.300   6.255  10.646 -0.3082  0.7408 -0.1712
14946TIP3    H166329   1.284   6.222  10.557 -0.2844 -0.2812  0.2015
14946TIP3    H266330   1.394   6.268  10.650 -0.4189  1.8580 -0.6495
14947TIP3   OH266331   0.165   3.913   0.825  0.3202 -0.0660  0.7149
14947TIP3    H166332   0.249   3.908   0.779 -0.0346  2.0298 -0.2619
14947TIP3    H266333   0.102   3.936   0.757 -0.8160 -0.1656  1.6970
14948TIP3   OH266334   0.845   3.639   3.844 -0.2210 -0.0618 -0.3347
14948TIP3    H166335   0.890   3.556   3.825 -0.0696 -0.1661  0.4621
14948TIP3    H266336   0.752   3.618   3.832 -0.1246 -0.0414 -1.2435
14949TIP3   OH266337   5.787   2.223   0.944 -0.2794  0.0996 -0.0124
14949TIP3    H166338   5.724   2.234   0.873 -1.1958 -1.7622  0.4544
14949TIP3    H266339   5.768   2.295   1.004 -1.1404  0.2756 -0.4785
14950TIP3   OH266340   2.964   3.766   3.824  0.1964  0.0046 -0.2778
14950TIP3    H166341   2.920   3.779   3.740 -1.7342  0.2331  0.7170
14950TIP3    H266342   2.997   3.852   3.847 -1.3684  0.4949  0.2759
14951TIP3   OH266343   5.586   6.626   0.795 -0.0749 -0.0634 -0.1056
14951TIP3    H166344   5.581   6.701   0.855 -1.1416  0.3463 -0.6705
14951TIP3    H266345   5.523   6.647   0.726 -2.4406 -2.6509  1.0733
14952TIP3   OH266346   0.962   3.486  15.137 -0.2027  0.0744 -0.2508
14952TIP3    H166347   0.986   3.434  15.213  2.4366 -0.1867 -1.1883
14952TIP3    H266348   0.965   3.577  15.167 -0.7249 -0.0892  0.3168
14953TIP3   OH266349   4.447   6.289  12.122 -0.1517 -0.4211  0.2223
14953TIP3    H166350   4.408   6.204  12.105 -0.6175 -0.1047 -0.3345
14953TIP3    H266351   4.508   6.303  12.050  0.6799 -0.7177  0.8520
14954TIP3   OH266352   0.064   1.657   0.749 -0.0037 -0.2874 -0.0048
14954TIP3    H166353   0.037   1.589   0.686  0.8331 -2.1357  1.5281
14954TIP3    H266354   0.154   1.634   0.771 -0.3401  0.1893  2.0080
14955TIP3   OH266355   4.117   0.546   0.563  0.2300 -0.6108 -0.2305
14955TIP3    H166356   4.055   0.475   0.547  0.2425 -0.7453  0.3168
14955TIP3    H266357   4.129   0.587   0.477  1.5004 -2.2900 -0.8931
14956TIP3   OH266358   3.423   3.419   1.348  0.3052  0.0905  0.5469
14956TIP3    H166359   3.432   3.376   1.433  0.0648 -0.9989  0.0390
14956TIP3    H266360   3.389   3.506   1.368  1.6641  0.3969  1.6729
14957TIP3   OH266361   1.854   4.643  13.133 -0.0205  0.4301  0.4156
14957TIP3    H166362   1.919   4.680  13.193 -1.5202  0.7750  1.8895
14957TIP3    H266363   1.907   4.602  13.064  1.7385  1.5765  0.9995
14958TIP3   OH266364   2.228   5.446   2.240  0.0314  0.0843 -0.6079
14958TIP3    H166365   2.267   5.523   2.281 -0.2124 -0.0162 -0.1851
14958TIP3    H266366   2.175   5.407   2.309  0.6323 -0.8046 -0.6398
14959TIP3   OH266367   4.489   6.729  15.613  0.0587  0.5734 -0.3069
14959TIP3    H166368   4.473   6.637  15.594 -0.5128  0.3935  0.9788
14959TIP3    H266369   4.559   6.728  15.679  0.2353  1.0699 -0.4826
14960TIP3   OH266370   3.799   4.258  17.363 -0.0667 -0.2164  0.3051
14960TIP3    H166371   3.775   4.173  17.400 -0.3124  0.5654  2.0354
14960TIP3    H266372   3.846   4.303  17.433  0.4014  0.9426 -0.7104
14961TIP3   OH266373   6.264   2.832   2.742 -0.1184  0.6054 -0.4956
14961TIP3    H166374   6.182   2.876   2.718 -0.9701 -1.9166 -2.6744
14961TIP3    H266375   6.236   2.761   2.801  0.5296 -0.0441 -0.9562
14962TIP3   OH266376   3.489   3.394  17.173  0.0670 -0.0818 -0.7604
14962TIP3    H166377   3.502   3.398  17.268 -1.8111  1.3878 -0.4978
14962TIP3    H266378   3.472   3.302  17.155  1.8470 -0.6051  0.0889
14963TIP3   OH266379   1.946   4.459  17.007  0.0014 -0.2063  0.1154
14963TIP3    H166380   1.928   4.503  17.090  1.0247 -0.6939  0.6175
14963TIP3    H266381   1.926   4.524  16.940  0.7654  0.7705  0.8139
14964TIP3   OH266382   2.768   5.465   0.708 -0.1839 -0.1963 -0.2471
14964TIP3    H166383   2.834   5.534   0.715 -1.5830  1.3262 -1.1689
14964TIP3    H266384   2.746   5.444   0.798  0.3143  0.5545  0.0619
14965TIP3   OH266385   4.447   2.052  14.124  0.6129 -0.3300 -0.1573
14965TIP3    H166386   4.510   2.100  14.178  0.7991 -0.6796 -0.0551
14965TIP3    H266387   4.404   1.993  14.186  0.4188 -0.3261 -0.2888
14966TIP3   OH266388   5.999   5.922   4.276 -0.3093 -0.2975  0.5905
14966TIP3    H166389   5.971   5.873   4.199  1.2167 -2.5215  1.3633
14966TIP3    H266390   6.087   5.890   4.294  0.1538  1.6470  2.0920
14967TIP3   OH266391   3.229   3.986   1.464  0.0921 -0.0479 -0.2560
14967TIP3    H166392   3.315   3.975   1.423  0.7275  0.5760  0.8703
14967TIP3    H266393   3.209   3.901   1.502  1.1413  0.3050  1.1782
14968TIP3   OH266394   0.597   5.754  12.745 -0.1456 -0.0054 -0.0060
14968TIP3    H166395   0.551   5.824  12.792  2.0997  2.7295 -1.5662
14968TIP3    H266396   0.530   5.716  12.688 -1.8121 -0.3554  2.0302
14969TIP3   OH266397   4.580   0.269  17.557 -0.4147  0.3692 -0.3617
14969TIP3    H166398   4.654   0.207  17.552 -0.8428 -0.1749  0.0350
14969TIP3    H266399   4.502   0.214  17.556 -0.8019  0.8946  0.1810
14970TIP3   OH266400   1.509   3.857   1.656  0.3054  0.4430  0.1602
14970TIP3    H166401   1.420   3.891   1.643  0.2431 -0.2894 -1.5981
14970TIP3    H266402   1.552   3.868   1.571  1.7032  0.2108  0.8117
14971TIP3   OH266403   2.570   3.766  12.707  0.4271  0.2416 -0.2250
14971TIP3    H166404   2.558   3.671  12.703 -1.5038  0.4048  0.6568
14971TIP3    H266405   2.484   3.802  12.687  1.2681  1.8601 -1.1789
14972TIP3   OH266406   1.981   0.777   3.166  0.6701 -0.2409  1.0092
14972TIP3    H166407   2.061   0.731   3.190  2.0022  1.2854 -0.2765
14972TIP3    H266408   1.993   0.800   3.074 -0.8696  0.7769  1.0216
14973TIP3   OH266409   1.974   3.745   4.917 -0.2179 -0.0177  0.8756
14973TIP3    H166410   1.896   3.784   4.956  1.4023  2.1429  2.2060
14973TIP3    H266411   2.021   3.707   4.992  0.9513  0.5187  0.4350
14974TIP3   OH266412   5.224   4.215   4.372  0.2209  0.7531  0.4840
14974TIP3    H166413   5.235   4.309   4.361 -0.3938  0.5279 -3.3341
14974TIP3    H266414   5.305   4.178   4.336 -0.4171 -0.1819 -0.0345
14975TIP3   OH266415   4.391   2.954  13.496  0.5538  0.2258  0.3252
14975TIP3    H166416   4.435   2.993  13.421  0.4913 -0.9976 -0.3812
14975TIP3    H266417   4.298   2.966  13.478  0.5459  0.3441  0.4426
14976TIP3   OH266418   0.005   5.621  14.230 -0.0434 -0.0480  0.9194
14976TIP3    H166419  -0.025   5.584  14.147  1.1729 -1.7305  1.1861
14976TIP3    H266420   0.100   5.618  14.225  0.0525  0.6478  2.0276
14977TIP3   OH266421   6.179   5.421   2.298  0.3207 -0.2872  0.2717
14977TIP3    H166422   6.112   5.369   2.254  2.0962 -3.4266  0.9393
14977TIP3    H266423   6.235   5.453   2.228  0.5493 -1.3828 -0.0697
14978TIP3   OH266424   6.126   2.242  12.296  0.6225 -0.2971 -0.3721
14978TIP3    H166425   6.117   2.318  12.239  0.7146 -0.9596 -1.2992
14978TIP3    H266426   6.212   2.250  12.335  0.6589  0.0377 -0.5245
14979TIP3   OH266427   4.449   4.141   2.221 -0.0205 -0.1023 -0.4192
14979TIP3    H166428   4.386   4.138   2.293 -1.2259  0.8410 -1.3770
14979TIP3    H266429   4.517   4.078   2.245 -2.1889 -2.4623 -0.1393
14980TIP3   OH266430   4.449   6.563  11.878 -0.5180 -0.1589  0.2978
14980TIP3    H166431   4.451   6.597  11.788  0.5796  0.5821  0.5752
14980TIP3    H266432   4.509   6.489  11.877  0.5885  0.6965  0.7090
14981TIP3   OH266433   1.382   1.315  10.971 -0.1738 -0.0059 -0.5946
14981TIP3    H166434   1.314   1.321  11.038 -0.1350  3.2210 -0.6897
14981TIP3    H266435   1.464   1.307  11.020 -0.2737  0.8646 -0.2576
14982TIP3   OH266436   4.627   6.401   5.688  0.0956 -0.2257 -0.0735
14982TIP3    H166437   4.704   6.373   5.639 -1.2552 -0.9223 -1.8935
14982TIP3    H266438   4.570   6.323   5.691 -0.9396  0.5173  0.4345
14983TIP3   OH266439   0.316   3.366  12.023 -0.1133  0.3696  0.8517
14983TIP3    H166440   0.350   3.361  12.113 -0.0057  0.7221  0.8300
14983TIP3    H266441   0.239   3.309  12.024 -0.0388  0.2688  1.1342
14984TIP3   OH266442   2.066   3.645  15.450  0.6311 -0.2885  0.5697
14984TIP3    H166443   1.978   3.672  15.478  0.5259  0.4059 -0.3499
14984TIP3    H266444   2.104   3.723  15.411  2.3349 -0.1110  2.4305
14985TIP3   OH266445   6.053   2.413   6.490  0.1513 -0.2536 -0.0292
14985TIP3    H166446   6.057   2.458   6.405  0.7111 -1.7008 -0.8034
14985TIP3    H266447   6.141   2.377   6.502  0.1184  0.0544  1.2583
14986TIP3   OH266448   2.314   1.139   3.961  0.5017  0.3982  0.0891
14986TIP3    H166449   2.270   1.180   4.035  0.5594  1.5389 -0.4784
14986TIP3    H266450   2.354   1.060   3.997 -1.1105 -0.1103  0.8335
14987TIP3   OH266451   1.197   1.255  12.872 -0.3013  0.0970 -0.2640
14987TIP3    H166452   1.220   1.335  12.825 -0.5851  0.7880  0.7421
14987TIP3    H266453   1.109   1.271  12.905 -0.7025 -0.9767 -0.7549
14988TIP3   OH266454   2.675   2.248  13.023  0.1041 -0.5680 -0.0111
14988TIP3    H166455   2.595   2.234  13.073 -1.9853 -0.0357 -2.9019
14988TIP3    H266456   2.663   2.196  12.943  2.7146 -0.5509 -0.4966
14989TIP3   OH266457   0.211   1.757  13.691 -0.3674 -0.4253  0.4091
14989TIP3    H166458   0.145   1.707  13.644 -0.9565 -0.0806  0.8543
14989TIP3    H266459   0.276   1.692  13.717 -1.2146 -1.0006  1.1464
14990TIP3   OH266460   5.548   6.699  14.684 -0.2802  0.0426  0.0268
14990TIP3    H166461   5.554   6.628  14.620 -0.8072  1.7997 -2.1089
14990TIP3    H266462   5.636   6.706  14.721  0.5021 -0.0293 -1.6983
14991TIP3   OH266463   1.657   0.464   0.470 -0.5348 -0.3387  0.0297
14991TIP3    H166464   1.648   0.496   0.380  1.0158  0.4285  0.1151
14991TIP3    H266465   1.567   0.458   0.502 -1.1133 -0.5694 -1.5466
14992TIP3   OH266466   3.959   1.600  16.774 -0.1578  0.0432 -0.0202
14992TIP3    H166467   3.895   1.558  16.831 -0.1557 -0.3806 -0.3195
14992TIP3    H266468   4.032   1.623  16.831  0.3989 -1.5269 -0.0442
14993TIP3   OH266469   2.758   4.820   4.170 -0.3929  0.0442 -0.1237
14993TIP3    H166470   2.820   4.857   4.233 -1.4374  1.3993  0.1551
14993TIP3    H266471   2.715   4.896   4.131 -1.8801 -0.8584 -0.3223
14994TIP3   OH266472   5.601   2.504   5.845 -0.3557  0.0544 -0.1042
14994TIP3    H166473   5.593   2.410   5.827  2.7205 -0.6962  1.8075
14994TIP3    H266474   5.675   2.532   5.792 -0.1683  1.0009  0.6445
14995TIP3   OH266475   4.764   0.002  14.649  0.7236  0.1924  0.0062
14995TIP3    H166476   4.778  -0.092  14.662  0.0752  0.1327  0.3303
14995TIP3    H266477   4.761   0.013  14.554 -0.5434 -0.3302 -0.0304
14996TIP3   OH266478   3.115   1.665   5.035  0.0346 -0.8441  0.1109
14996TIP3    H166479   3.186   1.720   5.001 -0.7644 -0.3449 -0.8263
14996TIP3    H266480   3.035   1.705   4.999 -0.6400 -2.0645  0.1937
14997TIP3   OH266481   2.231   4.042   2.230  0.1370 -0.2007 -0.5249
14997TIP3    H166482   2.187   4.096   2.296  1.0869 -0.5128  0.3830
14997TIP3    H266483   2.268   4.106   2.169 -0.2442  0.1180 -0.4279
14998TIP3   OH266484   4.375   3.499   3.637 -0.1590 -0.0563  0.2080
14998TIP3    H166485   4.290   3.455   3.639 -1.4634  2.1909 -1.8118
14998TIP3    H266486   4.404   3.491   3.546 -0.0107  2.3320 -0.0135
14999TIP3   OH266487   0.804   3.192  12.217 -0.0042 -0.4297  0.1002
14999TIP3    H166488   0.829   3.260  12.279 -2.7110  2.1211 -1.3252
14999TIP3    H266489   0.884   3.173  12.168  1.1665  0.6561  1.4862
15000TIP3   OH266490   3.950   1.962  11.323 -0.3485  0.5008  0.0354
15000TIP3    H166491   3.932   2.042  11.372 -2.4536  1.4611 -2.1167
15000TIP3    H266492   3.888   1.898  11.358  1.2061 -0.2395  1.6213
15001TIP3   OH266493   1.137   5.127   0.990  0.3609 -0.5173  0.0903
15001TIP3    H166494   1.217   5.075   0.978  0.8263 -0.1345  1.3870
15001TIP3    H266495   1.074   5.066   1.029  1.7133  0.3729  4.1291
15002TIP3   OH266496   4.772   0.952   4.978 -0.0434  0.1205  0.1243
15002TIP3    H166497   4.707   0.908   4.923 -0.9298 -1.2618  2.1265
15002TIP3    H266498   4.748   1.044   4.976 -2.7189 -0.4395  1.4771
15003TIP3   OH266499   1.922   2.081  15.204  0.2213  0.0138  0.2336
15003TIP3    H166500   1.908   2.014  15.137 -0.2810  0.3736 -0.0257
15003TIP3    H266501   1.882   2.046  15.283  0.1088 -0.0699  0.1405
15004TIP3   OH266502   1.887   0.822  13.343  0.0619 -0.3306  0.0669
15004TIP3    H166503   1.875   0.903  13.294 -2.4583 -1.2897 -1.0382
15004TIP3    H266504   1.902   0.755  13.277  1.9491 -0.8659  0.9570
15005TIP3   OH266505   4.394   0.136  13.520 -0.2192 -0.2462 -0.2227
15005TIP3    H166506   4.331   0.118  13.449  1.4577 -1.6365 -1.4589
15005TIP3    H266507   4.360   0.086  13.595 -1.0814 -0.2016 -0.5640
15006TIP3   OH266508   3.313   5.110  12.164 -0.1505 -0.1891  0.2067
15006TIP3    H166509   3.343   5.136  12.251  0.5538  0.2390 -0.1550
15006TIP3    H266510   3.238   5.167  12.146 -0.6919 -0.7034  0.7799
15007TIP3   OH266511   0.085   1.199  11.581  0.5552  0.2035 -0.2367
15007TIP3    H166512   0.030   1.196  11.503  0.8612 -0.3592 -0.4369
15007TIP3    H266513   0.041   1.261  11.639  0.9352  1.5259 -1.3168
15008TIP3   OH266514   2.547   4.577  17.149  0.4140 -0.3538 -0.4896
15008TIP3    H166515   2.551   4.484  17.124 -0.6345 -1.3118  2.4910
15008TIP3    H266516   2.624   4.591  17.204  0.5708  0.5733 -0.9259
15009TIP3   OH266517   5.142   2.902  14.739  0.1943 -0.2200 -0.1061
15009TIP3    H166518   5.168   2.966  14.674 -0.0617  0.6146  0.5984
15009TIP3    H266519   5.078   2.846  14.694  0.7867 -0.2977 -0.8686
15010TIP3   OH266520   4.424   3.666  14.082  0.3015  0.3442 -0.6120
15010TIP3    H166521   4.475   3.599  14.127  0.6231  0.6826 -0.4692
15010TIP3    H266522   4.470   3.678  13.999  0.8020  1.0717 -0.2384
15011TIP3   OH266523   1.248   4.276  14.936  0.2088  0.2836  0.6486
15011TIP3    H166524   1.294   4.217  14.996 -1.8254 -0.6123  1.4179
15011TIP3    H266525   1.175   4.224  14.903 -0.4877  1.7572 -0.2116
15012TIP3   OH266526   4.202   5.114   0.929  0.5407 -0.1116  0.2007
15012TIP3    H166527   4.163   5.144   0.847  1.7041 -0.1096 -0.3690
15012TIP3    H266528   4.127   5.081   0.980 -0.1567 -0.5218 -1.0274
15013TIP3   OH266529   0.266   4.727   1.675 -0.0047  0.4507 -0.8109
15013TIP3    H166530   0.259   4.680   1.592  1.6386  1.7187 -1.7371
15013TIP3    H266531   0.192   4.695   1.727 -0.3354 -1.3374 -2.2561
15014TIP3   OH266532   0.360   5.943   2.668 -0.6153  0.6183 -0.1768
15014TIP3    H166533   0.370   5.904   2.581 -2.2429 -1.3719  0.4463
15014TIP3    H266534   0.388   5.874   2.729  0.4997  1.9693  0.9263
15015TIP3   OH266535   3.368   4.016   4.466  0.2890  0.0530  0.3746
15015TIP3    H166536   3.328   3.946   4.415  2.2830 -0.9528  0.1241
15015TIP3    H266537   3.295   4.054   4.516 -2.0414  1.7725 -3.8396
15016TIP3   OH266538   2.573   2.383  12.168  0.0015  0.5599  0.0350
15016TIP3    H166539   2.612   2.465  12.198 -0.4128  0.8521 -0.2063
15016TIP3    H266540   2.584   2.323  12.241  2.7065  0.0063 -0.7022
15017TIP3   OH266541   1.875   5.072  16.330 -0.3925  0.1256 -0.1471
15017TIP3    H166542   1.926   4.994  16.353  0.4253  1.1137  1.6152
15017TIP3    H266543   1.794   5.063  16.379  0.4881  1.2283  1.6325
15018TIP3   OH266544   0.677   3.022   6.572 -0.2682 -0.0295 -0.8322
15018TIP3    H166545   0.765   3.059   6.584 -1.0278  1.5934  0.0671
15018TIP3    H266546   0.690   2.949   6.511  1.6235  0.4802 -1.1154
15019TIP3   OH266547   1.300   4.440   2.861  0.1599  0.1104  0.5026
15019TIP3    H166548   1.341   4.430   2.947 -1.3748 -1.6747  1.0785
15019TIP3    H266549   1.297   4.535   2.848 -0.2736  0.4769  2.7822
15020TIP3   OH266550   3.948   1.673   3.523 -0.2490 -0.5046 -0.8400
15020TIP3    H166551   3.923   1.722   3.445  1.4134 -1.2005 -1.8522
15020TIP3    H266552   4.005   1.732   3.572  1.0463 -1.0797 -1.6225
15021TIP3   OH266553   5.447   3.648  16.131 -0.5381 -0.0036  0.1291
15021TIP3    H166554   5.381   3.583  16.109  0.2341 -0.4238 -1.0017
15021TIP3    H266555   5.459   3.639  16.226 -2.0688  0.0728  0.3431
15022TIP3   OH266556   1.480   0.853  11.920  0.8640  0.0352 -0.0281
15022TIP3    H166557   1.475   0.796  11.843  0.5742 -2.1094  1.4654
15022TIP3    H266558   1.549   0.916  11.899  0.1431  0.1239 -2.3738
15023TIP3   OH266559   0.823   5.510  14.062 -0.4424  0.0854 -0.2285
15023TIP3    H166560   0.909   5.495  14.102 -0.2735  2.4018  0.4576
15023TIP3    H266561   0.776   5.564  14.126 -1.4814  0.9310 -1.6367
15024TIP3   OH266562   2.006   4.107   0.655  0.1884 -0.2198 -0.2179
15024TIP3    H166563   1.958   4.058   0.722  0.3330  0.5737  0.4934
15024TIP3    H266564   1.991   4.199   0.678  1.4257  0.0517 -0.4158
15025TIP3   OH266565   6.522   2.474  15.501 -0.1371  0.5123 -0.4341
15025TIP3    H166566   6.566   2.491  15.418 -0.2002  1.3790 -0.3028
15025TIP3    H266567   6.475   2.391  15.488 -1.0823  1.2141 -1.6449
15026TIP3   OH266568   6.033   6.479  13.823 -0.0575  0.3311  0.3780
15026TIP3    H166569   6.076   6.490  13.738 -0.9431 -0.0454 -0.1338
15026TIP3    H266570   6.087   6.530  13.884  0.5205  0.7035 -0.4242
15027TIP3   OH266571   1.314   1.846  16.765  0.1118 -0.4625 -0.4963
15027TIP3    H166572   1.228   1.865  16.727  0.6798  1.2398 -1.0064
15027TIP3    H266573   1.294   1.793  16.842 -1.2242 -2.0456 -1.8506
15028TIP3   OH266574   3.527   0.360   5.325  0.3395 -0.1378 -0.2222
15028TIP3    H166575   3.493   0.293   5.265  2.4100 -1.3846 -0.1196
15028TIP3    H266576   3.618   0.335   5.338  0.2778  0.8075  2.5162
15029TIP3   OH266577   0.695   6.684  15.898 -0.0138 -0.6382 -0.5972
15029TIP3    H166578   0.685   6.773  15.933 -0.5834 -0.7138 -0.5565
15029TIP3    H266579   0.656   6.628  15.964  0.1320 -0.9020 -0.7349
15030TIP3   OH266580   3.235   2.207  11.719  0.2512  0.5183 -0.4871
15030TIP3    H166581   3.254   2.205  11.812  2.0039  0.0621 -0.8177
15030TIP3    H266582   3.316   2.179  11.677 -0.7377 -0.0500 -2.1242
15031TIP3   OH266583   6.042   4.919   2.638  0.4694  0.0547  0.3964
15031TIP3    H166584   6.129   4.905   2.675 -0.3012  0.9923  2.7092
15031TIP3    H266585   6.054   4.989   2.574  1.6137 -0.7806 -0.3560
15032TIP3   OH266586   5.566   1.826  14.946  0.5668  0.2682 -0.0323
15032TIP3    H166587   5.581   1.797  15.037  0.0334 -0.0755 -0.0518
15032TIP3    H266588   5.471   1.836  14.939  0.6797  1.2291 -0.2777
15033TIP3   OH266589   2.948   3.362  15.893  0.0742 -0.2777 -0.2360
15033TIP3    H166590   2.940   3.397  15.981  0.5290 -0.3028 -0.1854
15033TIP3    H266591   2.981   3.435  15.840  0.2235 -0.3893 -0.2978
15034TIP3   OH266592   0.494   0.037  11.722  0.7523 -0.1511 -0.1790
15034TIP3    H166593   0.535  -0.049  11.732  2.0546  0.6080  1.5309
15034TIP3    H266594   0.411   0.030  11.771  0.8091 -0.4681 -0.1269
15035TIP3   OH266595   0.266   0.952   3.621 -0.0741  0.1251  0.0022
15035TIP3    H166596   0.264   0.954   3.717 -2.1068 -1.5320  0.0538
15035TIP3    H266597   0.347   0.906   3.600  1.3110  2.0635  0.8148
15036TIP3   OH266598   3.123   1.552  15.878  0.1759 -0.1757 -0.0101
15036TIP3    H166599   3.152   1.638  15.848 -1.9429  1.0007  1.0673
15036TIP3    H266600   3.084   1.511  15.801 -2.9100  1.7687  0.3564
15037TIP3   OH266601   2.468   2.249   4.008 -0.1941 -0.2876 -0.0580
15037TIP3    H166602   2.522   2.174   3.981  0.2230 -0.1669  0.4193
15037TIP3    H266603   2.513   2.325   3.972 -1.2213 -0.3277 -1.4997
15038TIP3   OH266604   4.292   5.971  15.573 -0.2899  0.2519  0.4482
15038TIP3    H166605   4.242   6.049  15.596 -0.8139 -0.4726  1.8678
15038TIP3    H266606   4.270   5.954  15.482  0.4891  2.2358 -0.1613
15039TIP3   OH266607   4.340   0.381  12.933  0.7172  0.0036 -0.4630
15039TIP3    H166608   4.284   0.368  12.856  0.2226  0.8996 -0.2725
15039TIP3    H266609   4.392   0.459  12.912  1.5196 -0.5038 -0.4122
15040TIP3   OH266610   4.538   4.617  17.421  0.1471  0.1642 -0.4936
15040TIP3    H166611   4.473   4.593  17.355  0.2809  0.1149 -0.6052
15040TIP3    H266612   4.515   4.707  17.445 -1.6011 -0.6701  1.3490
15041TIP3   OH266613   5.299   6.592   3.873  0.0781  0.3257  0.0663
15041TIP3    H166614   5.305   6.528   3.803  0.8802 -0.3695  0.7502
15041TIP3    H266615   5.256   6.668   3.833 -0.3712 -0.4199 -0.9008
15042TIP3   OH266616   4.181   6.463  15.006 -0.3561  0.1593 -0.1925
15042TIP3    H166617   4.179   6.408  15.085 -0.3736  0.3597 -0.0532
15042TIP3    H266618   4.174   6.552  15.039  1.2344  0.3523 -0.3140
15043TIP3   OH266619   5.207   6.107   0.816 -0.7656 -0.1885 -0.1176
15043TIP3    H166620   5.263   6.038   0.780 -0.2988  1.1092 -2.1143
15043TIP3    H266621   5.259   6.146   0.887 -1.6120 -2.6875  2.0054
15044TIP3   OH266622   2.428   0.071   3.027 -0.0736 -0.5581 -0.2551
15044TIP3    H166623   2.390   0.144   2.978  0.2813 -0.3802 -0.2664
15044TIP3    H266624   2.459   0.010   2.959 -0.3785 -0.7275 -0.2456
15045TIP3   OH266625   4.737   0.481  16.230  0.4317 -0.0985 -0.7100
15045TIP3    H166626   4.817   0.474  16.178  0.5050  0.0690 -0.6228
15045TIP3    H266627   4.701   0.393  16.232  1.6638 -0.6042  0.9074
15046TIP3   OH266628   5.610   5.184   5.625  0.0930  0.2441 -0.3677
15046TIP3    H166629   5.661   5.164   5.547  0.6334 -2.7745  0.6150
15046TIP3    H266630   5.665   5.245   5.675  0.7426  0.4268 -1.2763
15047TIP3   OH266631   1.879   2.491  13.269 -0.0403 -0.4479 -0.0844
15047TIP3    H166632   1.878   2.587  13.269 -1.5559 -0.4461 -0.4164
15047TIP3    H266633   1.910   2.468  13.356  0.4914  0.3401 -0.0540
15048TIP3   OH266634   2.090   0.896   2.946 -0.2207  0.5169 -0.5149
15048TIP3    H166635   2.160   0.844   2.906  0.9912  0.8047  1.1183
15048TIP3    H266636   2.088   0.977   2.896  0.9313  0.6794 -0.3168
15049TIP3   OH266637   1.903   5.344   2.666 -0.5692  0.3306 -0.3657
15049TIP3    H166638   1.814   5.372   2.644 -0.2155  0.9112 -1.1069
15049TIP3    H266639   1.959   5.401   2.614  0.2518  0.2163  0.3736
15050TIP3   OH266640   2.549   2.500   2.823 -0.4197 -0.0647 -0.0844
15050TIP3    H166641   2.466   2.477   2.781 -1.7742  0.4441  2.1173
15050TIP3    H266642   2.580   2.418   2.862  1.1709 -0.6870 -2.4200
15051TIP3   OH266643   0.473   2.542  17.254 -0.0569 -0.2046  0.5432
15051TIP3    H166644   0.529   2.619  17.243  0.1149 -0.1454  1.7313
15051TIP3    H266645   0.470   2.502  17.167 -0.7770  1.5652 -0.2943
15052TIP3   OH266646   4.725   0.921   2.132 -0.7132 -0.4842  0.2303
15052TIP3    H166647   4.716   1.017   2.128 -0.7951 -0.4455  1.1637
15052TIP3    H266648   4.790   0.906   2.201  1.1360 -1.0254 -1.5457
15053TIP3   OH266649   6.193   3.280   1.942 -0.4084  0.0368 -0.2544
15053TIP3    H166650   6.280   3.310   1.916  0.0214 -0.5308  0.4892
15053TIP3    H266651   6.164   3.345   2.006  0.4717 -1.0173  1.2650
15054TIP3   OH266652   3.302   0.527   0.362 -0.3036  0.2489 -0.8588
15054TIP3    H166653   3.303   0.598   0.426  1.5216  1.6596 -2.3454
15054TIP3    H266654   3.376   0.472   0.385  1.4224  1.6883 -2.6122
15055TIP3   OH266655   1.415   3.356   0.116  0.0251 -0.0333  0.0269
15055TIP3    H166656   1.385   3.447   0.117 -2.2935 -0.7318 -0.1379
15055TIP3    H266657   1.342   3.306   0.153  1.5654 -1.7707  0.9246
15056TIP3   OH266658   5.901   0.108  12.057 -0.6660 -0.0939 -0.1125
15056TIP3    H166659   5.956   0.070  11.989  2.2763  0.0427  2.0334
15056TIP3    H266660   5.894   0.201  12.034 -0.6780 -0.2607 -0.8061
15057TIP3   OH266661   0.136   1.059  14.227  0.2285  0.0824  0.0590
15057TIP3    H166662   0.207   1.022  14.278 -0.1920  0.7571  1.1677
15057TIP3    H266663   0.076   1.097  14.292 -0.7640  0.1922 -0.8788
15058TIP3   OH266664   1.002   6.005   1.905  0.3026 -0.2111 -0.6699
15058TIP3    H166665   1.052   5.924   1.914  1.2309  0.3152 -0.9556
15058TIP3    H266666   1.047   6.067   1.963  0.8718  0.6690 -2.0024
15059TIP3   OH266667   1.107   1.217   1.862 -0.0394 -0.1951  0.5495
15059TIP3    H166668   1.129   1.309   1.876 -1.5791  0.5759 -1.5920
15059TIP3    H266669   1.192   1.173   1.861  0.9417  1.5635 -0.5471
15060TIP3   OH266670   0.106   4.871   0.836 -0.1196 -0.4530 -0.2428
15060TIP3    H166671   0.096   4.961   0.807  1.4124 -0.5774 -1.3006
15060TIP3    H266672   0.017   4.836   0.838 -0.6749  0.8969 -0.4177
15061TIP3   OH266673   2.352   1.551   2.405  0.0671 -0.6364 -0.1042
15061TIP3    H166674   2.404   1.482   2.446  0.9549  0.1684  0.1500
15061TIP3    H266675   2.322   1.606   2.478 -0.5537 -0.6857 -0.3132
15062TIP3   OH266676   4.820   1.949  16.496 -0.0796 -0.4843 -0.0044
15062TIP3    H166677   4.811   2.028  16.549  1.0712  0.3042 -0.9440
15062TIP3    H266678   4.888   1.898  16.541 -0.5111 -0.7457  0.3589
15063TIP3   OH266679   1.713   4.188  15.898 -0.2376  0.0200 -0.9080
15063TIP3    H166680   1.626   4.148  15.899 -1.2042  2.0305  0.2446
15063TIP3    H266681   1.725   4.224  15.986  2.2084 -1.0188 -0.7163
15064TIP3   OH266682   3.643   0.693   1.962  0.2335  0.7485  0.0821
15064TIP3    H166683   3.726   0.696   2.010  0.2885 -0.6205  0.1132
15064TIP3    H266684   3.666   0.656   1.877 -0.4205 -0.2856  0.3272
15065TIP3   OH266685   0.880   0.515   3.969 -0.5886  0.3782  0.6432
15065TIP3    H166686   0.787   0.506   3.952 -0.2959 -2.7555  0.1140
15065TIP3    H266687   0.920   0.521   3.882 -0.2355  1.5844  0.8644
15066TIP3   OH266688   0.526   2.261  11.680  0.2097 -0.5461  0.0159
15066TIP3    H166689   0.617   2.232  11.677  0.2585 -0.4688  0.7173
15066TIP3    H266690   0.520   2.316  11.758 -0.3801 -0.3493 -0.1611
15067TIP3   OH266691   1.584   3.752  14.782  0.1930  0.5067 -0.4631
15067TIP3    H166692   1.612   3.682  14.841 -2.5152 -0.2253  0.1055
15067TIP3    H266693   1.579   3.830  14.838  1.0990  0.6757 -0.5987
15068TIP3   OH266694   4.671   2.356  11.194  0.0960 -0.0847 -0.1149
15068TIP3    H166695   4.669   2.436  11.246 -1.1262  0.1297 -0.4695
15068TIP3    H266696   4.764   2.339  11.180  0.3923  0.8080  0.6612
15069TIP3   OH266697   3.537   0.984   2.665 -0.0346  0.3301 -0.1599
15069TIP3    H166698   3.562   0.892   2.654  0.0361  0.5631 -2.4153
15069TIP3    H266699   3.616   1.033   2.644 -0.1350  0.9329  0.8189
15070TIP3   OH266700   3.536   3.834  16.237 -0.4801 -0.1804 -0.3794
15070TIP3    H166701   3.549   3.769  16.168  0.8485  0.1319 -0.4488
15070TIP3    H266702   3.457   3.805  16.282  0.6871 -2.5386  0.3430
15071TIP3   OH266703   6.664   4.322  11.806  0.0139  0.1285 -0.9640
15071TIP3    H166704   6.573   4.347  11.786 -0.1776  0.5499  0.3436
15071TIP3    H266705   6.656   4.232  11.839 -0.5079  1.3463  2.7272
15072TIP3   OH266706   1.167   5.045  11.285  0.7730 -0.1190  0.0439
15072TIP3    H166707   1.178   4.950  11.291 -0.4150 -0.2438  0.5021
15072TIP3    H266708   1.253   5.078  11.260  1.5335 -1.1933  1.1594
15073TIP3   OH266709   6.519   0.095   4.526  0.3971 -0.0771 -0.2169
15073TIP3    H166710   6.551   0.103   4.616 -0.6432 -0.5348  0.2104
15073TIP3    H266711   6.597   0.071   4.476  0.7719 -1.0770  0.7808
15074TIP3   OH266712   0.956   4.340   5.768  0.7127 -0.3221  0.5228
15074TIP3    H166713   1.047   4.350   5.739  0.9360 -0.7829  1.0386
15074TIP3    H266714   0.923   4.429   5.775  0.9689 -0.1627 -0.1331
15075TIP3   OH266715   4.424   5.260  16.065  0.2482  0.1972 -0.0657
15075TIP3    H166716   4.330   5.242  16.073 -0.3318  2.5229 -0.8262
15075TIP3    H266717   4.436   5.288  15.974  1.4174  1.2587  0.3839
15076TIP3   OH266718   4.349   3.740  17.634  0.5320 -0.1739 -0.4680
15076TIP3    H166719   4.346   3.785  17.718 -1.4524 -1.0412 -0.0216
15076TIP3    H266720   4.422   3.781  17.587  2.1500 -0.1409  1.9118
15077TIP3   OH266721   0.913   5.307   5.860 -0.6049 -0.0595  0.1495
15077TIP3    H166722   0.981   5.368   5.830 -0.2182  0.7163  2.3954
15077TIP3    H266723   0.831   5.353   5.845 -0.5603 -0.3489 -1.1114
15078TIP3   OH266724   2.735   5.015   1.602  0.4713  0.0135 -0.3967
15078TIP3    H166725   2.772   5.096   1.637 -1.6284  0.2778  1.4290
15078TIP3    H266726   2.773   4.946   1.657 -1.0291  0.2169  0.9706
15079TIP3   OH266727   3.767   3.789  17.159 -0.1806 -0.2306  0.1469
15079TIP3    H166728   3.721   3.808  17.077  0.5962  1.0969 -0.0039
15079TIP3    H266729   3.764   3.693  17.166 -1.4869 -0.2864 -0.7003
15080TIP3   OH266730   5.888   6.650  15.073  0.1239  0.6120  0.1420
15080TIP3    H166731   5.976   6.674  15.046  0.5121 -2.6286 -2.1933
15080TIP3    H266732   5.840   6.640  14.990 -1.0400 -2.0539  1.0320
15081TIP3   OH266733   2.975   6.682  14.019  0.0999  0.3297  0.1789
15081TIP3    H166734   2.960   6.588  14.006  2.0376 -0.2537  1.6253
15081TIP3    H266735   2.958   6.696  14.113 -0.6567  1.5642 -0.1167
15082TIP3   OH266736   1.894   4.361  14.295 -0.1657 -0.2853  0.6333
15082TIP3    H166737   1.934   4.312  14.367 -0.5255 -1.5130  0.0322
15082TIP3    H266738   1.805   4.326  14.289 -0.7281  1.0727  0.7274
15083TIP3   OH266739   6.576   3.477   4.852  0.0630 -0.1127  0.0058
15083TIP3    H166740   6.583   3.392   4.808 -2.1822 -0.8117  0.8922
15083TIP3    H266741   6.562   3.539   4.781  1.7478 -0.4248 -0.6559
15084TIP3   OH266742   3.604   5.096   2.414  0.0644  0.5199  0.4335
15084TIP3    H166743   3.621   5.014   2.366  2.8298  1.4356 -0.3373
15084TIP3    H266744   3.684   5.111   2.464 -0.3998  2.7247  0.6068
15085TIP3   OH266745   2.712   0.246   4.463  0.2280  0.6219  0.2551
15085TIP3    H166746   2.763   0.325   4.478  1.2552  0.2819 -1.2585
15085TIP3    H266747   2.777   0.180   4.438 -0.8295 -0.1211 -0.6082
15086TIP3   OH266748   2.865   0.165  16.776 -0.1496  0.3723 -0.3738
15086TIP3    H166749   2.823   0.248  16.756  0.4244  0.7036 -0.2403
15086TIP3    H266750   2.936   0.158  16.711  0.8166  0.7674  0.6015
15087TIP3   OH266751   0.807   6.541  14.923  0.2724  0.0902 -0.4140
15087TIP3    H166752   0.810   6.460  14.974  1.6947 -0.3666 -1.1621
15087TIP3    H266753   0.848   6.606  14.980 -1.1622  0.3891  0.3156
15088TIP3   OH266754   5.213   4.967   5.958  0.9726 -0.0510 -0.1656
15088TIP3    H166755   5.274   5.036   5.932 -0.2574  0.5010 -1.8134
15088TIP3    H266756   5.244   4.889   5.912  0.7093  0.1163 -0.6310
15089TIP3   OH266757   0.266   5.511  16.780 -0.0290 -0.3317  0.1888
15089TIP3    H166758   0.238   5.588  16.830  0.2710  0.7572 -1.2724
15089TIP3    H266759   0.333   5.471  16.836  0.1203  0.7061  0.7925
15090TIP3   OH266760   3.696   6.433  13.630 -0.2437  0.0864 -0.3699
15090TIP3    H166761   3.758   6.446  13.701 -1.0464  0.1562  0.3433
15090TIP3    H266762   3.689   6.519  13.588  0.0963  0.0902 -0.4164
15091TIP3   OH266763   3.810   0.743   4.112  0.1190  0.5087  0.2437
15091TIP3    H166764   3.887   0.700   4.075 -1.9311 -2.7927 -0.6112
15091TIP3    H266765   3.790   0.814   4.051  0.7636 -0.5263 -1.2371
15092TIP3   OH266766   4.784   0.168  17.293 -0.1574  0.4100  0.3745
15092TIP3    H166767   4.701   0.122  17.284 -0.4677  0.7580  1.3475
15092TIP3    H266768   4.812   0.150  17.382  1.6245 -1.0099 -0.4216
15093TIP3   OH266769   6.224   3.997   5.146 -0.3494  0.0555 -0.0798
15093TIP3    H166770   6.221   4.049   5.226  2.7551 -0.2679  0.3415
15093TIP3    H266771   6.185   4.055   5.080  1.6995  2.4759  0.6480
15094TIP3   OH266772   6.134   0.227  13.802  0.4216  0.5652 -0.5771
15094TIP3    H166773   6.217   0.190  13.832  0.1402 -1.4624 -2.0250
15094TIP3    H266774   6.070   0.201  13.869  0.5477 -0.0692 -0.6916
15095TIP3   OH266775   6.352   0.182  14.010  0.2663 -0.7389  0.0804
15095TIP3    H166776   6.324   0.225  14.091 -0.2933 -0.7949 -0.0781
15095TIP3    H266777   6.380   0.095  14.037 -2.2064 -1.6634 -0.0629
15096TIP3   OH266778   0.442   0.246   1.998  0.3703 -0.3535  0.3750
15096TIP3    H166779   0.401   0.324   2.037  2.7991  1.2687 -0.1196
15096TIP3    H266780   0.380   0.218   1.931  0.0993  2.1763 -0.5762
15097TIP3   OH266781   4.400   3.992   3.219  0.1067  0.0390 -0.2675
15097TIP3    H166782   4.356   4.014   3.301  0.9114 -2.6042  1.0163
15097TIP3    H266783   4.331   3.993   3.153 -0.7530  1.2881  0.6098
15098TIP3   OH266784   4.908   1.632   2.810  0.2619 -0.6551  0.2208
15098TIP3    H166785   4.888   1.725   2.814  0.3166 -0.6686  0.9167
15098TIP3    H266786   4.825   1.589   2.791 -0.0447 -0.5779  1.3664
15099TIP3   OH266787   3.864   1.497   3.141 -0.1251  0.4506 -0.8007
15099TIP3    H166788   3.910   1.461   3.217  1.7294  1.7113 -1.2354
15099TIP3    H266789   3.841   1.586   3.167 -1.2116  0.2515 -1.0527
15100TIP3   OH266790   4.410   2.175  15.210  0.1024 -0.1622 -0.0952
15100TIP3    H166791   4.317   2.153  15.207  0.2059 -0.9997  1.3718
15100TIP3    H266792   4.450   2.121  15.142 -0.5892  0.9459 -1.4135
15101TIP3   OH266793   5.943   0.964   2.789  0.3403  0.1994 -0.1615
15101TIP3    H166794   5.992   1.044   2.770  0.1894  0.1813 -0.6541
15101TIP3    H266795   5.969   0.903   2.720 -0.4189  0.2126 -0.4710
15102TIP3   OH266796   2.963   5.782   2.895 -0.5469 -0.0779 -0.0662
15102TIP3    H166797   2.978   5.829   2.977 -0.4362  1.3567 -0.8940
15102TIP3    H266798   3.050   5.763   2.861 -0.5857  0.5529 -0.5316
15103TIP3   OH266799   0.269   5.360  12.631 -0.0248  0.1476 -0.3335
15103TIP3    H166800   0.207   5.346  12.702  0.5264 -1.4108 -0.1315
15103TIP3    H266801   0.331   5.287  12.637 -1.1000 -1.2111 -3.5913
15104TIP3   OH266802   4.528   2.530   0.189  0.3061 -0.0718  0.1702
15104TIP3    H166803   4.571   2.571   0.264 -1.0498  0.5821  0.6337
15104TIP3    H266804   4.499   2.445   0.222 -2.2062  1.0548  1.1583
15105TIP3   OH266805   6.097   3.827   0.064 -0.3035 -0.3268 -0.0788
15105TIP3    H166806   6.064   3.757   0.121  0.4743 -0.7979 -0.1896
15105TIP3    H266807   6.033   3.832  -0.007 -0.1257 -1.2640 -0.3197
15106TIP3   OH266808   0.036   3.555   5.535  0.2393  0.3010  0.4316
15106TIP3    H166809   0.004   3.567   5.624  0.7482  0.4342  0.6005
15106TIP3    H266810  -0.004   3.626   5.484 -1.1473 -0.5723  0.2507
15107TIP3   OH266811   6.653   6.522   5.387  0.1493 -0.0282  0.4629
15107TIP3    H166812   6.637   6.589   5.320 -2.0886 -0.1264  0.8336
15107TIP3    H266813   6.602   6.446   5.359  0.6390 -0.7182  1.3511
15108TIP3   OH266814   0.216   0.240  17.479 -0.2595  0.0145  0.2273
15108TIP3    H166815   0.288   0.191  17.438 -1.1104 -0.9764 -0.1100
15108TIP3    H266816   0.157   0.261  17.407 -0.3278  0.8186  0.5063
15109TIP3   OH266817   3.741   4.841   0.266 -0.7081 -0.0490  0.2405
15109TIP3    H166818   3.802   4.821   0.195 -0.3053  0.7632  0.3397
15109TIP3    H266819   3.751   4.769   0.328  0.4760  0.2761  0.4541
15110TIP3   OH266820   1.302   2.709  17.269 -0.0552 -0.0593  0.2736
15110TIP3    H166821   1.303   2.668  17.183  2.9261 -1.2584  0.7392
15110TIP3    H266822   1.321   2.801  17.253  0.7326 -0.3224 -0.3393
15111TIP3   OH266823   5.982   0.720  13.705  0.0418 -0.2546 -0.8538
15111TIP3    H166824   5.958   0.643  13.757 -1.6137  0.5872 -0.2762
15111TIP3    H266825   6.077   0.716  13.699  0.2114 -0.9796  1.3494
15112TIP3   OH266826   1.326   2.637   0.603  0.0137  0.4393 -0.4516
15112TIP3    H166827   1.362   2.591   0.527  0.3885  0.6713 -0.4167
15112TIP3    H266828   1.372   2.600   0.678  0.1986  0.7522 -0.4085
15113TIP3   OH266829   2.598   0.338  12.821 -0.0571  0.2645  0.1110
15113TIP3    H166830   2.626   0.366  12.908 -0.3525 -0.2484  0.3804
15113TIP3    H266831   2.504   0.324  12.830  0.1937 -1.7532  0.2951
15114TIP3   OH266832   2.970   2.862   4.866 -0.1503  0.1419 -0.1082
15114TIP3    H166833   3.055   2.823   4.888 -0.4736 -0.5357 -0.0317
15114TIP3    H266834   2.984   2.956   4.872  0.5219  0.0251  0.1858
15115TIP3   OH266835   6.080   1.804   2.065  0.3994 -0.3316 -0.0761
15115TIP3    H166836   6.036   1.798   2.150  0.8385 -0.2966  0.1531
15115TIP3    H266837   6.064   1.894   2.036  1.4576  0.0976  0.6318
15116TIP3   OH266838   4.381   0.208   4.025  0.2302 -0.5041 -0.4997
15116TIP3    H166839   4.285   0.209   4.020  0.0039  0.7889  2.2195
15116TIP3    H266840   4.410   0.242   3.940 -1.5846 -2.6120 -2.0830
15117TIP3   OH266841   3.836   3.561   4.792 -0.2588  0.7715  1.0050
15117TIP3    H166842   3.835   3.656   4.785 -1.7326  0.7451  0.4816
15117TIP3    H266843   3.926   3.539   4.815  0.1347  2.2762  0.9730
15118TIP3   OH266844   4.164   0.403  16.813  0.0610  0.0730 -0.0553
15118TIP3    H166845   4.145   0.388  16.720 -0.2923  1.5868 -0.2515
15118TIP3    H266846   4.103   0.472  16.839  0.0861 -0.4071  1.3473
15119TIP3   OH266847   1.682   6.633  17.651  0.1899  0.0771 -0.4477
15119TIP3    H166848   1.654   6.564  17.711  0.6329  0.6262  0.4074
15119TIP3    H266849   1.737   6.690  17.703  1.9868 -0.3236 -1.8043
15120TIP3   OH266850   2.574   4.774  12.373  0.1415 -0.1107 -0.2310
15120TIP3    H166851   2.629   4.713  12.422  0.4669  1.6568  1.7424
15120TIP3    H266852   2.612   4.860  12.389 -0.6823  0.7459 -2.3897
15121TIP3   OH266853   5.198   4.931   3.831 -0.1419 -0.2770  0.4540
15121TIP3    H166854   5.105   4.942   3.853 -0.1730 -0.3070  0.3362
15121TIP3    H266855   5.231   5.020   3.820 -0.4145 -0.2930 -0.5855
15122TIP3   OH266856   0.775   5.621  15.469  0.4914  0.3460  0.6401
15122TIP3    H166857   0.719   5.678  15.522  0.5114  1.1038 -0.1377
15122TIP3    H266858   0.853   5.674  15.451 -0.5659  1.1117 -2.2634
15123TIP3   OH266859   1.560   2.021   2.199 -0.7923 -0.1755  0.6071
15123TIP3    H166860   1.618   1.993   2.128  0.3963  1.4111  0.9079
15123TIP3    H266861   1.549   1.943   2.253  0.1063 -0.8124 -0.1023
15124TIP3   OH266862   4.369   6.522  13.121  0.0428 -0.0575  0.0406
15124TIP3    H166863   4.284   6.491  13.089 -0.0991 -0.6924  0.9883
15124TIP3    H266864   4.351   6.611  13.153  0.0655  0.3649 -1.0890
15125TIP3   OH266865   1.846   2.224  11.545 -0.3065 -0.4998  0.0766
15125TIP3    H166866   1.894   2.167  11.485 -0.7460  0.3654 -1.1312
15125TIP3    H266867   1.800   2.163  11.603 -0.0487 -1.3694 -0.6041
15126TIP3   OH266868   0.935   5.044   5.836 -0.3865  0.4870  0.0647
15126TIP3    H166869   0.940   5.138   5.855 -1.8775  1.1527 -2.4844
15126TIP3    H266870   1.004   5.029   5.771 -1.0755  0.1226 -0.5928
15127TIP3   OH266871   0.287   5.220   6.209  0.0584 -0.0141  0.1854
15127TIP3    H166872   0.282   5.208   6.114  0.7862  0.5223  0.0695
15127TIP3    H266873   0.244   5.304   6.225 -0.3700 -0.2697  0.3694
15128TIP3   OH266874   4.155   3.318   3.585  0.2079 -0.2554 -0.0650
15128TIP3    H166875   4.144   3.223   3.573  0.4636 -0.4470  1.0997
15128TIP3    H266876   4.177   3.350   3.497  1.8876 -1.5398 -0.1915
15129TIP3   OH266877   4.775   4.864   6.537 -0.0036  0.0868 -0.8665
15129TIP3    H166878   4.714   4.924   6.581  1.2144  1.7007 -1.2916
15129TIP3    H266879   4.787   4.793   6.599 -0.5685  0.8653  0.1794
15130TIP3   OH266880   2.088   3.264  12.424 -0.3129 -0.2234  0.4485
15130TIP3    H166881   2.171   3.305  12.452 -0.1687  0.1758 -0.5307
15130TIP3    H266882   2.115   3.179  12.388 -0.4681 -0.6172  1.2495
15131TIP3   OH266883   4.584   0.602   0.914  0.0094  0.4709 -0.0518
15131TIP3    H166884   4.543   0.525   0.874 -0.1538  1.2742 -1.5241
15131TIP3    H266885   4.633   0.568   0.988  1.2856 -1.3121 -1.6129
15132TIP3   OH266886   1.814   1.605  14.882 -0.6930 -0.0761 -0.3042
15132TIP3    H166887   1.790   1.681  14.936 -0.0693  0.4849 -0.7973
15132TIP3    H266888   1.899   1.578  14.915 -0.9399 -0.6128 -0.0916
15133TIP3   OH266889   2.668   5.998  13.129  0.1504 -0.6822 -0.1764
15133TIP3    H166890   2.731   5.929  13.150 -0.1970 -0.2939  2.3942
15133TIP3    H266891   2.697   6.074  13.180 -2.0793 -0.3452  0.6909
15134TIP3   OH266892   0.361   5.159  17.577  0.2960  0.3875  0.2831
15134TIP3    H166893   0.445   5.140  17.619  0.9412 -0.0973 -1.1519
15134TIP3    H266894   0.303   5.090  17.606  1.2405 -1.0082 -0.9814
15135TIP3   OH266895   2.891   3.033   0.526 -0.0903  0.0660  0.6667
15135TIP3    H166896   2.940   3.075   0.597  0.4397 -0.5131  0.6473
15135TIP3    H266897   2.894   3.097   0.454 -0.5903  0.6332  1.1449
15136TIP3   OH266898   4.674   3.578   1.143 -0.4710  0.4221 -0.1002
15136TIP3    H166899   4.714   3.647   1.090 -0.7479  0.6280 -0.0463
15136TIP3    H266900   4.609   3.624   1.197  0.0449  0.2688  0.6698
15137TIP3   OH266901   5.085   0.679  16.112  0.4494  0.1259  0.2061
15137TIP3    H166902   5.012   0.694  16.172  1.5801 -0.0061  1.6662
15137TIP3    H266903   5.053   0.709  16.027 -0.7371  1.5525  1.1212
15138TIP3   OH266904   5.763   3.764   6.824 -0.0871  0.0852  0.2850
15138TIP3    H166905   5.708   3.822   6.877 -0.7105  1.1665 -1.4777
15138TIP3    H266906   5.848   3.809   6.820  0.7001 -1.1004  2.1709
15139TIP3   OH266907   4.314   4.723   5.361 -0.0642 -0.0427  0.0242
15139TIP3    H166908   4.227   4.716   5.400 -0.2992 -2.2989 -0.7478
15139TIP3    H266909   4.373   4.735   5.436 -1.0075  1.4096  0.5572
15140TIP3   OH266910   6.572   2.399   2.885 -0.7876 -0.1122 -0.4349
15140TIP3    H166911   6.644   2.458   2.864 -0.3258 -0.5921 -0.2236
15140TIP3    H266912   6.614   2.315   2.901 -1.4601 -0.5553 -0.9465
15141TIP3   OH266913   6.231   3.547   2.083  0.3960  0.9264  0.1470
15141TIP3    H166914   6.315   3.554   2.128 -0.5967  3.3763  1.8609
15141TIP3    H266915   6.234   3.617   2.017 -0.3905  1.2758  0.4659
15142TIP3   OH266916   0.405   3.442  11.763 -0.1286 -0.9170 -0.1490
15142TIP3    H166917   0.395   3.395  11.846  1.4996 -0.6265  0.2430
15142TIP3    H266918   0.376   3.380  11.696  0.2050 -1.7994  0.5059
15143TIP3   OH266919   4.997   1.955   6.194  0.5263 -0.2233  0.1835
15143TIP3    H166920   5.023   1.899   6.121 -0.8316 -0.5705 -0.0737
15143TIP3    H266921   5.039   2.039   6.178 -1.5870  0.4912 -2.3325
15144TIP3   OH266922   3.626   2.934  14.106 -0.1120 -0.1115  0.2412
15144TIP3    H166923   3.709   2.891  14.086  0.1375 -0.2519  1.4737
15144TIP3    H266924   3.625   3.011  14.049  1.3773  0.4589  0.8987
15145TIP3   OH266925   0.805   2.942  13.515 -0.4372 -0.2026  0.3691
15145TIP3    H166926   0.771   3.010  13.457  1.5334 -0.5169 -1.2786
15145TIP3    H266927   0.895   2.929  13.486 -0.1209 -2.0768  1.9901
15146TIP3   OH266928   2.554   4.667  16.281 -0.1916  0.2249 -0.2335
15146TIP3    H166929   2.468   4.691  16.314 -0.1061 -0.2096  0.3098
15146TIP3    H266930   2.588   4.603  16.344 -0.3548 -1.2223 -1.5314
15147TIP3   OH266931   2.827   4.933  13.939  0.3456 -0.2622  0.6429
15147TIP3    H166932   2.765   5.004  13.955  1.4360  0.7144  0.5660
15147TIP3    H266933   2.785   4.880  13.871 -0.3425  0.4580  0.4945
15148TIP3   OH266934   2.040   4.113  14.394  0.1455 -0.5162  0.1075
15148TIP3    H166935   2.070   4.119  14.303 -0.0149 -0.7236  0.0403
15148TIP3    H266936   2.115   4.078  14.442 -0.0002 -1.0810 -0.0700
15149TIP3   OH266937   1.533   3.964  11.880 -0.2704  0.4008 -0.6121
15149TIP3    H166938   1.562   3.917  11.958 -1.9309  0.7301  0.2656
15149TIP3    H266939   1.546   3.903  11.808 -0.7755 -0.7746  0.2649
15150TIP3   OH266940   0.836   0.288  12.810  0.3037  0.2460 -0.3037
15150TIP3    H166941   0.863   0.298  12.719 -0.3591  2.7277 -0.2984
15150TIP3    H266942   0.750   0.247  12.806 -0.8448  2.5265 -1.0322
15151TIP3   OH266943   0.993   5.466   1.594 -0.8468  0.0282  0.3501
15151TIP3    H166944   1.072   5.485   1.644 -1.3518 -1.3619  1.7522
15151TIP3    H266945   1.006   5.511   1.510  0.7537  1.0426  1.1010
15152TIP3   OH266946   0.339   0.638   2.632 -0.6119 -0.0500  0.1259
15152TIP3    H166947   0.363   0.702   2.564  1.4538  1.5507  2.1615
15152TIP3    H266948   0.267   0.588   2.594 -1.6114  2.7617 -2.0411
15153TIP3   OH266949   4.254   3.111  12.568 -0.5293 -0.4283  0.2977
15153TIP3    H166950   4.174   3.158  12.548 -1.0512 -2.2865 -2.4533
15153TIP3    H266951   4.228   3.047  12.634 -1.3408 -0.9582 -0.5084
15154TIP3   OH266952   6.476   1.305   2.581 -0.2034  0.4251  0.0481
15154TIP3    H166953   6.414   1.341   2.517 -0.3227  1.0256  0.4911
15154TIP3    H266954   6.431   1.229   2.618 -1.1228  1.4460  1.0983
15155TIP3   OH266955   0.814   6.238  15.802 -0.2114 -0.8558 -0.2427
15155TIP3    H166956   0.817   6.152  15.842  0.4554 -1.1737 -0.9485
15155TIP3    H266957   0.833   6.299  15.873  0.4214 -1.3700  0.0329
15156TIP3   OH266958   0.578   4.298  17.469  0.2557  0.1633  0.0248
15156TIP3    H166959   0.658   4.283  17.417 -0.2277  0.0272 -0.6981
15156TIP3    H266960   0.546   4.383  17.437  0.1429  0.2452  0.3594
15157TIP3   OH266961   2.895   3.056   1.354 -0.4686 -0.0643 -0.2874
15157TIP3    H166962   2.833   2.986   1.375 -1.9703  1.1068 -0.7276
15157TIP3    H266963   2.886   3.119   1.424  2.0146 -0.9307  0.9633
15158TIP3   OH266964   2.934   4.031   5.261 -0.7304 -0.6520 -0.0431
15158TIP3    H166965   2.897   4.009   5.347 -1.0825  0.1229  0.0045
15158TIP3    H266966   2.925   3.950   5.210  1.8483 -2.0058  1.4146
15159TIP3   OH266967   4.986   6.422  16.129  0.2975 -1.1644  0.4703
15159TIP3    H166968   4.986   6.516  16.145 -1.7386 -0.9827 -0.4078
15159TIP3    H266969   5.072   6.404  16.091  1.2660  0.0663  1.9593
15160TIP3   OH266970   4.306   1.099   6.152  0.1578 -0.0185 -0.3216
15160TIP3    H166971   4.334   1.119   6.241 -1.5479  0.2904  0.1919
15160TIP3    H266972   4.365   1.030   6.123  1.9183  1.1450  0.3430
15161TIP3   OH266973   2.419   3.712  12.118 -0.3349 -0.4864  0.1274
15161TIP3    H166974   2.432   3.741  12.028  0.3096 -0.7418  0.1278
15161TIP3    H266975   2.341   3.656  12.115 -0.7401  0.0864 -0.1311
15162TIP3   OH266976   1.306   0.046  12.790 -0.6016  0.0909 -0.1907
15162TIP3    H166977   1.229   0.015  12.741  0.1893 -0.2889 -1.2335
15162TIP3    H266978   1.349   0.107  12.731 -0.2108  0.4732  0.4779
15163TIP3   OH266979   1.502   0.371   4.713 -0.4146  0.3462 -0.2854
15163TIP3    H166980   1.521   0.458   4.748 -1.1873  0.4111 -0.0163
15163TIP3    H266981   1.410   0.374   4.689 -0.0708  0.0855 -1.7179
15164TIP3   OH266982   1.981   4.290   3.976  0.3752  0.2355 -0.4715
15164TIP3    H166983   1.937   4.249   4.051  0.8181  0.7467  0.0758
15164TIP3    H266984   2.065   4.244   3.971  0.0813 -0.2477 -1.0692
15165TIP3   OH266985   1.830   1.848   3.137  0.3387  0.4107  0.0645
15165TIP3    H166986   1.777   1.873   3.061 -0.2640  2.4838  1.0989
15165TIP3    H266987   1.893   1.919   3.147  0.2539  0.2992  1.6380
15166TIP3   OH266988   5.921   5.231   3.882  0.1122 -0.0387 -0.4599
15166TIP3    H166989   5.984   5.199   3.947 -0.1132  0.7149  0.1467
15166TIP3    H266990   5.881   5.152   3.846 -0.5791 -0.4564  1.1473
15167TIP3   OH266991   4.516   3.972   5.323  0.1243  0.1003  0.0321
15167TIP3    H166992   4.493   3.879   5.324  1.1099 -0.1456  0.8669
15167TIP3    H266993   4.507   3.997   5.231  1.0610 -1.1439 -0.4348
15168TIP3   OH266994   2.234   0.408  14.605  0.1889  0.2269 -0.2314
15168TIP3    H166995   2.325   0.385  14.625 -0.3518 -1.7941  0.1163
15168TIP3    H266996   2.207   0.343  14.540 -0.5426  1.8152 -1.6170
15169TIP3   OH266997   5.946   2.975  12.194 -0.0290  0.2123  0.2374
15169TIP3    H166998   5.991   3.050  12.155 -0.3774  0.9270  1.1805
15169TIP3    H266999   5.860   3.009  12.219 -0.6375 -0.8163 -0.3970
15170TIP3   OH267000   5.811   2.162  16.664 -0.0228 -0.0827  0.2867
15170TIP3    H167001   5.899   2.173  16.700 -0.0073  0.6531  0.0378
15170TIP3    H267002   5.763   2.240  16.694 -0.2881  0.0422 -0.4450
15171TIP3   OH267003   5.365   3.258   6.423  0.3861 -0.0968 -0.3438
15171TIP3    H167004   5.374   3.210   6.505 -2.6675 -0.3844 -0.0642
15171TIP3    H267005   5.294   3.320   6.439  0.7802  0.9392 -2.3076
15172TIP3   OH267006   0.546   3.862   0.450  0.4389 -0.2364  0.1079
15172TIP3    H167007   0.559   3.829   0.539  1.0194 -0.7297 -0.1539
15172TIP3    H267008   0.540   3.957   0.460 -0.1302 -0.3285  0.7398
15173TIP3   OH267009   1.713   0.529   4.218  0.5078  0.2562 -0.4186
15173TIP3    H167010   1.783   0.509   4.156 -0.7500 -1.0323 -1.4800
15173TIP3    H267011   1.697   0.447   4.265 -0.8759  0.2494 -0.8401
15174TIP3   OH267012   5.192   2.850  17.486  0.7660 -0.6947 -0.2159
15174TIP3    H167013   5.211   2.789  17.557  2.9240 -0.0398 -0.1419
15174TIP3    H267014   5.113   2.897  17.514 -1.1968 -3.6073 -0.4542
15175TIP3   OH267015   4.229   5.939  13.743 -0.1198  0.1567  0.4397
15175TIP3    H167016   4.314   5.920  13.782 -0.0677 -3.0465 -0.9409
15175TIP3    H267017   4.248   5.958  13.651 -0.8431 -0.3623  0.1674
15176TIP3   OH267018   0.362   2.366   4.208  0.0841 -0.2872 -0.0366
15176TIP3    H167019   0.399   2.446   4.246 -1.7586  0.8136 -0.4070
15176TIP3    H267020   0.425   2.297   4.229  1.7380  1.2572  0.2838
15177TIP3   OH267021   3.530   4.797  14.077  1.0119 -0.1902  0.5384
15177TIP3    H167022   3.600   4.812  14.140  0.3425  0.4427  1.1424
15177TIP3    H267023   3.551   4.856  14.004  0.0629  1.5087  1.5784
15178TIP3   OH267024   1.789   3.646  15.562  0.1837 -0.0929  0.0391
15178TIP3    H167025   1.746   3.723  15.597 -0.8009  0.1865 -1.6921
15178TIP3    H267026   1.779   3.579  15.630 -0.9219  0.6537  0.6280
15179TIP3   OH267027   1.725   4.871  11.106 -0.7969 -0.0197 -0.4153
15179TIP3    H167028   1.809   4.829  11.085 -0.9628 -0.7379  0.3091
15179TIP3    H267029   1.707   4.927  11.030  0.9181  1.0844 -0.0692
15180TIP3   OH267030   1.271   3.721  16.053  0.1294 -0.2125  0.1193
15180TIP3    H167031   1.365   3.742  16.049  0.3712 -0.4396  2.7046
15180TIP3    H267032   1.256   3.664  15.978  1.2103  2.6060 -2.4441
15181TIP3   OH267033   3.840   6.129  14.229 -0.0173 -0.1586 -0.5733
15181TIP3    H167034   3.806   6.194  14.291  2.4709  1.5082 -0.8293
15181TIP3    H267035   3.775   6.126  14.159 -1.7572 -0.3911  0.9828
15182TIP3   OH267036   1.380   5.466  17.322  0.0701  0.3140  0.3713
15182TIP3    H167037   1.300   5.415  17.308  0.3299  0.1639 -0.6942
15182TIP3    H267038   1.450   5.410  17.289  0.6729  0.2894  1.6419
15183TIP3   OH267039   3.453   4.419   2.046 -0.3559  0.6303  0.0581
15183TIP3    H167040   3.407   4.353   1.994 -0.0446  0.8256 -0.4788
15183TIP3    H267041   3.482   4.372   2.124  1.7838 -0.4902 -1.2878
15184TIP3   OH267042   2.110   0.997   4.714 -0.5865  0.0037 -0.1860
15184TIP3    H167043   2.162   1.057   4.661  0.5767  1.0737  2.0280
15184TIP3    H267044   2.033   1.047   4.740  0.0178  0.3327  1.0451
15185TIP3   OH267045   2.697   0.834  12.262 -0.3911 -0.6547 -0.3902
15185TIP3    H167046   2.673   0.926  12.255 -0.5015 -0.7057 -0.6838
15185TIP3    H267047   2.698   0.802  12.172  0.7298 -0.6595 -0.3975
15186TIP3   OH267048   0.642   6.352  16.334  0.3160 -0.0114 -0.5556
15186TIP3    H167049   0.645   6.256  16.344  1.2032  0.0979  0.4052
15186TIP3    H267050   0.654   6.385  16.423  0.5096  1.0034 -0.9549
15187TIP3   OH267051   0.816   1.805   5.489 -0.3217 -0.0403  0.2896
15187TIP3    H167052   0.762   1.776   5.415 -1.6478  0.6949  0.9256
15187TIP3    H267053   0.806   1.900   5.489  0.5285  0.0534  0.7752
15188TIP3   OH267054   6.601   3.970  11.300 -0.1779  1.0097 -0.2386
15188TIP3    H167055   6.620   3.913  11.374 -1.2369 -1.4253 -1.7320
15188TIP3    H267056   6.685   4.012  11.280  1.1250 -1.3567 -0.1052
15189TIP3   OH267057   4.477   6.672   4.865 -0.0064  0.3760 -0.5800
15189TIP3    H167058   4.491   6.615   4.940  1.9718  0.9023 -0.4841
15189TIP3    H267059   4.393   6.644   4.829  0.0429 -1.3546  0.5133
15190TIP3   OH267060   0.948   3.208  13.910 -0.1044 -0.3622  0.1452
15190TIP3    H167061   0.857   3.201  13.880  0.1164 -1.8681 -0.2527
15190TIP3    H267062   1.000   3.179  13.835  0.7868  1.3887  0.0318
15191TIP3   OH267063   3.343   0.944  12.562 -0.4933 -0.3898  0.0834
15191TIP3    H167064   3.396   1.011  12.606  2.3496 -2.5033  0.1917
15191TIP3    H267065   3.294   0.903  12.633 -2.4762  1.6064 -0.0180
15192TIP3   OH267066   5.982   3.475   1.148  0.0061 -0.0791 -0.9418
15192TIP3    H167067   6.026   3.437   1.224 -1.2822 -0.7123 -0.4992
15192TIP3    H267068   6.047   3.536   1.112  0.9749 -0.4401  0.1151
15193TIP3   OH267069   0.573   4.092  16.794  0.1043  0.0241  0.1677
15193TIP3    H167070   0.637   4.026  16.821  0.1825 -0.0275 -0.1346
15193TIP3    H267071   0.503   4.085  16.859 -0.1771 -0.7906 -0.1995
15194TIP3   OH267072   2.111   0.422   5.055 -0.5013 -0.0934 -0.2525
15194TIP3    H167073   2.104   0.509   5.093  0.5153 -0.0781 -0.0653
15194TIP3    H267074   2.060   0.426   4.974  0.9701  1.2290 -1.1665
15195TIP3   OH267075   3.744   2.504  17.604 -0.2436  0.1111  0.0576
15195TIP3    H167076   3.671   2.565  17.621  0.6233  0.6633  2.1525
15195TIP3    H267077   3.717   2.423  17.647 -0.3844 -0.2742 -0.7387
15196TIP3   OH267078   0.491   4.060   5.574  0.7691  0.4590  0.3602
15196TIP3    H167079   0.442   4.068   5.492 -3.3625  1.7035  2.6847
15196TIP3    H267080   0.576   4.024   5.547 -0.8091 -0.5320 -4.2331
15197TIP3   OH267081   0.838   0.514   2.660 -0.5205 -0.2890  0.3221
15197TIP3    H167082   0.758   0.463   2.667 -0.7584  0.0571  0.1408
15197TIP3    H267083   0.809   0.605   2.661 -0.1041 -0.1566  0.5885
15198TIP3   OH267084   6.087   5.420  10.849  0.1473  0.0589 -0.1369
15198TIP3    H167085   6.142   5.386  10.778  0.9243 -0.3128  0.6209
15198TIP3    H267086   6.054   5.342  10.893 -1.2279  0.2765 -0.7469
15199TIP3   OH267087   0.338   3.238   3.276  0.2102 -0.5359  0.3400
15199TIP3    H167088   0.324   3.230   3.371  0.8267  0.2018  0.5043
15199TIP3    H267089   0.256   3.273   3.242  0.3307  0.1793  0.7594
15200TIP3   OH267090   0.633   4.587   3.444 -0.3368 -0.3027  0.1255
15200TIP3    H167091   0.642   4.515   3.382  0.0818 -0.0198 -0.1413
15200TIP3    H267092   0.615   4.664   3.390 -0.3609 -0.1254  0.3810
15201TIP3   OH267093   0.375   1.527   4.280 -0.5630 -0.0623  0.7038
15201TIP3    H167094   0.398   1.441   4.314  1.4415 -0.4500 -1.3855
15201TIP3    H267095   0.297   1.512   4.226  1.0076 -1.0950 -1.4164
15202TIP3   OH267096   1.823   5.817   0.386 -0.4773  0.1344  0.5193
15202TIP3    H167097   1.902   5.789   0.340 -0.3115  0.5006  0.5728
15202TIP3    H267098   1.751   5.775   0.339 -0.2705  0.0553  0.2717
15203TIP3   OH267099   5.523   0.027   4.590  0.2679 -0.0125  0.2975
15203TIP3    H167100   5.502  -0.064   4.611 -0.7770 -0.1264 -1.0474
15203TIP3    H267101   5.610   0.042   4.627 -0.2484 -1.0215  2.0158
15204TIP3   OH267102   0.534   1.216   0.528 -0.2595  0.2502 -0.1493
15204TIP3    H167103   0.442   1.212   0.555  0.0535  1.2631  1.1678
15204TIP3    H267104   0.581   1.169   0.596  0.2213 -0.1119 -0.7296
15205TIP3   OH267105   4.755   5.589  13.579  0.1800  0.5408 -0.3898
15205TIP3    H167106   4.730   5.548  13.662  1.9997  0.3152  0.1010
15205TIP3    H267107   4.749   5.518  13.515 -0.8782  0.6243 -0.3920
15206TIP3   OH267108   0.473   2.916  13.515  0.1673 -0.4690 -0.4506
15206TIP3    H167109   0.536   2.930  13.444  0.3164 -0.5931 -0.3418
15206TIP3    H267110   0.519   2.941  13.594  0.8796 -2.6524 -0.0852
15207TIP3   OH267111   4.690   3.513  14.595  0.1277 -0.2667  0.2646
15207TIP3    H167112   4.772   3.562  14.603  0.3994 -0.6279 -0.2133
15207TIP3    H267113   4.630   3.556  14.655  0.5007  0.3555  0.1972
15208TIP3   OH267114   3.891   5.984  12.703  0.0671 -0.2016 -0.8788
15208TIP3    H167115   3.814   5.935  12.673 -2.3473  1.7071  1.6322
15208TIP3    H267116   3.903   5.956  12.793  1.5694  0.4760 -0.8510
15209TIP3   OH267117   3.402   3.421  14.574  0.0877  0.3335 -0.1778
15209TIP3    H167118   3.429   3.374  14.496 -1.6870  0.5778 -0.9712
15209TIP3    H267119   3.466   3.492  14.582  0.4547  0.1368 -1.2365
15210TIP3   OH267120   2.041   0.074   1.583  0.3392 -0.0487 -0.5049
15210TIP3    H167121   2.087   0.158   1.582 -0.4203  0.3830 -2.2007
15210TIP3    H267122   1.985   0.077   1.506 -0.1063 -1.9050 -0.2834
15211TIP3   OH267123   1.063   5.821   3.700  0.1211 -0.2148  0.0397
15211TIP3    H167124   1.077   5.803   3.607  1.8604  1.8801 -0.1939
15211TIP3    H267125   1.123   5.761   3.745  0.0009 -0.5472 -0.2347
15212TIP3   OH267126   6.718   4.468   4.207  0.1759  0.2146 -0.6628
15212TIP3    H167127   6.759   4.551   4.230 -0.3343 -0.0119  1.2487
15212TIP3    H267128   6.666   4.445   4.284 -0.6097 -1.3123 -1.5968
15213TIP3   OH267129   5.122   5.311   1.319  0.3622  0.0811  0.2919
15213TIP3    H167130   5.035   5.274   1.301  0.2716  0.6085 -0.3645
15213TIP3    H267131   5.146   5.273   1.404 -0.8019  0.4455  0.8096
15214TIP3   OH267132   3.807   5.262  15.257 -0.2387  0.1422  0.2850
15214TIP3    H167133   3.722   5.246  15.299 -0.5463 -1.4091 -0.8329
15214TIP3    H267134   3.870   5.263  15.330 -0.8553 -1.6610  0.8956
15215TIP3   OH267135   0.049   0.537   4.827  0.2470 -0.2060  0.1221
15215TIP3    H167136   0.086   0.531   4.916  3.6237 -0.1412 -1.1348
15215TIP3    H267137   0.125   0.552   4.771 -2.0296  2.2693 -2.5746
15216TIP3   OH267138   4.631   0.921  15.544  0.0130 -0.2561 -0.0905
15216TIP3    H167139   4.593   0.837  15.520 -1.4926  0.3616 -0.0165
15216TIP3    H267140   4.712   0.926  15.493 -1.0921 -0.7104 -2.0112
15217TIP3   OH267141   3.160   3.638  17.217 -0.0851  0.4525 -0.0871
15217TIP3    H167142   3.075   3.663  17.180  0.0724  0.4249 -0.4741
15217TIP3    H267143   3.158   3.542  17.217  0.0509  0.4501 -0.3397
15218TIP3   OH267144   4.702   2.143  15.004 -0.6364  0.3133 -0.5341
15218TIP3    H167145   4.666   2.208  15.064  1.1243 -0.8224  1.9713
15218TIP3    H267146   4.697   2.061  15.053  1.3902 -0.5947 -1.7206
15219TIP3   OH267147   5.516   4.648   0.412 -0.0804  0.1416  0.1600
15219TIP3    H167148   5.527   4.666   0.319 -2.7815 -1.1600 -0.5126
15219TIP3    H267149   5.535   4.555   0.421 -0.8795  0.0104  0.6604
15220TIP3   OH267150   5.314   1.944   3.848  0.0767 -0.1704 -0.2939
15220TIP3    H167151   5.379   1.891   3.895 -0.4669 -1.5513 -1.0635
15220TIP3    H267152   5.366   2.008   3.800  0.7656 -0.1990  0.3937
15221TIP3   OH267153   2.837   3.635  12.901  0.2092  0.4764  0.2014
15221TIP3    H167154   2.903   3.606  12.963  0.8191  1.7692  0.1834
15221TIP3    H267155   2.816   3.724  12.927  1.6587  1.6746 -2.3510
15222TIP3   OH267156   3.563   6.016  14.447  0.1764 -0.1274  0.3679
15222TIP3    H167157   3.546   6.087  14.384 -0.9976 -0.4689  0.2798
15222TIP3    H267158   3.589   6.062  14.527 -1.3004  0.4742  0.5421
15223TIP3   OH267159   3.493   1.288  11.769  0.2372 -0.1856 -0.1192
15223TIP3    H167160   3.411   1.241  11.784 -0.4119  1.4040  1.6856
15223TIP3    H267161   3.547   1.227  11.719 -0.5193 -2.8354  2.1084
15224TIP3   OH267162   5.144   3.054   0.781  0.0305 -0.5966 -0.2404
15224TIP3    H167163   5.172   2.975   0.735  0.2312 -0.7939  0.2222
15224TIP3    H267164   5.103   3.107   0.713 -1.0236 -1.5308 -0.3788
15225TIP3   OH267165   3.175   0.733  12.409  0.4850  0.4256 -0.1110
15225TIP3    H167166   3.097   0.765  12.363 -0.5246 -1.3777  0.2185
15225TIP3    H267167   3.172   0.777  12.494 -0.0814  0.5063 -0.1685
15226TIP3   OH267168   0.035   3.265  14.841 -0.1548 -0.0559  0.1957
15226TIP3    H167169   0.037   3.289  14.749  1.3843 -0.6087  0.0668
15226TIP3    H267170   0.004   3.174  14.841  0.8946 -0.4280  0.1158
15227TIP3   OH267171   4.473   0.648   3.368  0.0390  0.1219  0.0012
15227TIP3    H167172   4.402   0.605   3.415  0.5002 -1.1742 -0.4375
15227TIP3    H267173   4.536   0.673   3.436 -0.0054 -0.3530  0.2171
15228TIP3   OH267174   0.781   3.123   1.887  0.3414  0.7643  0.0577
15228TIP3    H167175   0.711   3.189   1.885  0.5807  1.0155  0.0308
15228TIP3    H267176   0.861   3.173   1.904  0.2991  0.3036  1.7989
15229TIP3   OH267177   5.378   6.148  16.285 -0.5352 -0.1480  0.2318
15229TIP3    H167178   5.326   6.071  16.265 -1.4989  0.0536  1.8288
15229TIP3    H267179   5.464   6.130  16.248 -0.8434 -1.8383  0.2954
15230TIP3   OH267180   3.426   4.129  12.327 -0.2029  0.1908  0.0059
15230TIP3    H167181   3.506   4.182  12.325 -0.6347  0.8762  0.5080
15230TIP3    H267182   3.355   4.191  12.310 -0.6787 -0.3078  0.1288
15231TIP3   OH267183   4.877   5.179   0.442  0.0053  0.4290  0.2307
15231TIP3    H167184   4.792   5.138   0.460 -0.9401  2.1385 -0.0682
15231TIP3    H267185   4.925   5.174   0.524 -0.6465  0.0018  0.5867
15232TIP3   OH267186   2.616   3.044   5.627  0.7655  0.1470  0.1760
15232TIP3    H167187   2.674   3.031   5.551  0.9490  1.4761  0.0635
15232TIP3    H267188   2.603   3.139   5.631  1.3987  0.1882  2.2854
15233TIP3   OH267189   2.216   1.057   0.227  0.0334  0.4305  0.1243
15233TIP3    H167190   2.235   1.139   0.273 -1.4765  0.4820  0.7180
15233TIP3    H267191   2.215   1.081   0.135 -3.0454  1.7564  0.3825
15234TIP3   OH267192   5.656   2.393  12.210  0.2564 -0.1620 -0.2819
15234TIP3    H167193   5.744   2.377  12.243  0.3167  0.5721 -0.0643
15234TIP3    H267194   5.662   2.478  12.166 -0.5162  0.2775  0.4332
15235TIP3   OH267195   3.259   6.219   5.254 -0.4199  0.5665  0.9289
15235TIP3    H167196   3.264   6.138   5.306  0.1683  0.2971  0.4762
15235TIP3    H267197   3.349   6.251   5.253 -0.3149  0.2601 -0.3911
15236TIP3   OH267198   5.864   1.451  16.254 -0.2131 -0.8568 -0.1116
15236TIP3    H167199   5.932   1.439  16.321  0.4026 -0.3804 -0.6362
15236TIP3    H267200   5.890   1.531  16.209 -1.7198 -0.0733  0.3664
15237TIP3   OH267201   5.758   5.083   6.550 -0.6166  0.1806 -0.1136
15237TIP3    H167202   5.819   5.013   6.572  0.4593  0.9325 -0.6370
15237TIP3    H267203   5.705   5.048   6.479 -0.4666 -0.3083  0.0131
15238TIP3   OH267204   4.464   4.157  12.101 -0.0121  0.6771  0.6907
15238TIP3    H167205   4.528   4.227  12.091 -0.2992  0.6770 -1.9458
15238TIP3    H267206   4.387   4.200  12.139  0.2069  1.5618  0.1593
15239TIP3   OH267207   3.306   6.368   0.321 -0.1531  0.3306  0.2185
15239TIP3    H167208   3.333   6.437   0.380  0.6795  0.2124 -0.0135
15239TIP3    H267209   3.309   6.288   0.374  0.5183  0.2358  0.0494
15240TIP3   OH267210   2.265   0.718   2.234  0.0685  0.5659  0.0280
15240TIP3    H167211   2.353   0.744   2.259  0.0544  1.0931 -0.4279
15240TIP3    H267212   2.209   0.789   2.267 -0.1804  0.2598  0.2727
15241TIP3   OH267213   3.695   2.662   1.092  0.2646  0.1416  0.4222
15241TIP3    H167214   3.742   2.745   1.103 -0.1599  0.2030  2.0885
15241TIP3    H267215   3.736   2.622   1.016  0.7880  1.6716 -0.1514
15242TIP3   OH267216   1.547   2.646   5.758  0.1327  0.0690 -0.1705
15242TIP3    H167217   1.601   2.724   5.769 -0.3783  0.4922 -0.5874
15242TIP3    H267218   1.466   2.667   5.805 -0.3849  0.1869 -1.0904
15243TIP3   OH267219   2.381   6.573  11.342 -0.1598  0.1060 -0.1152
15243TIP3    H167220   2.321   6.635  11.384 -1.8059  1.1116 -3.6015
15243TIP3    H267221   2.342   6.487  11.359 -0.5451  0.4245  0.6889
15244TIP3   OH267222   1.241   5.529   0.103  0.5625 -0.4315  0.2324
15244TIP3    H167223   1.175   5.562   0.041  0.0821 -0.6253  0.6273
15244TIP3    H267224   1.288   5.462   0.054 -1.7864 -2.7752  0.9424
15245TIP3   OH267225   4.867   2.147   2.841 -0.1599  0.9814 -0.5638
15245TIP3    H167226   4.950   2.127   2.884  1.1929  1.0540 -2.9712
15245TIP3    H267227   4.839   2.230   2.879 -0.0298  0.1458  1.4608
15246TIP3   OH267228   4.572   0.388   5.198  0.3352 -0.2361 -0.5543
15246TIP3    H167229   4.625   0.468   5.194 -0.2518  0.1087 -1.9237
15246TIP3    H267230   4.491   0.415   5.240  0.6852 -0.4636  0.3041
15247TIP3   OH267231   3.272   1.968  14.900  0.1282  0.4695 -0.0779
15247TIP3    H167232   3.280   2.030  14.973 -0.9793 -0.9678  1.3469
15247TIP3    H267233   3.299   1.884  14.937 -0.4035 -0.2850 -1.3460
15248TIP3   OH267234   5.940   0.284  14.265  0.6186  0.3920  0.2650
15248TIP3    H167235   5.973   0.367  14.231 -1.6977  0.9415 -0.7814
15248TIP3    H267236   5.849   0.280  14.237  0.3891 -2.0896  1.0883
15249TIP3   OH267237   3.231   4.367  13.268 -0.2464  0.4039 -0.3477
15249TIP3    H167238   3.249   4.314  13.191 -0.9379  0.4478 -0.5423
15249TIP3    H267239   3.147   4.409  13.250  1.0358  2.9578 -0.9772
15250TIP3   OH267240   3.328   2.935  13.883  0.0526  0.0882  0.1079
15250TIP3    H167241   3.413   2.956  13.844  0.0294 -1.4280 -0.7990
15250TIP3    H267242   3.276   2.900  13.811  0.0786 -3.0028  1.4635
15251TIP3   OH267243   1.989   5.356   4.659  0.7502  0.1303 -0.9751
15251TIP3    H167244   2.048   5.284   4.636  1.7801 -0.3426  2.5073
15251TIP3    H267245   2.045   5.420   4.703 -0.7190  1.4432 -0.9267
15252TIP3   OH267246   0.219   5.628   5.023 -0.2628 -0.2230  0.3831
15252TIP3    H167247   0.170   5.576   4.959 -0.0471  0.0710 -0.0189
15252TIP3    H267248   0.299   5.653   4.978 -0.5308  0.7807  0.4509
15253TIP3   OH267249   4.739   6.493  16.421 -0.3388  0.2184  0.3945
15253TIP3    H167250   4.777   6.516  16.337  0.4889 -2.2600 -0.0032
15253TIP3    H267251   4.808   6.443  16.465 -2.0670 -1.9002  0.8702
15254TIP3   OH267252   5.260   6.710  13.773  0.2801 -0.4689  0.0694
15254TIP3    H167253   5.327   6.656  13.814 -0.6623 -1.3108  0.5464
15254TIP3    H267254   5.177   6.673  13.803 -0.4098  0.5299 -0.5226
15255TIP3   OH267255   0.947   5.718   0.661  0.0456  0.1507 -0.0738
15255TIP3    H167256   0.866   5.754   0.626 -0.3149  0.0346  0.6243
15255TIP3    H267257   0.919   5.653   0.725  0.6936 -0.2940 -0.2318
15256TIP3   OH267258   3.253   1.411  12.099 -0.2829  0.2756 -0.2440
15256TIP3    H167259   3.332   1.463  12.082  0.5410 -0.7852  0.2320
15256TIP3    H267260   3.181   1.468  12.073  0.6294  1.3411 -0.5141
15257TIP3   OH267261   0.279   2.780   5.659  0.4893  0.3032 -0.1257
15257TIP3    H167262   0.281   2.769   5.564  0.0440  0.4016 -0.1486
15257TIP3    H267263   0.291   2.875   5.671 -0.1301  0.3872 -0.1169
15258TIP3   OH267264   0.855   3.419  11.581 -0.0361 -0.1607 -0.1850
15258TIP3    H167265   0.846   3.434  11.487 -1.7787  0.3559  0.0237
15258TIP3    H267266   0.933   3.468  11.607  0.2043  0.0483 -1.2908
15259TIP3   OH267267   3.291   2.298  11.305  0.5079  0.4505 -0.1200
15259TIP3    H167268   3.294   2.349  11.225  1.3071 -0.3346 -0.6041
15259TIP3    H267269   3.200   2.269  11.312  0.6410 -0.2893 -1.2723
15260TIP3   OH267270   0.149   3.753  16.936  0.1600 -0.2082 -0.7201
15260TIP3    H167271   0.161   3.763  16.842 -0.6330 -0.3017 -0.8339
15260TIP3    H267272   0.070   3.699  16.945  1.1754 -1.6666 -0.0349
15261TIP3   OH267273   6.020   0.749   4.827 -0.5522  0.2187 -0.2206
15261TIP3    H167274   5.932   0.753   4.865 -0.4833 -1.9250  0.2945
15261TIP3    H267275   6.031   0.657   4.802  1.1771  0.6519 -1.1832
15262TIP3   OH267276   2.114   1.683  12.390 -0.0453  0.0330  0.1331
15262TIP3    H167277   2.106   1.592  12.362  0.1347 -0.8355  2.6754
15262TIP3    H267278   2.072   1.734  12.321 -2.2011 -2.1552 -0.2641
15263TIP3   OH267279   3.711   5.215  13.242 -0.0154 -0.0895 -0.0898
15263TIP3    H167280   3.649   5.209  13.169  0.9002  1.7745 -1.0785
15263TIP3    H267281   3.763   5.135  13.234  0.2607  0.2053 -1.7055
15264TIP3   OH267282   3.328   4.334  15.155 -1.0366 -0.4133 -0.1440
15264TIP3    H167283   3.317   4.305  15.065 -0.5686 -0.5202 -0.1723
15264TIP3    H267284   3.245   4.376  15.178 -0.8161  0.5024 -0.9551
15265TIP3   OH267285   5.877   5.438   5.947 -0.2083 -0.0030 -0.1477
15265TIP3    H167286   5.964   5.476   5.930 -1.2097  1.8210 -1.5586
15265TIP3    H267287   5.848   5.406   5.862 -1.4095  0.5292  0.0436
15266TIP3   OH267288   4.402   6.601   4.578 -0.4794 -0.4391  0.0948
15266TIP3    H167289   4.463   6.572   4.646  1.4912  1.1795 -0.9003
15266TIP3    H267290   4.352   6.522   4.556  1.1609 -1.8018  1.0361
15267TIP3   OH267291   4.569   3.624  16.308 -0.2810  0.4372  0.5557
15267TIP3    H167292   4.520   3.706  16.294 -0.9416 -0.0675 -0.1657
15267TIP3    H267293   4.505   3.555  16.289  0.1642 -0.2593  1.5112
15268TIP3   OH267294   4.465   1.730   0.087 -0.4447 -0.2490 -0.0926
15268TIP3    H167295   4.520   1.722   0.166  0.3187 -0.4753 -0.6350
15268TIP3    H267296   4.484   1.650   0.037 -0.2568  0.2962 -0.9090
15269TIP3   OH267297   1.319   2.611   1.914 -0.2043  1.0635  0.1479
15269TIP3    H167298   1.390   2.556   1.948 -0.7904  0.4119  0.3705
15269TIP3    H267299   1.273   2.641   1.992  0.2585  2.0990  0.0370
15270TIP3   OH267300   5.445   2.393   5.173  0.1504 -0.2196 -0.0894
15270TIP3    H167301   5.521   2.429   5.126 -0.8490  2.8083  0.3531
15270TIP3    H267302   5.422   2.314   5.125  2.7545 -0.5029 -1.0318
15271TIP3   OH267303   5.721   1.136   5.167 -0.0621  0.5677  0.9327
15271TIP3    H167304   5.638   1.107   5.129  1.1588  0.2062 -1.6523
15271TIP3    H267305   5.703   1.223   5.203 -1.5070  0.5599  0.2727
15272TIP3   OH267306   4.781   4.915  11.593  0.2776  0.0129  0.2003
15272TIP3    H167307   4.851   4.952  11.540  0.5739 -1.5209 -0.5249
15272TIP3    H267308   4.776   4.973  11.669  0.5240  1.6654 -0.9901
15273TIP3   OH267309   6.480   4.976   0.360  0.3242  0.1038  0.3491
15273TIP3    H167310   6.484   4.912   0.289  0.6235 -1.1575  1.4706
15273TIP3    H267311   6.386   4.993   0.372  0.3189  2.8557 -2.4855
15274TIP3   OH267312   5.396   1.354   0.367  0.2206  0.6921 -0.0403
15274TIP3    H167313   5.472   1.401   0.402  0.4099 -0.1282  0.6664
15274TIP3    H267314   5.390   1.384   0.276  1.5891  0.5267 -0.2135
15275TIP3   OH267315   3.224   5.845  13.640  0.4237 -0.9105  0.1233
15275TIP3    H167316   3.293   5.912  13.637  0.7272 -1.1579  1.0117
15275TIP3    H267317   3.263   5.768  13.598 -0.9654  0.2759 -3.7294
15276TIP3   OH267318   3.378   0.617   4.140  0.1877 -0.3521  0.0225
15276TIP3    H167319   3.286   0.629   4.116  0.5104  0.1341 -1.0039
15276TIP3    H267320   3.407   0.705   4.166 -0.2129 -0.8798  2.5426
15277TIP3   OH267321   4.153   1.076  13.966 -0.1477 -0.4112  0.0072
15277TIP3    H167322   4.098   1.145  14.003  0.8886  0.1610  0.5167
15277TIP3    H267323   4.155   1.009  14.035  1.2448  0.3666  0.7677
15278TIP3   OH267324   6.497   4.855  15.321 -0.0418 -0.3840 -0.5290
15278TIP3    H167325   6.445   4.864  15.400 -2.0947 -3.1706 -1.4177
15278TIP3    H267326   6.442   4.892  15.251  1.0438  0.5212 -0.9454
15279TIP3   OH267327   5.538   3.813  13.267 -0.0235 -0.2425  0.2448
15279TIP3    H167328   5.529   3.872  13.343  1.1911 -0.2174  0.3866
15279TIP3    H267329   5.452   3.815  13.225  0.1185  2.0533 -0.0475
15280TIP3   OH267330   5.961   0.678  15.060 -0.4005  0.0446 -0.0263
15280TIP3    H167331   5.928   0.599  15.102 -0.6577  1.0665  1.7939
15280TIP3    H267332   5.971   0.654  14.968 -2.7350 -1.4086  0.0186
15281TIP3   OH267333   2.412   6.418  12.713 -0.0143  0.3211  0.3513
15281TIP3    H167334   2.341   6.402  12.651 -0.0322  0.7069  0.2690
15281TIP3    H267335   2.372   6.406  12.799 -0.5452  1.9214  0.3504
15282TIP3   OH267336   5.965   5.926   6.391  0.3581 -0.0412  0.2753
15282TIP3    H167337   5.873   5.934   6.416  0.0042 -0.3639 -0.8970
15282TIP3    H267338   5.990   6.015   6.365 -0.2986 -0.3598 -1.6052
15283TIP3   OH267339   2.098   3.758   6.183 -0.0813 -0.3888  0.8787
15283TIP3    H167340   2.185   3.793   6.162  0.0564 -0.6808  0.9524
15283TIP3    H267341   2.116   3.680   6.236 -0.3422 -1.4675 -0.5827
15284TIP3   OH267342   0.467   1.053   2.312  0.2972 -0.4199  0.0032
15284TIP3    H167343   0.486   0.980   2.254  3.1120 -0.6664  1.0545
15284TIP3    H267344   0.445   1.126   2.253 -1.3005 -1.7493 -1.1065
15285TIP3   OH267345   5.033   3.402   4.238  0.2264  0.1636  0.1519
15285TIP3    H167346   5.016   3.461   4.311 -0.2763  0.4796 -0.2078
15285TIP3    H267347   4.955   3.410   4.182  0.9497  0.5768 -0.8338
15286TIP3   OH267348   3.715   5.586   4.471  0.2759  0.6430  0.4066
15286TIP3    H167349   3.782   5.581   4.540 -0.2765 -0.5398  0.8784
15286TIP3    H267350   3.764   5.612   4.393  1.2496  0.0514  0.7989
15287TIP3   OH267351   0.328   1.632  14.010  0.4687 -0.5555 -0.2235
15287TIP3    H167352   0.299   1.549  13.972 -0.2994 -0.2158 -0.4100
15287TIP3    H267353   0.262   1.651  14.077 -1.2123  1.4184 -2.2600
15288TIP3   OH267354   1.445   3.550  13.227  0.1679  0.6615 -1.0219
15288TIP3    H167355   1.533   3.517  13.208 -0.3963 -1.1712 -0.6559
15288TIP3    H267356   1.449   3.643  13.205  1.7862  0.3204 -2.4112
15289TIP3   OH267357   3.335   1.697   4.724 -0.2963  0.0153  0.0927
15289TIP3    H167358   3.402   1.710   4.658  0.0729  0.0602  0.4725
15289TIP3    H267359   3.280   1.626   4.689  0.2134 -0.3323 -0.0101
15290TIP3   OH267360   4.870   0.531   2.865  0.0778 -0.3958  0.1701
15290TIP3    H167361   4.870   0.499   2.775  0.8781 -0.1979  0.0972
15290TIP3    H267362   4.876   0.626   2.858  1.1956 -0.4261  0.4299
15291TIP3   OH267363   4.228   5.123  13.864  0.5090  0.3102  0.9180
15291TIP3    H167364   4.243   5.119  13.770 -0.9728 -0.0067  0.6764
15291TIP3    H267365   4.316   5.118  13.902  1.2745  2.0722 -0.4652
15292TIP3   OH267366   4.579   2.123  15.446 -0.1496 -0.1927  0.4058
15292TIP3    H167367   4.554   2.132  15.538  1.1298  1.7072  0.6354
15292TIP3    H267368   4.560   2.208  15.407 -0.3495 -0.8625 -1.0195
15293TIP3   OH267369   0.208   1.015   3.913  0.3144 -0.0245 -0.4601
15293TIP3    H167370   0.253   1.100   3.907  2.2918 -0.7752  2.0914
15293TIP3    H267371   0.133   1.032   3.970 -0.5841  0.4187 -1.7209
15294TIP3   OH267372   0.400   0.028   2.842 -0.3201  0.8858  0.2628
15294TIP3    H167373   0.380  -0.060   2.872  0.2111  0.5369 -0.3915
15294TIP3    H267374   0.482   0.020   2.793  0.5977  2.0106  1.5136
15295TIP3   OH267375   2.174   6.732  11.429 -0.4227 -0.2554 -0.4548
15295TIP3    H167376   2.158   6.821  11.398 -0.0095 -0.1974 -0.5117
15295TIP3    H267377   2.222   6.743  11.511  1.0699 -0.4335 -1.2745
15296TIP3   OH267378   3.869   4.198  13.371  0.1753  0.0756  0.3008
15296TIP3    H167379   3.804   4.222  13.437  1.1232  1.1604  0.8823
15296TIP3    H267380   3.953   4.219  13.412  0.9923 -2.4924  0.0743
15297TIP3   OH267381   5.474   5.973  12.875  0.2540 -0.1826 -0.2962
15297TIP3    H167382   5.544   5.909  12.870  0.6245  0.2840 -1.5256
15297TIP3    H267383   5.414   5.950  12.804  0.1229  0.5052 -0.4224
15298TIP3   OH267384   0.358   4.628   6.182  0.2793  0.7616 -0.6385
15298TIP3    H167385   0.443   4.669   6.165  0.8744 -0.2874 -0.2717
15298TIP3    H267386   0.313   4.689   6.240  1.6948  0.2885  1.0218
15299TIP3   OH267387   5.910   6.004  12.777  0.0805  0.0429  0.9999
15299TIP3    H167388   5.936   5.927  12.827  0.1168 -0.6384 -0.0260
15299TIP3    H267389   5.823   5.982  12.743  0.1738  0.3796  0.5327
15300TIP3   OH267390   0.247   4.776   3.284  0.7302  0.1701 -0.1592
15300TIP3    H167391   0.301   4.772   3.362  0.5846 -0.6723 -0.0878
15300TIP3    H267392   0.206   4.862   3.287  1.2670  0.4100  0.3243
15301TIP3   OH267393   6.681   0.991   5.568  0.1169 -0.2112  0.2317
15301TIP3    H167394   6.652   1.079   5.542 -1.0179 -0.8690 -0.8594
15301TIP3    H267395   6.613   0.933   5.534  2.0748 -1.7483 -1.2854
15302TIP3   OH267396   5.971   1.288   3.833  0.0334  0.1099  0.3255
15302TIP3    H167397   6.043   1.291   3.771 -0.5575 -2.2239 -0.5805
15302TIP3    H267398   6.008   1.320   3.915  1.6577  0.3633 -0.4765
15303TIP3   OH267399   3.684   6.028  16.302  0.3070  0.0766  0.0944
15303TIP3    H167400   3.588   6.036  16.304  0.1246 -1.6747  2.4421
15303TIP3    H267401   3.715   6.107  16.346 -0.0207  0.6333 -0.6377
15304TIP3   OH267402   6.513   0.090   0.337  0.1462  0.4105 -0.4894
15304TIP3    H167403   6.545   0.082   0.247  0.2445  1.5287 -0.5682
15304TIP3    H267404   6.447   0.159   0.333 -0.6294 -0.2859  0.1063
15305TIP3   OH267405   5.658   4.627   6.206 -0.2873 -0.2457  0.3512
15305TIP3    H167406   5.682   4.718   6.219 -1.7276  0.7236 -2.9546
15305TIP3    H267407   5.564   4.623   6.227 -0.1135 -1.1448  1.0586
15306TIP3   OH267408   3.389   5.844  13.137 -0.2526 -0.1455 -0.2666
15306TIP3    H167409   3.376   5.931  13.098 -0.7549 -0.3391 -0.5382
15306TIP3    H267410   3.444   5.798  13.073 -0.7554 -0.3341 -0.5662
15307TIP3   OH267411   4.689   2.822  13.894 -0.1178 -0.1530 -0.0704
15307TIP3    H167412   4.627   2.885  13.857  0.8301 -0.1311 -1.6975
15307TIP3    H267413   4.768   2.873  13.910 -1.0218  0.3214  3.9662
15308TIP3   OH267414   3.090   0.304   1.758  0.0399  0.3343  0.2218
15308TIP3    H167415   3.140   0.362   1.814  0.7167 -1.7296  1.9104
15308TIP3    H267416   3.156   0.255   1.708 -0.3067 -1.1021  1.1020
15309TIP3   OH267417   3.569   5.593   5.235 -0.3279 -0.0608  1.2822
15309TIP3    H167418   3.576   5.498   5.225  0.7837  0.1803 -0.5700
15309TIP3    H267419   3.508   5.605   5.309 -0.9936 -2.1859  1.1305
15310TIP3   OH267420   0.602   6.054  15.318 -0.2058 -0.5352 -0.1443
15310TIP3    H167421   0.618   6.146  15.296 -0.5061 -0.7763 -1.4603
15310TIP3    H267422   0.515   6.036  15.282 -0.5752 -1.0707  0.9790
15311TIP3   OH267423   2.771   6.555   0.882 -0.2397 -0.3439 -0.0887
15311TIP3    H167424   2.787   6.589   0.970  1.1449 -1.0134 -0.0477
15311TIP3    H267425   2.832   6.605   0.826 -1.7577  0.7395 -0.8456
15312TIP3   OH267426   3.037   1.609   0.983  0.4592  0.8458  0.0104
15312TIP3    H167427   3.022   1.701   1.006 -2.5711  0.0831  1.6970
15312TIP3    H267428   2.971   1.591   0.916 -0.6404 -0.6058  1.4059
15313TIP3   OH267429   5.472   4.982  16.628 -0.0279  0.8561  0.1718
15313TIP3    H167430   5.473   5.077  16.635  0.1939  0.7785  1.6210
15313TIP3    H267431   5.526   4.952  16.702 -2.5049 -0.4563  1.5775
15314TIP3   OH267432   2.049   5.420   2.021 -0.2185  0.1998 -0.0792
15314TIP3    H167433   2.120   5.398   2.082 -0.2255  1.1572  0.3010
15314TIP3    H267434   1.975   5.442   2.078 -1.1339 -1.6918 -0.4851
15315TIP3   OH267435   1.454   5.652   4.410 -0.2297 -0.1586 -0.0675
15315TIP3    H167436   1.362   5.641   4.384 -0.4037  0.3768  0.2921
15315TIP3    H267437   1.501   5.666   4.328 -0.6164  0.4907 -0.1898
15316TIP3   OH267438   2.322   6.433  17.339  0.2075  0.2903  0.0103
15316TIP3    H167439   2.386   6.468  17.401  0.6390  1.7033 -1.1923
15316TIP3    H267440   2.362   6.352  17.306 -0.5620 -1.1778  2.4088
15317TIP3   OH267441   0.639   3.888  11.858  0.2105  0.2424  0.2133
15317TIP3    H167442   0.580   3.819  11.827 -0.7827  0.7112  1.0060
15317TIP3    H267443   0.650   3.945  11.781  3.2369 -2.1655 -1.3080
15318TIP3   OH267444   3.593   0.405   0.594 -0.4388  0.5761 -0.2492
15318TIP3    H167445   3.554   0.490   0.572  0.0714  1.1848  1.1249
15318TIP3    H267446   3.672   0.426   0.643 -0.0943 -0.7028 -0.2165
15319TIP3   OH267447   5.415   5.954  11.422 -0.1317  0.3245  0.2545
15319TIP3    H167448   5.446   5.955  11.332  0.0272  1.2398  0.3093
15319TIP3    H267449   5.491   5.979  11.475 -0.3563  0.3010  0.5959
15320TIP3   OH267450   6.526   2.351   3.582  0.4143  0.1245 -0.7140
15320TIP3    H167451   6.476   2.430   3.558  0.9161  0.1325 -1.7946
15320TIP3    H267452   6.479   2.280   3.539 -0.2337 -0.2325  0.5377
15321TIP3   OH267453   1.101   5.081   0.637  0.3338 -0.2910  0.1132
15321TIP3    H167454   1.100   5.164   0.588  1.5272  0.8198  1.8269
15321TIP3    H267455   1.018   5.081   0.685  0.3483 -0.0490  0.1434
15322TIP3   OH267456   2.033   6.219  13.887  0.5867 -0.9036  0.0442
15322TIP3    H167457   2.122   6.244  13.863  0.6573 -1.0466  0.1575
15322TIP3    H267458   2.007   6.156  13.819 -0.2015  0.7030 -1.2180
15323TIP3   OH267459   2.131   0.083   0.714  0.5600 -0.3697  0.1024
15323TIP3    H167460   2.192   0.157   0.709  0.9062 -0.5552  1.2393
15323TIP3    H267461   2.080   0.100   0.793  0.7808 -1.4448  0.4887
15324TIP3   OH267462   6.245   3.360  11.780  0.0569 -0.2190 -0.1396
15324TIP3    H167463   6.340   3.349  11.779 -0.0821 -1.8479 -2.2319
15324TIP3    H267464   6.213   3.289  11.836  0.0497  0.3288  0.5642
15325TIP3   OH267465   5.551   3.908  11.612  0.2068 -0.6285 -0.6328
15325TIP3    H167466   5.507   3.955  11.541 -1.1988 -0.6803  0.1537
15325TIP3    H267467   5.638   3.888  11.578 -0.6266 -1.1793 -2.5870
15326TIP3   OH267468   6.587   0.882  16.962 -0.3794  0.2620 -0.2246
15326TIP3    H167469   6.674   0.854  16.991 -0.0478  1.3276 -0.1418
15326TIP3    H267470   6.535   0.802  16.963  0.6576 -0.4498 -0.4966
15327TIP3   OH267471   5.402   6.437  12.568 -0.1202  0.1640  0.2931
15327TIP3    H167472   5.319   6.425  12.616  0.1429  1.5988  1.1596
15327TIP3    H267473   5.427   6.349  12.541  0.0169 -0.8279  3.3413
15328TIP3   OH267474   4.325   4.991   5.933  0.3884  0.2731  0.1361
15328TIP3    H167475   4.416   5.020   5.935  0.4613  0.0335  0.3546
15328TIP3    H267476   4.314   4.942   6.015  1.0727 -2.7294 -1.4116
15329TIP3   OH267477   1.485   0.784   4.800 -0.2598 -0.2371 -0.0263
15329TIP3    H167478   1.477   0.692   4.823 -1.6789  0.0324  0.6280
15329TIP3    H267479   1.470   0.831   4.882  1.4088  0.5776 -0.1411
15330TIP3   OH267480   0.442   5.627   2.475  0.4281  0.1161  0.2437
15330TIP3    H167481   0.498   5.588   2.407  0.5306  0.5424  0.0743
15330TIP3    H267482   0.429   5.717   2.445 -0.4299 -0.0006  0.2362
15331TIP3   OH267483   1.434   4.878   4.554 -0.0760  0.2018  0.0533
15331TIP3    H167484   1.338   4.880   4.551 -0.1038 -0.4356  0.3722
15331TIP3    H267485   1.454   4.823   4.630  0.5455 -0.0763 -0.3079
15332TIP3   OH267486   1.763   4.081   3.059  0.7360  0.2101 -0.3231
15332TIP3    H167487   1.832   4.066   3.124  0.7153  0.8493 -0.1474
15332TIP3    H267488   1.702   4.141   3.102 -0.2532 -0.7937 -0.2551
15333TIP3   OH267489   1.526   2.653  13.257 -0.3113 -0.0332  0.4245
15333TIP3    H167490   1.436   2.623  13.265 -0.9408  1.9348  1.5350
15333TIP3    H267491   1.549   2.685  13.344  0.6218  1.6326 -0.3779
15334TIP3   OH267492   4.926   5.472  16.664 -0.0575  0.2995 -0.3525
15334TIP3    H167493   4.934   5.552  16.612  1.0507 -1.5882 -3.3324
15334TIP3    H267494   5.017   5.449  16.687 -0.2126 -0.8233 -0.7782
15335TIP3   OH267495   3.450   1.734  13.749  0.2262  0.2868 -0.0851
15335TIP3    H167496   3.393   1.791  13.697  1.0760  2.5288  1.3104
15335TIP3    H267497   3.539   1.765  13.730  0.5667  1.2893  2.6523
15336TIP3   OH267498   1.014   2.684  16.715 -0.2246 -0.1453  0.3182
15336TIP3    H167499   0.969   2.740  16.778 -1.6437 -1.9459  1.0179
15336TIP3    H267500   0.984   2.715  16.629  1.0071  1.7353  0.5247
15337TIP3   OH267501   3.684   0.174   1.657 -0.0006  0.6645  0.8838
15337TIP3    H167502   3.712   0.156   1.747 -0.8291  0.3304  1.0840
15337TIP3    H267503   3.714   0.097   1.608  3.7482  2.4217  0.0850
15338TIP3   OH267504   5.817   6.670  12.259  0.4967  0.5898 -0.6334
15338TIP3    H167505   5.813   6.731  12.185 -2.3350 -1.7883 -2.6996
15338TIP3    H267506   5.889   6.611  12.237  0.7708  0.9152 -0.6128
15339TIP3   OH267507   5.082   5.976  15.354 -0.3246 -0.3609 -0.2387
15339TIP3    H167508   5.005   5.977  15.297  0.3248  0.2214 -1.1266
15339TIP3    H267509   5.150   6.018  15.302  0.7464 -1.3572  0.3294
15340TIP3   OH267510   5.765   6.413   3.159 -0.2551 -0.1247  0.1143
15340TIP3    H167511   5.693   6.448   3.107 -2.2830 -1.0191  2.1587
15340TIP3    H267512   5.787   6.330   3.117  0.3885  0.6447 -1.1439
15341TIP3   OH267513   4.190   4.702   2.038 -0.0456 -0.3059 -0.0744
15341TIP3    H167514   4.228   4.642   1.974  1.8351 -0.3201  0.9965
15341TIP3    H267515   4.216   4.667   2.123 -0.9253  0.7186  0.6482
15342TIP3   OH267516   3.932   4.181   5.100 -0.1863  0.6504  0.5248
15342TIP3    H167517   3.852   4.231   5.115 -1.3471 -1.8042  3.6990
15342TIP3    H267518   3.902   4.098   5.063  1.1075  0.3159  0.1517
15343TIP3   OH267519   3.842   3.432  12.575 -0.1547 -0.0435  0.2150
15343TIP3    H167520   3.870   3.342  12.588  1.0349 -0.2732 -2.9131
15343TIP3    H267521   3.748   3.427  12.563  0.0524 -1.1660 -1.3049
15344TIP3   OH267522   2.452   3.916   4.275 -0.0917 -0.2654 -0.0707
15344TIP3    H167523   2.415   4.004   4.284 -2.2943 -1.2303  0.9950
15344TIP3    H267524   2.494   3.916   4.189  0.5593  2.0144  0.1890
15345TIP3   OH267525   6.100   5.859  16.120  0.7992  0.4758 -0.7030
15345TIP3    H167526   6.047   5.868  16.041  1.1455  0.0259 -0.9892
15345TIP3    H267527   6.180   5.908  16.100  1.3801 -0.6061 -1.0802
15346TIP3   OH267528   1.001   4.966  13.925 -0.1423  0.4093  0.1329
15346TIP3    H167529   0.915   4.994  13.896 -0.0146  0.6816  0.0110
15346TIP3    H267530   0.988   4.877  13.958 -0.1944 -0.1189 -1.2507
15347TIP3   OH267531   4.612   0.337  10.830 -0.1905  0.0611  0.2794
15347TIP3    H167532   4.584   0.403  10.894  1.9931  0.5998  0.7854
15347TIP3    H267533   4.546   0.339  10.762 -2.1777  0.0602  2.1069
15348TIP3   OH267534   6.713   1.052   0.244 -0.3616  0.0640 -0.0294
15348TIP3    H167535   6.661   1.023   0.319  0.8713  0.2280  0.9270
15348TIP3    H267536   6.767   0.976   0.221 -1.4011 -0.3053 -1.3979
15349TIP3   OH267537   5.208   5.216   6.609 -0.4877 -0.1290 -0.0436
15349TIP3    H167538   5.276   5.209   6.542  0.7859 -1.1715  1.2776
15349TIP3    H267539   5.223   5.301   6.650 -1.4550  0.6385 -1.2388
15350TIP3   OH267540   3.008   5.592  16.111  0.3260 -0.4441  0.1731
15350TIP3    H167541   3.015   5.653  16.037  2.3972 -0.7784  0.0385
15350TIP3    H267542   2.958   5.518  16.076 -0.5939  0.3448 -0.2177
15351TIP3   OH267543   0.782   0.382  15.816 -0.4817 -0.1854  0.2256
15351TIP3    H167544   0.781   0.478  15.812  1.1044 -0.0980  1.0158
15351TIP3    H267545   0.728   0.354  15.743 -2.6691  1.3180  1.1367
15352TIP3   OH267546   0.266   0.645   1.690  0.1207  0.1306 -0.2706
15352TIP3    H167547   0.281   0.576   1.625 -1.4004 -0.9062  0.4290
15352TIP3    H267548   0.173   0.637   1.713 -0.3557  2.9918 -0.7933
15353TIP3   OH267549   5.888   4.319  11.908  0.0799  0.1420 -0.2855
15353TIP3    H167550   5.960   4.258  11.924  0.3202 -0.5247 -3.2614
15353TIP3    H267551   5.932   4.402  11.888 -0.0472  0.1882 -0.3727
15354TIP3   OH267552   0.652   0.199   3.907 -0.6308 -0.2316 -0.0437
15354TIP3    H167553   0.621   0.242   3.828  1.4620 -0.5869 -1.1317
15354TIP3    H267554   0.617   0.252   3.979 -0.0104  2.0081 -1.2819
15355TIP3   OH267555   6.612   1.518  11.020 -0.0743 -0.0796 -0.0625
15355TIP3    H167556   6.623   1.610  10.994  2.5732 -0.2458  0.2020
15355TIP3    H267557   6.622   1.469  10.939  0.7371 -0.2176  0.1101
15356TIP3   OH267558   5.210   1.360  17.120  0.4482 -0.1325  0.1582
15356TIP3    H167559   5.176   1.439  17.163  1.5691  0.6658 -0.3680
15356TIP3    H267560   5.137   1.298  17.123 -0.3540  0.8066  0.8681
15357TIP3   OH267561   3.056   2.857  13.296 -0.2586  0.1211  0.1564
15357TIP3    H167562   2.992   2.928  13.283 -1.9211 -0.8542  2.4348
15357TIP3    H267563   3.003   2.777  13.294  1.2101 -0.8782  0.2566
15358TIP3   OH267564   3.619   2.947  13.086 -0.4803  0.5425 -0.1610
15358TIP3    H167565   3.698   2.911  13.045 -2.6149 -3.1880 -1.4830
15358TIP3    H267566   3.636   2.940  13.180  0.2627 -1.6797 -0.3955
15359TIP3   OH267567   3.416   0.194  15.199 -0.0637  0.2781 -0.1694
15359TIP3    H167568   3.445   0.102  15.200 -0.7833  0.0487  0.0294
15359TIP3    H267569   3.442   0.226  15.113  1.6937  0.3889  0.3673
15360TIP3   OH267570   1.107   3.948  12.641 -0.5895  0.1237  0.2232
15360TIP3    H167571   1.150   3.936  12.557  0.6655  2.6082  0.4276
15360TIP3    H267572   1.160   3.897  12.703  0.3964  0.8854  0.0162
15361TIP3   OH267573   0.689   4.811  11.160  0.1639 -0.4012  0.0675
15361TIP3    H167574   0.625   4.875  11.129  1.8908  0.8780 -1.0946
15361TIP3    H267575   0.675   4.808  11.255 -0.7317  0.8511  0.0086
15362TIP3   OH267576   3.862   4.476   3.685  0.2171  0.1356  0.4177
15362TIP3    H167577   3.767   4.466   3.687 -0.0248  2.1951  0.8452
15362TIP3    H267578   3.884   4.474   3.591 -0.3652  0.5936  0.2654
15363TIP3   OH267579   3.659   3.918  12.344 -0.1621 -0.3507  0.1023
15363TIP3    H167580   3.620   3.889  12.426  0.0090  0.4967  0.4908
15363TIP3    H267581   3.610   3.997  12.321  0.2718 -0.1740 -0.2257
15364TIP3   OH267582   2.208   0.827  14.050  0.4647 -0.0040 -0.6009
15364TIP3    H167583   2.222   0.852  13.958  0.5540  0.0970 -0.5598
15364TIP3    H267584   2.133   0.768  14.047  0.0010  0.5755 -0.6520
15365TIP3   OH267585   3.000   6.562   5.469  0.3860 -0.4343  0.2219
15365TIP3    H167586   2.980   6.534   5.558  0.1944  0.4128  0.4510
15365TIP3    H267587   2.925   6.535   5.417  0.6287 -1.1938  0.2562
15366TIP3   OH267588   6.056   0.111  15.230  0.4463  0.0186  0.3876
15366TIP3    H167589   5.967   0.075  15.235  0.4690 -0.1569 -0.3492
15366TIP3    H267590   6.052   0.191  15.283  0.2391 -0.7398  1.5451
15367TIP3   OH267591   6.423   4.302  11.606 -0.6127 -0.4708 -0.1001
15367TIP3    H167592   6.341   4.349  11.622 -0.8936 -0.7531 -0.6919
15367TIP3    H267593   6.396   4.214  11.580 -0.0734 -1.5900  2.7849
15368TIP3   OH267594   5.938   4.763  11.587  0.6585  0.5593  0.6733
15368TIP3    H167595   6.003   4.746  11.520  2.1641 -1.1303  2.4379
15368TIP3    H267596   5.854   4.755  11.542  1.5951 -1.1067 -0.9163
15369TIP3   OH267597   0.185   3.011   3.530  0.0572  0.2748 -0.0775
15369TIP3    H167598   0.217   2.923   3.510  1.1813  0.9100 -1.2571
15369TIP3    H267599   0.093   2.999   3.552  0.8916 -1.5766  2.9316
15370TIP3   OH267600   1.084   5.531   2.602 -0.2448  0.3371  0.0964
15370TIP3    H167601   0.992   5.555   2.605 -0.6498 -0.3915 -2.7947
15370TIP3    H267602   1.119   5.582   2.529  1.4711  0.0582  0.6810
15371TIP3   OH267603   2.515   0.555   1.571 -0.2935 -0.2794  0.5072
15371TIP3    H167604   2.592   0.593   1.614  0.2227  0.3773 -0.9359
15371TIP3    H267605   2.445   0.617   1.590 -0.1554 -0.1896  0.7285
15372TIP3   OH267606   0.209   0.353   5.345  0.4246  0.1564  0.7054
15372TIP3    H167607   0.126   0.319   5.377 -0.3183 -0.3806 -1.6346
15372TIP3    H267608   0.272   0.331   5.413 -1.2296  0.0940  2.2835
15373TIP3   OH267609   3.729   3.618  13.223  0.2492 -0.1189  0.6088
15373TIP3    H167610   3.692   3.608  13.136  1.1340 -0.2481  0.2439
15373TIP3    H267611   3.653   3.634  13.280 -0.1956  1.7438 -0.4343
15374TIP3   OH267612   1.915   4.317   3.694  0.3141 -0.1098  0.1831
15374TIP3    H167613   1.853   4.245   3.684 -0.2443  0.4099 -0.2188
15374TIP3    H267614   1.951   4.307   3.782 -0.8367 -0.0423  0.6751
15375TIP3   OH267615   5.453   4.571  11.833 -0.4192  0.2756 -0.3190
15375TIP3    H167616   5.483   4.554  11.922 -0.1547  1.4750 -0.1546
15375TIP3    H267617   5.380   4.511  11.820 -0.8981  0.5426  0.9532
15376TIP3   OH267618   5.779   4.059  15.583  0.3737  0.3992 -0.2920
15376TIP3    H167619   5.683   4.060  15.585  0.3687 -0.4018  1.2041
15376TIP3    H267620   5.804   4.151  15.595 -0.2456  0.2446  3.2351
15377TIP3   OH267621   0.321   5.702  15.670 -0.1864 -0.4325  0.3530
15377TIP3    H167622   0.233   5.740  15.662  0.3310  0.8601  0.6175
15377TIP3    H267623   0.337   5.663  15.584 -1.0308 -0.7248  0.3156
15378TIP3   OH267624   4.640   4.594   5.045 -0.2887 -0.1361  0.1892
15378TIP3    H167625   4.676   4.683   5.046 -0.8945  0.1325 -0.6300
15378TIP3    H267626   4.551   4.604   5.078 -0.0900 -0.5824  0.8908
15379TIP3   OH267627   4.650   4.808  15.460 -0.0070 -0.1146  0.5660
15379TIP3    H167628   4.623   4.748  15.390 -0.8474  0.3348  0.4920
15379TIP3    H267629   4.722   4.857  15.422 -0.5447  0.2187 -0.0437
15380TIP3   OH267630   2.800   6.569  12.870  0.6526 -0.5427  0.0013
15380TIP3    H167631   2.852   6.600  12.796  1.0688 -0.9630  0.1123
15380TIP3    H267632   2.740   6.505  12.831  0.3430 -0.1904 -0.0988
15381TIP3   OH267633   4.855   4.483   2.189 -0.0841 -0.2006  0.1151
15381TIP3    H167634   4.779   4.424   2.189 -0.9191  0.6987 -3.1888
15381TIP3    H267635   4.908   4.453   2.264 -2.7236 -2.0749  1.3938
15382TIP3   OH267636   4.964   4.311   1.897 -0.1354 -0.0713  0.1430
15382TIP3    H167637   5.023   4.345   1.964  1.1939 -0.1432 -0.9517
15382TIP3    H267638   5.006   4.334   1.814 -2.7207  1.8143 -0.7793
15383TIP3   OH267639   1.732   5.173  12.263  0.0512 -0.0765 -0.3659
15383TIP3    H167640   1.730   5.107  12.333  0.3156  0.0332 -0.2511
15383TIP3    H267641   1.686   5.132  12.190  1.6599 -1.0618 -0.8787
15384TIP3   OH267642   3.535   4.229   3.428 -0.8214  0.2801  0.4558
15384TIP3    H167643   3.466   4.164   3.416 -0.1277 -0.2514 -0.8415
15384TIP3    H267644   3.489   4.309   3.451 -2.0563  0.3557 -1.9891
15385TIP3   OH267645   1.031   2.567   0.241  0.1970 -0.2225 -0.3761
15385TIP3    H167646   1.053   2.546   0.332 -0.0274 -1.2875 -0.5543
15385TIP3    H267647   1.111   2.604   0.205  0.0547  0.9693  0.4675
15386TIP3   OH267648   0.789   3.426   3.026  0.5132 -0.5327  0.0301
15386TIP3    H167649   0.695   3.427   3.012  0.7200  0.4864 -1.4573
15386TIP3    H267650   0.803   3.486   3.100  0.0827  0.0299 -0.3410
15387TIP3   OH267651   2.182   5.820   0.348  0.5265 -0.0058  0.0200
15387TIP3    H167652   2.255   5.858   0.299  0.3438 -0.9836 -1.0739
15387TIP3    H267653   2.141   5.760   0.285 -0.9048  0.1438  0.7744
15388TIP3   OH267654   5.780   0.356  17.049 -0.7062  0.3398 -0.1575
15388TIP3    H167655   5.770   0.422  17.117  2.0818 -0.0156  0.7187
15388TIP3    H267656   5.740   0.277  17.086 -2.6078  1.0550 -0.5634
15389TIP3   OH267657   4.205   5.301  12.175 -0.5924  0.0286  0.2997
15389TIP3    H167658   4.267   5.258  12.116 -1.0878  0.9227 -0.9159
15389TIP3    H267659   4.228   5.394  12.169 -0.1865  0.0906  2.0994
15390TIP3   OH267660   3.962   4.224  10.855  0.0950 -0.2594 -0.8266
15390TIP3    H167661   4.033   4.271  10.898 -0.3774 -0.5070  0.2555
15390TIP3    H267662   3.938   4.155  10.916 -1.0436 -0.2185 -1.1900
15391TIP3   OH267663   1.617   2.112   2.662 -0.0631 -0.0551  0.4427
15391TIP3    H167664   1.706   2.083   2.645  0.3394  0.5275  1.4527
15391TIP3    H267665   1.564   2.032   2.656  0.5724 -0.4625  0.1596
15392TIP3   OH267666   3.275   4.965  15.231 -0.2859 -0.0780  0.3556
15392TIP3    H167667   3.256   4.875  15.259  0.3059 -0.0048  1.0251
15392TIP3    H267668   3.245   5.020  15.303 -0.5103  0.2555  0.0112
15393TIP3   OH267669   1.135   4.235  14.105 -0.0030  0.1176  0.3975
15393TIP3    H167670   1.139   4.169  14.036  0.6376  0.4790  0.0851
15393TIP3    H267671   1.174   4.193  14.181 -0.1557 -0.0717  0.3729
15394TIP3   OH267672   4.322   0.556  16.524  0.2939  0.2527  0.5738
15394TIP3    H167673   4.318   0.627  16.589  0.0549  0.4421  0.3552
15394TIP3    H267674   4.312   0.601  16.440  2.0011  0.1839  0.2945
15395TIP3   OH267675   5.077   1.234   2.224  0.0465 -0.2133 -0.3431
15395TIP3    H167676   5.084   1.218   2.318  2.9929  0.8117 -0.2832
15395TIP3    H267677   5.167   1.237   2.193 -0.7639  1.1005 -2.9263
15396TIP3   OH267678   1.749   3.309  16.328  0.0269  0.3372  0.4151
15396TIP3    H167679   1.792   3.227  16.303 -1.2630 -0.6036  1.1671
15396TIP3    H267680   1.820   3.373  16.329  1.1986 -0.9083  0.4411
15397TIP3   OH267681   5.319   5.156   2.007  0.7292 -0.1354 -0.0004
15397TIP3    H167682   5.264   5.121   2.077  2.2280  0.8592  1.7611
15397TIP3    H267683   5.282   5.243   1.989 -0.4210 -0.8661 -1.4051
15398TIP3   OH267684   2.479   6.370  10.946 -0.2675 -0.3510 -0.2287
15398TIP3    H167685   2.554   6.314  10.964 -0.5655 -0.4911  0.6052
15398TIP3    H267686   2.481   6.383  10.851  0.1453 -1.2831 -0.3542
15399TIP3   OH267687   6.488   0.901   5.384 -0.0047  0.0300 -0.0282
15399TIP3    H167688   6.546   0.940   5.319 -0.9620 -0.1375 -1.0082
15399TIP3    H267689   6.401   0.905   5.345 -0.7510  0.6876  1.5907
15400TIP3   OH267690   5.031   5.582   5.918  0.0636 -0.1176  0.4216
15400TIP3    H167691   4.958   5.522   5.912  0.5086 -0.7879  1.4978
15400TIP3    H267692   5.101   5.532   5.960  0.9811  0.6543 -0.1282
15401TIP3   OH267693   5.236   1.462  10.943 -0.5252  0.2626 -0.1535
15401TIP3    H167694   5.300   1.401  10.980 -0.6875 -0.0017 -0.3037
15401TIP3    H267695   5.159   1.452  10.999 -0.0155  1.5231  0.8240
15402TIP3   OH267696   1.437   1.148  12.095  0.4061  0.1773 -0.1364
15402TIP3    H167697   1.363   1.103  12.135  1.1605 -1.2593 -0.3058
15402TIP3    H267698   1.514   1.113  12.139  1.0529  0.9928 -0.5761
15403TIP3   OH267699   6.341   2.648  15.642 -0.3083  0.6820 -0.1676
15403TIP3    H167700   6.393   2.588  15.589 -0.3859 -0.1303  0.6475
15403TIP3    H267701   6.403   2.714  15.673 -0.1457  0.8064 -0.7535
15404TIP3   OH267702   0.631   0.401   6.887 -0.5209 -0.4734 -0.8155
15404TIP3    H167703   0.556   0.409   6.827  0.1741 -0.4090 -1.7047
15404TIP3    H267704   0.684   0.331   6.849 -0.6767 -1.2867  0.4260
15405TIP3   OH267705   1.445   5.714  16.600 -0.4195 -0.0226 -0.1155
15405TIP3    H167706   1.439   5.665  16.518 -0.2943 -0.3342  0.0601
15405TIP3    H267707   1.476   5.650  16.664 -0.8239  0.1380  0.2481
15406TIP3   OH267708   3.804   3.836   4.762 -0.4435  0.3196  0.4146
15406TIP3    H167709   3.757   3.898   4.706 -0.5811  0.4417  0.6655
15406TIP3    H267710   3.893   3.870   4.767 -0.1332 -0.2857 -0.6329
15407TIP3   OH267711   2.558   1.171   0.411 -0.3570 -0.5189 -0.4841
15407TIP3    H167712   2.585   1.180   0.320  0.1625  0.3860 -0.2540
15407TIP3    H267713   2.639   1.154   0.459 -0.7836 -2.3571 -0.3389
15408TIP3   OH267714   3.614   6.407  15.432  0.5654 -0.1556 -0.3624
15408TIP3    H167715   3.703   6.401  15.465 -0.0368 -0.5104  1.2767
15408TIP3    H267716   3.581   6.490  15.464  0.6889  0.5945 -2.0503
15409TIP3   OH267717   3.294   3.189  16.914 -0.2450 -0.5884  0.0257
15409TIP3    H167718   3.359   3.135  16.868  0.5195 -0.1669  0.5876
15409TIP3    H267719   3.331   3.277  16.911  0.5941 -0.7664  2.7362
15410TIP3   OH267720   2.791   5.404   4.305 -0.2343 -0.2190  0.1298
15410TIP3    H167721   2.860   5.456   4.264  0.4434 -2.1280 -1.2791
15410TIP3    H267722   2.740   5.370   4.231 -1.2272 -0.8015  1.0601
15411TIP3   OH267723   5.969   4.858   3.983 -0.6185 -0.0535  0.2755
15411TIP3    H167724   5.908   4.870   4.055 -0.2149 -1.6607  0.9392
15411TIP3    H267725   6.009   4.772   4.000  0.4222  0.1105 -1.1654
15412TIP3   OH267726   1.534   0.097  13.544  0.5021  0.8549 -0.3247
15412TIP3    H167727   1.572   0.102  13.631  0.3248  1.2433 -0.2681
15412TIP3    H267728   1.512   0.005  13.532  1.2228  0.6653 -0.2561
15413TIP3   OH267729   2.467   2.458  14.630 -0.2370 -0.2520 -0.2867
15413TIP3    H167730   2.403   2.391  14.652  0.0504 -1.1592 -2.0648
15413TIP3    H267731   2.532   2.453  14.700 -0.9686 -0.8283  0.3644
15414TIP3   OH267732   0.976   6.625  13.564  0.1435  0.2554 -1.0886
15414TIP3    H167733   1.005   6.658  13.479  0.1468 -1.8559 -1.9634
15414TIP3    H267734   0.888   6.661  13.574  0.9253  2.2586 -0.9525
15415TIP3   OH267735   2.436   3.703  15.174 -0.1492 -0.1300 -0.1020
15415TIP3    H167736   2.436   3.736  15.084  1.0124 -2.1592 -0.9297
15415TIP3    H267737   2.489   3.765  15.223  1.4940 -0.3737 -1.4626
15416TIP3   OH267738   4.980   6.262  14.608  0.1203 -0.2861 -0.1689
15416TIP3    H167739   5.025   6.259  14.692 -0.1365 -2.4023 -0.0626
15416TIP3    H267740   4.998   6.350  14.574  1.2626  0.1652  1.5149
15417TIP3   OH267741   0.225   0.942  16.893 -0.2727 -0.5677  0.4221
15417TIP3    H167742   0.281   1.018  16.874 -0.4049  0.0059  2.1236
15417TIP3    H267743   0.187   0.918  16.809  1.6781 -0.2925 -0.6046
15418TIP3   OH267744   4.461   3.676  12.243  0.3135  0.0211 -0.1464
15418TIP3    H167745   4.430   3.609  12.182 -1.5071 -0.0373  0.7695
15418TIP3    H267746   4.505   3.741  12.188  0.8290 -1.1844 -1.2147
15419TIP3   OH267747   6.231   6.430   6.646  0.3467 -0.2561 -0.1245
15419TIP3    H167748   6.177   6.358   6.613 -1.4904  1.0233 -0.0225
15419TIP3    H267749   6.303   6.386   6.692  0.9962 -2.0497 -2.6120
15420TIP3   OH267750   1.758   4.328   0.444  0.0704 -0.1038  0.3410
15420TIP3    H167751   1.825   4.274   0.402 -1.3532 -0.8822 -1.0304
15420TIP3    H267752   1.722   4.382   0.373 -1.2565 -0.2490  0.8638
15421TIP3   OH267753   3.734   2.544   6.054 -0.2473  0.0702  0.6303
15421TIP3    H167754   3.809   2.546   5.995  0.4193 -0.3674  1.4439
15421TIP3    H267755   3.660   2.523   5.997  0.4980 -1.1108  0.0520
15422TIP3   OH267756   3.603   0.413  14.733  0.2335 -1.0756  0.2706
15422TIP3    H167757   3.563   0.354  14.798 -0.6791  0.5333  1.2197
15422TIP3    H267758   3.529   0.451  14.686  0.8025 -0.6316 -0.2726
15423TIP3   OH267759   6.372   4.595   0.963  0.0403 -0.2480  0.1961
15423TIP3    H167760   6.450   4.649   0.952  0.3094 -0.6947 -0.1395
15423TIP3    H267761   6.391   4.539   1.038 -0.0216 -0.2431  0.2153
15424TIP3   OH267762   3.472   5.779   5.498 -0.7048  0.4200  0.0414
15424TIP3    H167763   3.512   5.702   5.537 -0.6892 -0.4489 -1.5753
15424TIP3    H267764   3.385   5.784   5.537 -0.0944  0.6390  1.4454
15425TIP3   OH267765   1.904   5.388   1.680 -0.4826 -0.1721 -0.4919
15425TIP3    H167766   1.874   5.471   1.718  0.2258  0.1988 -0.7057
15425TIP3    H267767   1.838   5.365   1.616  0.2349  1.2558 -1.8324
15426TIP3   OH267768   6.282   5.001  14.559 -0.2331  0.3204  0.5984
15426TIP3    H167769   6.215   5.013  14.491 -1.1049  0.8585  1.5179
15426TIP3    H267770   6.291   4.906  14.567  0.2769  0.2495 -0.6290
15427TIP3   OH267771   1.967   1.401   2.444  0.7970  0.6541  0.5108
15427TIP3    H167772   1.986   1.414   2.536 -0.8911  0.4278  0.9192
15427TIP3    H267773   1.977   1.488   2.404 -0.1874  1.1297  1.2537
15428TIP3   OH267774   0.783   1.844   3.288 -0.1932  0.4342 -0.3383
15428TIP3    H167775   0.798   1.750   3.292  1.9642  0.5700 -2.3947
15428TIP3    H267776   0.748   1.867   3.374 -1.2280 -2.2746  0.0650
15429TIP3   OH267777   3.790   2.396   3.472 -0.1249 -0.7267 -0.0945
15429TIP3    H167778   3.810   2.374   3.381  0.5563  0.9426 -0.3887
15429TIP3    H267779   3.706   2.353   3.490  0.6482 -2.6831 -0.8668
15430TIP3   OH267780   2.766   3.545  13.493 -0.2228 -0.3222  0.2054
15430TIP3    H167781   2.696   3.601  13.459 -0.4528 -0.1499  0.9477
15430TIP3    H267782   2.760   3.554  13.588  0.0301 -1.2603  0.3201
15431TIP3   OH267783   5.896   5.069  11.324 -0.2620  0.5661  0.1578
15431TIP3    H167784   5.889   5.028  11.238 -0.9366 -0.6038  0.7474
15431TIP3    H267785   5.843   5.013  11.381  0.5567  1.0626  1.4255
15432TIP3   OH267786   3.620   3.298   6.103  0.0185  0.2742  0.0570
15432TIP3    H167787   3.634   3.391   6.083  0.1326  0.0784 -0.8454
15432TIP3    H267788   3.576   3.264   6.025  2.2162 -0.9698 -0.7404
15433TIP3   OH267789   4.649   5.245  10.869 -0.8455  0.5780 -0.1823
15433TIP3    H167790   4.672   5.196  10.948  2.5189  0.4120 -1.1259
15433TIP3    H267791   4.582   5.192  10.826 -1.5897 -0.1136  1.7260
15434TIP3   OH267792   6.082   1.658  16.336 -0.1947 -0.1343 -0.7968
15434TIP3    H167793   6.065   1.731  16.276 -1.0765 -0.8657 -1.4604
15434TIP3    H267794   6.173   1.632  16.317 -0.3585 -0.1430 -1.5818
15435TIP3   OH267795   4.681   2.677   6.103 -0.1302  0.2836  0.0059
15435TIP3    H167796   4.670   2.772   6.106 -0.0897  0.2818  0.2470
15435TIP3    H267797   4.643   2.646   6.185  0.0224  0.1090  0.0110
15436TIP3   OH267798   0.477   2.229  16.058  0.2420  0.2413 -0.3623
15436TIP3    H167799   0.422   2.288  16.006 -1.5914 -0.2078  0.9602
15436TIP3    H267800   0.565   2.265  16.048 -0.1966  0.8814 -2.7354
15437TIP3   OH267801   1.315   5.150   4.284 -0.0399  0.1063 -0.6724
15437TIP3    H167802   1.393   5.097   4.300 -0.5804 -1.0220 -1.6005
15437TIP3    H267803   1.346   5.241   4.290  1.0804 -0.3077  0.1369
15438TIP3   OH267804   6.604   4.235   3.047  0.2177 -0.0868  0.3081
15438TIP3    H167805   6.662   4.279   3.109  0.5968 -1.0993  0.6955
15438TIP3    H267806   6.639   4.258   2.961 -2.1454  3.9729  0.1526
15439TIP3   OH267807   0.470   5.776   3.679 -0.3171  0.1208  0.5133
15439TIP3    H167808   0.504   5.699   3.725 -3.3894 -0.8274  1.4281
15439TIP3    H267809   0.509   5.771   3.592  0.5985 -1.6966  0.9765
15440TIP3   OH267810   2.769   4.704   4.902 -0.1842 -0.0600  0.0026
15440TIP3    H167811   2.766   4.763   4.977 -2.2544 -0.0587 -0.0336
15440TIP3    H267812   2.755   4.760   4.826 -1.8281 -0.5034 -0.0597
15441TIP3   OH267813   5.875   2.134   2.919 -0.0365 -0.1908  0.8085
15441TIP3    H167814   5.824   2.126   2.839  0.0208 -0.6150  0.8074
15441TIP3    H267815   5.965   2.143   2.890  0.0859 -1.1711  0.8200
15442TIP3   OH267816   4.873   0.962   4.250  0.2020  0.4634  0.9824
15442TIP3    H167817   4.920   1.001   4.324  1.4723  1.5534 -0.3351
15442TIP3    H267818   4.939   0.955   4.181 -1.3352  1.1028 -0.6299
15443TIP3   OH267819   4.982   5.554   4.962 -0.2828 -0.1902  0.7996
15443TIP3    H167820   4.964   5.470   5.005  1.2370 -1.4280 -0.8346
15443TIP3    H267821   4.920   5.558   4.890 -0.6273  0.3089  1.1173
15444TIP3   OH267822   3.983   1.126  12.970 -0.2890 -0.1820 -0.8265
15444TIP3    H167823   3.913   1.070  12.935 -0.3134  0.7745 -2.4140
15444TIP3    H267824   4.013   1.177  12.894  2.3247 -0.7268 -0.2772
15445TIP3   OH267825   6.081   5.326   3.610  0.3932  0.9363  0.2102
15445TIP3    H167826   6.032   5.326   3.692 -0.9149 -1.5978 -0.4734
15445TIP3    H267827   6.167   5.289   3.633  0.4916  1.4234  0.6440
15446TIP3   OH267828   0.151   3.617   4.882 -0.0764  0.2079  0.3121
15446TIP3    H167829   0.154   3.708   4.912  3.4901  0.1451  0.4869
15446TIP3    H267830   0.163   3.565   4.961  3.6623 -0.1276 -0.3122
15447TIP3   OH267831   5.012   3.911   2.390 -0.1071 -0.2316  0.4343
15447TIP3    H167832   5.094   3.939   2.431 -0.6079 -0.9391  2.0053
15447TIP3    H267833   4.945   3.932   2.455 -1.1940  0.4089 -0.8603
15448TIP3   OH267834   4.758   6.477   2.166 -0.4190 -0.0943 -0.6240
15448TIP3    H167835   4.751   6.509   2.076 -2.1797  1.0597 -0.1314
15448TIP3    H267836   4.711   6.394   2.165  0.9541 -0.9000 -1.0858
15449TIP3   OH267837   4.585   6.460  14.657 -0.2392  0.5020  0.3305
15449TIP3    H167838   4.523   6.425  14.721  1.2566 -1.9700  0.5463
15449TIP3    H267839   4.552   6.548  14.638 -2.4301  0.1879  2.1981
15450TIP3   OH267840   0.582   5.480  13.824 -0.1562 -0.2660 -0.0588
15450TIP3    H167841   0.667   5.520  13.845  0.7247 -2.8013  1.7110
15450TIP3    H267842   0.557   5.434  13.904 -3.5541  0.8239 -0.3282
15451TIP3   OH267843   3.201   2.353  12.286  0.3014  0.1832  0.1125
15451TIP3    H167844   3.234   2.309  12.364 -1.3758 -0.2790  0.5805
15451TIP3    H267845   3.107   2.363  12.301  0.1765  1.3754 -1.2318
15452TIP3   OH267846   5.310   4.389   0.701  0.1744  0.0658 -0.8069
15452TIP3    H167847   5.391   4.418   0.742  1.1195 -1.2012 -1.6820
15452TIP3    H267848   5.246   4.385   0.772  1.4742 -1.0150  0.3309
15453TIP3   OH267849   0.400   2.847  12.187 -0.1331 -0.9895  0.0643
15453TIP3    H167850   0.445   2.799  12.117 -1.4885  0.6577 -2.0647
15453TIP3    H267851   0.459   2.919  12.208 -0.7511 -0.0793 -1.1859
15454TIP3   OH267852   5.831   3.087   0.101  0.7156 -0.2294 -0.5546
15454TIP3    H167853   5.852   3.090   0.195 -0.1057 -0.8162 -0.3428
15454TIP3    H267854   5.743   3.125   0.095  0.1405 -1.5738 -0.8841
15455TIP3   OH267855   1.641   3.329  15.276  0.3751  0.1376 -0.0747
15455TIP3    H167856   1.651   3.288  15.190  1.1158 -0.1014  0.1150
15455TIP3    H267857   1.725   3.312  15.320  0.1873  0.6887  0.5062
15456TIP3   OH267858   4.540   6.160  15.898 -0.0750 -0.0975  0.0175
15456TIP3    H167859   4.561   6.144  15.806 -1.2734  1.4627 -0.5737
15456TIP3    H267860   4.473   6.229  15.896  1.3490  1.4907  2.1124
15457TIP3   OH267861   6.568   0.047   0.084  0.1041  0.6170 -0.5302
15457TIP3    H167862   6.638   0.059   0.019  0.7263  0.2376  0.0661
15457TIP3    H267863   6.510  -0.018   0.044  0.5213  0.3346 -0.6847
15458TIP3   OH267864   4.121   6.171  15.620  0.2115  0.5002  0.3995
15458TIP3    H167865   4.072   6.176  15.702 -0.0286  2.1340  0.1877
15458TIP3    H267866   4.054   6.160  15.552  0.3065  0.5381  0.2984
15459TIP3   OH267867   3.758   3.135   3.202  0.3635 -0.4780 -1.0747
15459TIP3    H167868   3.852   3.154   3.197  0.2632  0.0045 -1.1439
15459TIP3    H267869   3.720   3.214   3.240  0.3021 -1.6287  1.4634
15460TIP3   OH267870   2.437   3.031   0.473 -0.9496  0.3377  0.1749
15460TIP3    H167871   2.444   3.018   0.378  0.6298  0.1913  0.2848
15460TIP3    H267872   2.503   3.098   0.492  0.8127 -1.6696  1.5392
15461TIP3   OH267873   4.898   6.421   6.518  0.5584 -0.0334 -0.1359
15461TIP3    H167874   4.978   6.409   6.569  1.3944 -0.5645 -1.5265
15461TIP3    H267875   4.907   6.361   6.444  0.8882  2.9243 -2.7077
15462TIP3   OH267876   3.396   3.312  14.054  0.5745  0.5200  0.1103
15462TIP3    H167877   3.325   3.253  14.079  0.4259  1.1967  1.4031
15462TIP3    H267878   3.353   3.379  14.000  0.3424  0.5697  0.3518
15463TIP3   OH267879   4.480   1.822  15.362 -0.3149 -0.0803 -0.2208
15463TIP3    H167880   4.491   1.916  15.380 -0.0572 -0.0929 -0.3108
15463TIP3    H267881   4.386   1.807  15.373 -0.2829  0.0836  0.2884
15464TIP3   OH267882   0.806   4.253   4.725 -0.6276  0.2356  0.3935
15464TIP3    H167883   0.808   4.160   4.751 -1.4854 -0.0937 -0.6475
15464TIP3    H267884   0.849   4.299   4.797  0.5891 -1.0641  0.5492
15465TIP3   OH267885   1.488   0.372   5.499 -0.0854  0.2888  0.4626
15465TIP3    H167886   1.475   0.463   5.470 -1.2381  0.1436  0.4682
15465TIP3    H267887   1.570   0.345   5.457 -0.6288  0.7727 -0.9706
15466TIP3   OH267888   5.632   3.826   6.214  0.2113 -0.1596 -0.4022
15466TIP3    H167889   5.671   3.909   6.187 -0.5046  0.0077 -0.9266
15466TIP3    H267890   5.708   3.770   6.236  0.7309  0.2604 -1.1030
15467TIP3   OH267891   6.542   6.588   5.894 -0.3108  0.2169  0.0895
15467TIP3    H167892   6.623   6.617   5.851 -0.1726  0.3261  0.4189
15467TIP3    H267893   6.536   6.643   5.972  0.0136 -0.7045  0.7890
15468TIP3   OH267894   4.929   5.582   3.655 -0.8099  0.4890 -1.1156
15468TIP3    H167895   4.861   5.532   3.699 -0.1812 -1.1775 -1.9530
15468TIP3    H267896   4.908   5.576   3.562 -0.8144  1.9774 -1.2389
15469TIP3   OH267897   5.390   5.608   0.270  0.2564  0.1702  0.0561
15469TIP3    H167898   5.404   5.518   0.299 -0.0947 -0.1766 -0.8255
15469TIP3    H267899   5.449   5.619   0.195 -0.7235  0.2117 -0.7234
15470TIP3   OH267900   3.065   2.524   3.525 -0.4584 -0.0972  0.0450
15470TIP3    H167901   3.115   2.488   3.598 -0.8660 -0.3574  0.1950
15470TIP3    H267902   3.088   2.470   3.450 -1.5308 -1.0821  0.3906
15471TIP3   OH267903   4.138   3.271   0.553 -0.1699 -0.1128 -0.3692
15471TIP3    H167904   4.047   3.283   0.580 -1.1860 -2.1549 -2.5293
15471TIP3    H267905   4.179   3.227   0.627 -0.4533  2.1130  1.2308
15472TIP3   OH267906   4.980   6.623   1.470 -0.3056  0.2953  0.1977
15472TIP3    H167907   4.998   6.714   1.443  0.5265  0.9409  2.6325
15472TIP3    H267908   5.006   6.570   1.394  3.9317  1.7905  0.3042
15473TIP3   OH267909   2.388   0.602   0.265 -0.1010  0.1338  0.2918
15473TIP3    H167910   2.428   0.577   0.348  0.8727  1.8700  0.3892
15473TIP3    H267911   2.376   0.519   0.219 -0.5254 -0.8508  2.0736
15474TIP3   OH267912   6.122   2.849   0.357 -0.4449  0.3915 -0.4493
15474TIP3    H167913   6.123   2.808   0.271 -0.9624 -0.5004 -0.0548
15474TIP3    H267914   6.211   2.837   0.391 -0.8688 -1.5101  0.1276
15475TIP3   OH267915   3.100   5.850  16.928 -0.7825 -0.9574  0.2955
15475TIP3    H167916   3.036   5.870  16.860  0.8231 -3.1446 -2.0194
15475TIP3    H267917   3.074   5.764  16.960 -0.1936 -0.9453  0.8337
15476TIP3   OH267918   5.889   0.260   5.141 -0.0190 -0.3181 -0.6041
15476TIP3    H167919   5.828   0.300   5.203 -0.6067 -0.3826 -1.1360
15476TIP3    H267920   5.948   0.208   5.196 -1.5824 -1.7753 -0.2408
15477TIP3   OH267921   5.133   2.829  13.971  0.0693  0.4966  0.4361
15477TIP3    H167922   5.225   2.855  13.966  0.0009  0.5531 -0.7394
15477TIP3    H267923   5.133   2.756  14.033  1.1498 -0.4890 -0.6567
15478TIP3   OH267924   1.567   1.262   4.596 -0.2398 -0.5197 -0.0838
15478TIP3    H167925   1.535   1.182   4.637  0.9594 -1.0417 -0.1047
15478TIP3    H267926   1.586   1.321   4.670 -0.0439 -0.6846 -0.0010
15479TIP3   OH267927   4.362   1.649  13.214  0.2873 -0.7792 -0.1928
15479TIP3    H167928   4.443   1.693  13.190 -0.6961  0.5771 -1.1359
15479TIP3    H267929   4.308   1.717  13.255 -0.9847 -1.2422 -1.0293
15480TIP3   OH267930   0.242   3.021  14.611  0.0560 -0.3622 -0.0301
15480TIP3    H167931   0.249   2.985  14.523 -1.2215 -0.9072  0.0724
15480TIP3    H267932   0.330   3.012  14.648  0.4441 -0.7283 -1.0065
15481TIP3   OH267933   3.672   0.633   3.524  0.6990  0.0567  0.5479
15481TIP3    H167934   3.722   0.706   3.486  2.1273 -0.5180  1.2393
15481TIP3    H267935   3.581   0.651   3.500  1.4172 -0.0033 -2.6431
15482TIP3   OH267936   0.121   2.022  14.650  0.1638 -0.3582 -0.0278
15482TIP3    H167937   0.049   1.978  14.695 -0.5445 -1.3525 -2.0065
15482TIP3    H267938   0.198   2.001  14.703 -0.4231 -2.5890  0.0774
15483TIP3   OH267939   6.411   4.423   4.884 -0.0234  0.0562 -0.0398
15483TIP3    H167940   6.378   4.425   4.794  1.1961 -0.0905 -0.5013
15483TIP3    H267941   6.403   4.514   4.914  0.1034  0.2187 -0.4958
15484TIP3   OH267942   2.449   6.609   2.622  0.1407  0.0057  0.6068
15484TIP3    H167943   2.460   6.543   2.689 -0.9018 -1.2228 -0.3685
15484TIP3    H267944   2.364   6.589   2.582 -0.3009  2.0488  0.3938
15485TIP3   OH267945   1.874   0.662  12.413 -0.3721  0.0760 -0.4853
15485TIP3    H167946   1.868   0.582  12.362 -0.2087 -0.3258  0.1165
15485TIP3    H267947   1.825   0.644  12.493  0.0900  0.3950 -0.1230
15486TIP3   OH267948   3.041   2.002  16.415 -0.2652  0.3387 -0.4122
15486TIP3    H167949   3.070   2.091  16.395  0.2108  0.7753  1.8896
15486TIP3    H267950   3.122   1.952  16.425 -0.3083  0.6543  2.2482
15487TIP3   OH267951   1.565   2.599   5.009 -0.3506 -0.0701 -0.0469
15487TIP3    H167952   1.659   2.592   5.026 -0.2673 -0.3726 -0.6334
15487TIP3    H267953   1.551   2.690   4.986  0.0507 -0.3458 -1.4486
15488TIP3   OH267954   5.390   2.558   6.608 -0.0159 -0.0186  0.4940
15488TIP3    H167955   5.373   2.614   6.533  1.4140  0.9886  0.8748
15488TIP3    H267956   5.347   2.603   6.681  0.0459 -0.0971  0.5784
15489TIP3   OH267957   6.316   6.640  13.814  0.6797  0.3544  0.0698
15489TIP3    H167958   6.381   6.569  13.822 -0.6902 -1.1808 -1.5074
15489TIP3    H267959   6.355   6.699  13.750  0.3587 -0.8665 -1.3266
15490TIP3   OH267960   5.697   2.399  15.422 -0.0274 -0.0589  0.0551
15490TIP3    H167961   5.639   2.434  15.355 -0.9884 -0.4878  0.6445
15490TIP3    H267962   5.733   2.476  15.466  0.5576  0.2239 -0.8910
15491TIP3   OH267963   3.254   3.057  14.581  0.1726  0.2013 -0.1971
15491TIP3    H167964   3.349   3.048  14.591  0.0848 -1.7910 -0.8499
15491TIP3    H267965   3.226   2.974  14.544 -1.6989  1.1672 -1.0455
15492TIP3   OH267966   3.663   3.119   4.174 -0.2929 -0.5510  0.6856
15492TIP3    H167967   3.629   3.088   4.090 -1.0504 -0.5275  0.9705
15492TIP3    H267968   3.671   3.040   4.228 -0.1948 -0.5168  0.7216
15493TIP3   OH267969   6.407   1.843   1.606  0.4234 -0.2733  0.3847
15493TIP3    H167970   6.328   1.874   1.650  1.1852  0.4980  1.2479
15493TIP3    H267971   6.459   1.802   1.675 -0.1338 -2.7398 -0.5605
15494TIP3   OH267972   5.187   4.411  17.280  0.5824  0.2091  0.4119
15494TIP3    H167973   5.248   4.352  17.235  1.4284  1.4489 -0.1246
15494TIP3    H267974   5.149   4.464  17.210 -0.2676  0.2237  0.8731
15495TIP3   OH267975   1.004   5.760  14.311 -0.1977  0.5161  0.3428
15495TIP3    H167976   1.038   5.756  14.400 -0.5478  1.3906  0.5276
15495TIP3    H267977   0.994   5.854  14.294  2.7953  0.6141 -1.7169
15496TIP3   OH267978   1.000   2.073   4.980 -0.5977 -0.0978 -0.0545
15496TIP3    H167979   0.995   2.138   5.050  0.2062  1.2709 -1.2159
15496TIP3    H267980   0.949   1.998   5.013 -0.7820  0.7501  1.6951
15497TIP3   OH267981   1.841   3.037  16.353  0.2847  0.7224  0.2306
15497TIP3    H167982   1.827   3.018  16.446 -0.5006  0.2165  0.0154
15497TIP3    H267983   1.761   3.008  16.310  0.8369  0.4999 -0.6751
15498TIP3   OH267984   5.666   5.360   3.128  0.1688 -0.4245 -0.4435
15498TIP3    H167985   5.645   5.294   3.061 -0.0848  1.2116 -2.0286
15498TIP3    H267986   5.713   5.428   3.081 -1.1005  1.3716  0.7659
15499TIP3   OH267987   0.644   2.172  11.115 -0.0271  0.6260 -0.1875
15499TIP3    H167988   0.552   2.191  11.101 -0.0480  0.3167 -0.4625
15499TIP3    H267989   0.647   2.120  11.195 -0.2941 -1.1932 -1.3193
15500TIP3   OH267990   4.806   2.955  17.046 -0.1607  0.2504 -0.2896
15500TIP3    H167991   4.729   2.949  16.989 -1.5345  2.6512  1.1725
15500TIP3    H267992   4.867   3.010  16.998  0.9095 -1.9170 -1.5939
15501TIP3   OH267993   0.725   6.025   1.852  0.7003 -0.4052  0.3148
15501TIP3    H167994   0.819   6.010   1.841  0.9328 -0.6015  2.2221
15501TIP3    H267995   0.707   5.999   1.942 -1.2926 -0.8247 -0.1508
15502TIP3   OH267996   0.507   1.527   5.429  0.2418  0.0966  0.7132
15502TIP3    H167997   0.445   1.486   5.368  1.0494  1.1968 -0.9122
15502TIP3    H267998   0.571   1.570   5.373  1.3515  0.6983  2.3634
15503TIP3   OH267999   6.158   4.552   4.314  0.5525  0.1847  0.1367
15503TIP3    H168000   6.113   4.523   4.394  1.6955  0.2659  0.8392
15503TIP3    H268001   6.250   4.563   4.341  1.0005  0.0427 -1.2397
15504TIP3   OH268002   3.347   4.296   6.433 -0.4893 -0.5689 -0.2378
15504TIP3    H168003   3.370   4.374   6.484 -0.7359 -1.0784  0.6704
15504TIP3    H268004   3.289   4.246   6.490  1.0051 -2.2512 -0.1105
15505TIP3   OH268005   2.075   2.049  13.987 -0.1518  0.0985  0.3181
15505TIP3    H168006   1.986   2.014  13.996  0.5025 -1.6262  0.4511
15505TIP3    H268007   2.128   1.994  14.045  1.0839  0.7905 -0.1271
15506TIP3   OH268008   1.654   4.903  11.663  0.1224 -0.7561 -0.1154
15506TIP3    H168009   1.588   4.882  11.729 -1.1337  0.1984 -1.0252
15506TIP3    H268010   1.627   4.853  11.586  0.5669 -0.4918 -0.4441
15507TIP3   OH268011   5.189   2.122   4.765 -0.4638 -0.4522 -0.3497
15507TIP3    H168012   5.213   2.180   4.694  0.3089  1.4561  1.3767
15507TIP3    H268013   5.222   2.036   4.739  1.7832  0.6441 -1.3051
15508TIP3   OH268014   6.184   1.283  15.818  0.5750 -0.0659 -0.1210
15508TIP3    H168015   6.143   1.325  15.742  0.1385 -0.1841  0.0468
15508TIP3    H268016   6.111   1.265  15.878  0.8574 -0.3807  0.1315
15509TIP3   OH268017   6.300   1.901   5.680  0.6046  0.0667 -0.0888
15509TIP3    H168018   6.212   1.931   5.703  0.5856  0.3138 -0.4715
15509TIP3    H268019   6.291   1.806   5.674  0.4080  0.0744  0.0736
15510TIP3   OH268020   1.551   2.828   1.632 -0.2634  0.1496 -0.3520
15510TIP3    H168021   1.553   2.861   1.542 -0.8629  0.4766 -0.2523
15510TIP3    H268022   1.464   2.790   1.641 -0.5342  0.9167  0.3702
15511TIP3   OH268023   5.922   0.115  11.791 -0.3620 -0.3743 -0.2126
15511TIP3    H168024   5.899   0.190  11.736  1.5864  0.2545 -0.2779
15511TIP3    H268025   5.840   0.070  11.807 -1.7820  2.2742  0.5554
15512TIP3   OH268026   3.130   5.177  11.597 -0.0845  0.0965 -0.3476
15512TIP3    H168027   3.222   5.203  11.590 -0.6778  2.1980 -1.1583
15512TIP3    H268028   3.108   5.143  11.510 -0.1932  0.0153 -0.2894
15513TIP3   OH268029   1.874   6.729   5.257  0.2379 -0.5120  0.6156
15513TIP3    H168030   1.934   6.804   5.263 -0.3007  0.3622 -2.8096
15513TIP3    H268031   1.920   6.659   5.303  2.8463  0.7630  0.1745
15514TIP3   OH268032   5.678   6.022  11.410 -0.1422  0.4234 -0.2712
15514TIP3    H168033   5.693   6.047  11.319 -0.5089  0.7852 -0.2329
15514TIP3    H268034   5.673   5.926  11.407 -3.1134  0.5177 -1.1045
15515TIP3   OH268035   4.873   1.545   3.255  0.6109  0.3048 -0.2486
15515TIP3    H168036   4.865   1.634   3.221  1.5166  1.5982  2.5721
15515TIP3    H268037   4.783   1.515   3.267  0.0952  2.5060  2.4300
15516TIP3   OH268038   2.004   1.633   6.223  0.4738  0.0519 -0.2922
15516TIP3    H168039   1.967   1.705   6.275  0.0066  0.0458 -0.6096
15516TIP3    H268040   1.978   1.654   6.133 -0.5101 -1.0144 -0.2799
15517TIP3   OH268041   6.363   4.196   3.449 -0.2797  0.3963  0.6310
15517TIP3    H168042   6.335   4.216   3.359  1.0660 -0.4797 -0.0168
15517TIP3    H268043   6.405   4.110   3.442  1.1291  0.9506  1.8102
15518TIP3   OH268044   0.808   2.702  15.041 -0.0484 -0.4243 -0.0178
15518TIP3    H168045   0.736   2.686  15.103  0.7027 -0.5517  0.8406
15518TIP3    H268046   0.841   2.788  15.064 -1.0838  0.4514 -1.6217
15519TIP3   OH268047   6.497   1.259   0.849  0.0670 -0.5405 -0.5570
15519TIP3    H168048   6.470   1.284   0.760 -1.8061 -3.2192 -0.8411
15519TIP3    H268049   6.447   1.317   0.906  1.2716  1.1941 -1.1688
15520TIP3   OH268050   2.015   6.419   0.242 -0.1331  0.2275  0.2877
15520TIP3    H168051   2.085   6.434   0.305  0.6515 -2.3212  0.1126
15520TIP3    H268052   1.968   6.343   0.275 -0.5760 -0.3053 -1.4447
15521TIP3   OH268053   5.951   5.260   6.529  0.8473  0.1850  0.5513
15521TIP3    H168054   5.959   5.336   6.587  2.6035 -0.0929  0.7546
15521TIP3    H268055   5.870   5.217   6.556 -0.0604  1.8446  0.5751
15522TIP3   OH268056   1.305   0.418  14.013  0.3245  0.3147  0.3773
15522TIP3    H168057   1.280   0.348  14.073  1.9186 -1.0521 -0.4478
15522TIP3    H268058   1.354   0.480  14.066  0.9632 -0.4370  0.6866
15523TIP3   OH268059   5.013   4.534  16.842  0.1372  0.4883  0.1233
15523TIP3    H168060   4.921   4.510  16.836  0.6739 -2.3369  1.7342
15523TIP3    H268061   5.056   4.482  16.773  0.6452  1.2969 -0.1904
15524TIP3   OH268062   4.164   4.408   3.636 -0.2148  0.1553 -0.4301
15524TIP3    H168063   4.116   4.479   3.595  0.1535  0.4420 -0.3631
15524TIP3    H268064   4.150   4.421   3.730  1.4311  1.2772 -0.3046
15525TIP3   OH268065   4.746   3.797  16.657 -0.0599 -0.1454 -0.3037
15525TIP3    H168066   4.733   3.712  16.615 -2.0591 -0.2239  0.3916
15525TIP3    H268067   4.707   3.860  16.597  0.1724  0.1273 -0.1698
15526TIP3   OH268068   6.369   2.073   3.545 -0.6432 -0.1253  0.1021
15526TIP3    H168069   6.363   2.095   3.451 -0.9018 -1.9139 -0.3366
15526TIP3    H268070   6.287   2.029   3.564 -0.2899 -0.4015  1.0098
15527TIP3   OH268071   3.509   5.633   6.322  0.1673 -0.0712  0.7985
15527TIP3    H168072   3.590   5.685   6.320  0.1874 -0.0124  2.1624
15527TIP3    H268073   3.439   5.697   6.310  0.3083 -0.0990 -0.2114
15528TIP3   OH268074   3.302   0.735   5.900  0.1060 -0.1996  0.4605
15528TIP3    H168075   3.266   0.656   5.859  1.4787 -1.6928  1.9752
15528TIP3    H268076   3.226   0.780   5.936 -0.5526 -2.0425  1.5145
15529TIP3   OH268077   3.876   3.748  14.609  0.0316 -0.0679  0.2858
15529TIP3    H168078   3.890   3.842  14.624  1.4671 -0.3072  0.5862
15529TIP3    H268079   3.963   3.710  14.616 -0.8346 -1.8271  2.9911
15530TIP3   OH268080   6.070   2.543   5.974 -0.1647  0.3361  0.2940
15530TIP3    H168081   6.075   2.448   5.961  0.1934  0.3303  0.4567
15530TIP3    H268082   5.990   2.569   5.929 -1.5000 -0.3568  2.1471
15531TIP3   OH268083   0.340   1.459  15.020  0.2536 -0.2008  0.0792
15531TIP3    H168084   0.418   1.466  15.074  0.8322  0.1361 -0.7881
15531TIP3    H268085   0.338   1.539  14.968 -0.1762 -0.6056 -0.5552
15532TIP3   OH268086   0.510   1.175   5.807  0.9756  0.4079 -0.0069
15532TIP3    H168087   0.502   1.183   5.902  0.6221 -0.5747  0.0526
15532TIP3    H268088   0.604   1.188   5.789  1.0467  0.5620  0.4758
15533TIP3   OH268089   2.789   4.306   5.154  0.3072  0.2418  0.1060
15533TIP3    H168090   2.825   4.365   5.088 -1.2145 -0.4904 -1.4926
15533TIP3    H268091   2.832   4.222   5.138  0.6736  0.3031  0.7368
15534TIP3   OH268092   1.907   1.554  15.469  0.2366  0.3353  0.7155
15534TIP3    H168093   1.877   1.464  15.468  1.6157 -0.1503  0.9217
15534TIP3    H268094   1.906   1.581  15.377  0.1142  0.0121  0.6205
15535TIP3   OH268095   2.806   0.718   0.246 -0.2265 -0.0726 -0.0475
15535TIP3    H168096   2.781   0.778   0.176  2.2196  2.4690  1.0792
15535TIP3    H268097   2.761   0.752   0.323 -0.3270 -0.8910  0.2648
15536TIP3   OH268098   2.733   4.078   0.854  0.0536  0.1247  0.0825
15536TIP3    H168099   2.667   4.145   0.838  1.9201  2.4463  1.3226
15536TIP3    H268100   2.731   4.063   0.948 -2.8633 -4.5914 -0.4116
15537TIP3   OH268101   2.707   6.578  14.711  0.6209  0.1918  0.1342
15537TIP3    H168102   2.788   6.610  14.671  0.2925  1.5796  0.5335
15537TIP3    H268103   2.638   6.601  14.649  0.4157 -0.1565  0.2269
15538TIP3   OH268104   2.496   5.404  15.644  0.2595  0.0460  0.1456
15538TIP3    H168105   2.420   5.347  15.635  0.3284  0.1819 -1.5412
15538TIP3    H268106   2.459   5.493  15.642  0.4280  0.1059 -0.2846
15539TIP3   OH268107   1.471   0.461  12.566  0.0076  0.2887 -0.0736
15539TIP3    H168108   1.476   0.378  12.612  0.4867  1.2286  1.6746
15539TIP3    H268109   1.455   0.438  12.474 -2.0290 -1.6475  0.6851
15540TIP3   OH268110   0.006   4.608   3.382  0.2171 -0.0277 -0.2112
15540TIP3    H168111  -0.082   4.636   3.405  0.5150  0.3323  0.5240
15540TIP3    H268112   0.058   4.688   3.384  0.1907  0.1028 -2.5954
15541TIP3   OH268113   0.296   2.005  17.649  0.0569 -0.3628 -0.1091
15541TIP3    H168114   0.252   2.076  17.602  0.4742 -0.6213 -0.9127
15541TIP3    H268115   0.355   1.966  17.584 -0.4431 -1.6872  0.1990
15542TIP3   OH268116   1.918   6.410   1.363  0.1953 -0.5996 -0.1426
15542TIP3    H168117   1.844   6.466   1.339 -1.3508 -1.9444  1.2651
15542TIP3    H268118   1.966   6.461   1.428 -0.7439 -0.5713  0.5435
15543TIP3   OH268119   0.216   2.706   4.722  0.5583 -0.6818  0.6474
15543TIP3    H168120   0.197   2.792   4.760 -0.7081 -0.1362 -1.0934
15543TIP3    H268121   0.147   2.693   4.656  1.1025 -2.7522  0.4221
15544TIP3   OH268122   1.568   1.519  12.546  0.5220 -0.1557 -0.0420
15544TIP3    H168123   1.494   1.551  12.598  0.9638  0.5398  0.1688
15544TIP3    H268124   1.616   1.461  12.606  0.2997 -0.3931 -0.0931
15545TIP3   OH268125   5.030   5.499  12.502 -0.9088 -0.4519 -0.4019
15545TIP3    H168126   5.081   5.468  12.577 -0.3122 -0.9251 -0.9936
15545TIP3    H268127   5.082   5.569  12.465 -1.9052  0.8086  0.4875
15546TIP3   OH268128   5.761   2.025  13.896  0.1944  0.1692  0.4175
15546TIP3    H168129   5.800   1.956  13.949  0.0219 -0.3233 -0.0881
15546TIP3    H268130   5.681   1.986  13.860  0.6477  0.2651 -0.7395
15547TIP3   OH268131   4.517   2.652  15.031  0.0055  1.0929  0.0857
15547TIP3    H168132   4.556   2.651  14.943 -0.7055  2.1083 -0.2669
15547TIP3    H268133   4.532   2.741  15.063  2.0813  0.1713  1.8758
15548TIP3   OH268134   4.711   2.653  17.609 -0.0370 -0.4019  0.0566
15548TIP3    H168135   4.783   2.595  17.584 -0.4385 -2.2889  2.8044
15548TIP3    H268136   4.644   2.594  17.643 -1.5836  1.5326  0.5157
15549TIP3   OH268137   2.031   0.283   5.760 -0.2315 -0.0210 -0.0911
15549TIP3    H168138   2.067   0.226   5.693 -1.4339 -1.5577  0.5108
15549TIP3    H268139   2.014   0.366   5.715 -0.2193 -0.7424 -1.4574
15550TIP3   OH268140   4.701   4.761  11.150 -0.5317  0.0669 -1.1729
15550TIP3    H168141   4.715   4.679  11.103 -0.1343 -0.5732 -0.0005
15550TIP3    H268142   4.741   4.745  11.236  1.1450  2.1015 -1.4914
15551TIP3   OH268143   2.456   5.817   0.111  0.3124 -0.2075 -0.0843
15551TIP3    H168144   2.390   5.885   0.096  0.6376 -0.0419 -0.8204
15551TIP3    H268145   2.411   5.751   0.164 -0.4527 -0.1072 -0.6002
15552TIP3   OH268146   2.752   5.983   5.934 -0.3762 -0.2223  0.1807
15552TIP3    H168147   2.718   5.997   6.022  1.3013 -0.0779  0.8308
15552TIP3    H268148   2.716   6.055   5.882 -0.5896  0.2427  0.9743
15553TIP3   OH268149   1.670   4.384  15.621 -0.8777 -0.1108 -0.4413
15553TIP3    H168150   1.674   4.313  15.557 -3.3087 -0.1169 -0.7025
15553TIP3    H268151   1.673   4.339  15.706  2.2451 -0.1091 -0.4537
15554TIP3   OH268152   0.114   1.001   3.396  0.0587 -0.2165 -0.2549
15554TIP3    H168153   0.023   1.028   3.387  0.4125  1.3648  0.5430
15554TIP3    H268154   0.119   0.964   3.484  0.6008  1.6482  0.5451
15555TIP3   OH268155   6.464   2.591  13.946 -0.6314 -0.4483 -0.3874
15555TIP3    H168156   6.376   2.598  13.981 -0.2621 -2.5089  1.1708
15555TIP3    H268157   6.459   2.519  13.882 -0.1577 -0.4047 -0.4798
15556TIP3   OH268158   4.607   0.639   2.423 -0.5887  0.5132 -0.2270
15556TIP3    H168159   4.564   0.592   2.495  0.2623  1.3657  0.8678
15556TIP3    H268160   4.660   0.572   2.379 -2.5509 -0.4520 -1.2971
15557TIP3   OH268161   0.766   3.358   6.693  0.0580 -0.0518 -0.0150
15557TIP3    H168162   0.792   3.345   6.785 -0.1982 -1.6466 -0.1351
15557TIP3    H268163   0.717   3.440   6.693 -1.5258 -0.9338  1.6348
15558TIP3   OH268164   6.578   2.734   6.703  0.4173 -0.2226  0.2485
15558TIP3    H168165   6.652   2.677   6.724  0.4667 -0.5455 -0.7532
15558TIP3    H268166   6.594   2.814   6.753  2.0206  0.1315 -0.7654
15559TIP3   OH268167   6.285   1.661  15.160 -0.4446 -0.2185 -0.1644
15559TIP3    H168168   6.304   1.583  15.108  0.6371  1.3298 -2.2209
15559TIP3    H268169   6.366   1.679  15.206  1.2404  2.5397 -3.7451
15560TIP3   OH268170   3.686   4.141   2.082  0.0625 -0.1655  0.2888
15560TIP3    H168171   3.732   4.084   2.020 -2.0114 -1.9776  0.2867
15560TIP3    H268172   3.611   4.089   2.111 -0.3516  1.5297  2.5313
15561TIP3   OH268173   4.117   3.740  17.180 -0.4186 -0.8046 -0.0330
15561TIP3    H168174   4.096   3.678  17.110  0.1460 -0.3807 -0.5919
15561TIP3    H268175   4.100   3.692  17.261 -1.5277 -1.1503 -0.4500
15562TIP3   OH268176   4.866   5.224  16.852  0.4806  0.3387 -0.1095
15562TIP3    H168177   4.843   5.248  16.762 -0.9737  1.0469  0.4155
15562TIP3    H268178   4.961   5.233  16.856  0.4347  1.6129 -1.2214
15563TIP3   OH268179   1.468   1.309   1.272 -0.3864  0.2800 -0.1302
15563TIP3    H168180   1.467   1.374   1.342 -0.2864 -1.0479  1.1507
15563TIP3    H268181   1.378   1.279   1.265 -0.1141 -0.7781  0.6162
15564TIP3   OH268182   4.489   2.872  14.676  0.2622  0.2395 -0.6686
15564TIP3    H168183   4.440   2.913  14.605 -1.1980  0.8858  0.6471
15564TIP3    H268184   4.529   2.795  14.636 -0.0343  0.9010 -2.3179
15565TIP3   OH268185   6.218   1.255  16.462  0.1537  0.1780 -0.2553
15565TIP3    H168186   6.286   1.303  16.414 -1.4464  1.2156 -1.6125
15565TIP3    H268187   6.151   1.321  16.481  0.3875 -0.3425  2.9126
15566TIP3   OH268188   3.596   2.103  13.292 -0.3697  0.2554 -0.5526
15566TIP3    H168189   3.630   2.021  13.257  0.6290  1.0500 -1.5166
15566TIP3    H268190   3.528   2.130  13.231 -1.8896 -0.6658  0.6670
15567TIP3   OH268191   3.514   5.894   4.375  0.3146 -0.4563 -0.7274
15567TIP3    H168192   3.500   5.816   4.428 -0.1990 -0.4329 -0.8282
15567TIP3    H268193   3.487   5.967   4.432 -2.3106 -0.5457 -1.7058
15568TIP3   OH268194   1.722   3.755  15.207  0.1226  0.0383 -0.1545
15568TIP3    H168195   1.742   3.741  15.300 -0.8953  1.0390  0.2401
15568TIP3    H268196   1.673   3.837  15.206 -0.4514 -0.3064 -1.5127
15569TIP3   OH268197   0.507   5.706  12.360 -0.0437 -0.1369 -0.2904
15569TIP3    H168198   0.463   5.676  12.440 -2.4952  0.5860 -1.2755
15569TIP3    H268199   0.583   5.754  12.391  0.5464 -2.0694  1.4970
15570TIP3   OH268200   0.504   6.682   5.753  0.3980  0.3303  0.1001
15570TIP3    H168201   0.472   6.662   5.665  1.1851  0.7422 -0.2911
15570TIP3    H268202   0.510   6.597   5.796  1.3917 -0.0381 -0.7334
15571TIP3   OH268203   4.657   2.324   0.047 -0.1044 -0.1697 -0.1336
15571TIP3    H168204   4.614   2.403   0.080 -3.0600 -0.2189 -3.2961
15571TIP3    H268205   4.627   2.254   0.105 -0.4646  0.5058  0.5034
15572TIP3   OH268206   0.270   1.988  13.805  0.1904  0.1911  0.0143
15572TIP3    H168207   0.209   2.056  13.777  0.0955 -0.0803 -0.4571
15572TIP3    H268208   0.238   1.908  13.762  1.6616  0.2999 -1.4102
15573TIP3   OH268209   0.434   3.171   2.744 -0.0625  0.2472  0.4577
15573TIP3    H168210   0.513   3.123   2.770 -0.6250 -1.2197 -0.3886
15573TIP3    H268211   0.367   3.103   2.736 -0.4769  0.8721 -2.4682
15574TIP3   OH268212   1.871   3.728   3.119  0.6248  0.0850 -0.2323
15574TIP3    H168213   1.830   3.678   3.190 -1.1243 -1.4228 -2.1595
15574TIP3    H268214   1.885   3.815   3.156 -1.3287 -0.2783  1.5929
15575TIP3   OH268215   4.250   1.659  13.653  0.2817 -0.2280  0.1820
15575TIP3    H168216   4.319   1.706  13.700  1.0519 -1.3137  0.1610
15575TIP3    H268217   4.174   1.663  13.711  0.3683  0.9245  0.2358
15576TIP3   OH268218   4.887   3.861   2.827  0.7634 -0.0679  0.1519
15576TIP3    H168219   4.927   3.774   2.828  0.3803 -0.2989 -1.6492
15576TIP3    H268220   4.958   3.920   2.800  0.8137  0.0531  0.5512
15577TIP3   OH268221   5.253   1.339   6.008  0.0533 -0.9989  0.0789
15577TIP3    H168222   5.231   1.247   5.990 -2.2584 -0.2310 -1.4865
15577TIP3    H268223   5.182   1.371   6.063 -0.7625  0.5479 -1.7479
15578TIP3   OH268224   5.427   5.246  17.421 -0.0420  0.1468  0.4597
15578TIP3    H168225   5.399   5.219  17.333 -0.5772 -0.2977  0.7562
15578TIP3    H268226   5.434   5.341  17.416  1.2526  0.0359 -0.4355
15579TIP3   OH268227   5.610   4.192  13.930  0.1539 -0.2131  0.2271
15579TIP3    H168228   5.644   4.148  14.007  1.3833 -2.4118 -1.4586
15579TIP3    H268229   5.648   4.144  13.856 -2.8165  0.2819 -1.7830
15580TIP3   OH268230   1.894   0.676  13.114 -0.6206 -0.9301 -0.3104
15580TIP3    H168231   1.805   0.711  13.116 -0.5308 -0.7318  0.2052
15580TIP3    H268232   1.901   0.635  13.027 -0.8081  0.1109 -0.8336
15581TIP3   OH268233   6.124   4.703  11.789  0.0725  0.1588  0.3003
15581TIP3    H168234   6.091   4.619  11.820 -1.2965  0.3283 -0.6129
15581TIP3    H268235   6.055   4.737  11.733  1.9769  0.3457 -2.1106
15582TIP3   OH268236   3.213   0.802   1.661 -0.7662 -0.0102 -0.2970
15582TIP3    H168237   3.271   0.783   1.735 -1.0720 -0.5296 -0.1942
15582TIP3    H268238   3.154   0.727   1.656 -2.5637  1.2636  0.6709
15583TIP3   OH268239   6.489   0.060  11.786  0.0936 -0.5995  0.2136
15583TIP3    H168240   6.522   0.093  11.702  2.9349  0.2641  1.5553
15583TIP3    H268241   6.435   0.131  11.820  1.7290  0.5063  0.6024
15584TIP3   OH268242   2.874   0.066  13.761  0.1981 -0.4010 -0.4364
15584TIP3    H168243   2.803   0.114  13.805  1.8414  0.6906  1.1964
15584TIP3    H268244   2.885  -0.013  13.814 -1.1425 -1.6351 -1.9249
15585TIP3   OH268245   3.223   4.025  11.073 -0.2828 -0.7132  0.3341
15585TIP3    H168246   3.226   3.969  11.150  0.5569 -1.0088  0.1059
15585TIP3    H268247   3.218   4.114  11.107  0.5736 -0.8121  0.7529
15586TIP3   OH268248   6.037   0.035  13.600 -0.3113  0.7086 -0.3982
15586TIP3    H168249   6.064   0.098  13.666 -1.1980  0.0040  0.6895
15586TIP3    H268250   6.119  -0.005  13.569  0.0768  0.3411  1.0234
15587TIP3   OH268251   4.287   4.146   1.835 -0.3348 -0.0225  0.5988
15587TIP3    H168252   4.318   4.190   1.756 -1.0426 -1.2333 -0.3960
15587TIP3    H268253   4.367   4.116   1.879  0.0402 -0.0132 -0.0653
15588TIP3   OH268254   1.330   4.355  15.545  0.2556  0.0743  0.0873
15588TIP3    H168255   1.274   4.298  15.492 -0.2599  0.3548  0.3292
15588TIP3    H268256   1.356   4.425  15.485  1.0823 -0.5314 -0.2777
15589TIP3   OH268257   2.352   1.324  12.928  0.0402  1.0618  0.4891
15589TIP3    H168258   2.409   1.290  12.998 -0.3083 -0.0846  0.2342
15589TIP3    H268259   2.365   1.264  12.855 -1.3574  0.9048  0.3566
15590TIP3   OH268260   2.022   5.278   3.093 -0.1430 -0.1302  0.2481
15590TIP3    H168261   2.047   5.247   3.006  1.4513 -0.1047  0.6575
15590TIP3    H268262   1.940   5.233   3.112 -0.5168 -0.1428 -1.2524
15591TIP3   OH268263   1.570   4.718  14.276  0.1005 -0.2070 -0.3776
15591TIP3    H168264   1.591   4.803  14.238  0.0326  0.0932  0.2437
15591TIP3    H268265   1.642   4.701  14.337  0.6745 -1.0967 -1.2788
15592TIP3   OH268266   1.050   1.827   0.380  0.5964 -0.1010 -0.7451
15592TIP3    H168267   1.015   1.745   0.346 -0.2481  0.1684 -0.5400
15592TIP3    H268268   1.081   1.874   0.302  1.6600 -0.8553 -0.8088
15593TIP3   OH268269   4.491   0.997  14.132  0.0390  0.3164  0.2861
15593TIP3    H168270   4.463   0.906  14.123  1.4954 -0.3328  1.7007
15593TIP3    H268271   4.480   1.017  14.225 -0.4040  1.6617 -0.0282
15594TIP3   OH268272   2.415   1.245  15.245  0.4092  0.3950 -0.5596
15594TIP3    H168273   2.341   1.197  15.283 -0.0868  2.2483  0.9614
15594TIP3    H268274   2.374   1.304  15.181  0.4001  1.8813  0.7354
15595TIP3   OH268275   3.871   4.952  14.820  0.2925  0.2228  0.0048
15595TIP3    H168276   3.813   5.025  14.842 -0.1924  0.0481 -0.6809
15595TIP3    H268277   3.829   4.909  14.745  1.1891 -0.0341 -0.3652
15596TIP3   OH268278   1.246   2.678  14.187  0.1269  0.1249 -0.5396
15596TIP3    H168279   1.153   2.664  14.170 -0.5742  2.5671  0.8772
15596TIP3    H268280   1.268   2.759  14.142  0.7050  1.3151  1.7152
15597TIP3   OH268281   3.458   1.153  16.649 -0.3279 -0.5498 -0.0287
15597TIP3    H168282   3.402   1.221  16.686  0.4409 -0.1288  0.3747
15597TIP3    H268283   3.422   1.138  16.562  0.1114  1.1039 -0.5294
15598TIP3   OH268284   2.579   0.721   5.431 -0.1248 -0.7037 -0.6280
15598TIP3    H168285   2.561   0.690   5.342  1.0710  2.0448 -1.9449
15598TIP3    H268286   2.494   0.748   5.465 -0.8138 -3.0576 -0.3244
15599TIP3   OH268287   4.685   2.480   1.480 -0.0546  0.5374 -0.2127
15599TIP3    H168288   4.611   2.538   1.467  1.3886  2.0318 -2.3619
15599TIP3    H268289   4.760   2.526   1.442  1.5669 -1.8566 -0.1951
15600TIP3   OH268290   6.479   1.644  15.703 -0.3583 -0.6654  0.1544
15600TIP3    H168291   6.490   1.604  15.617  0.0714  0.6532 -0.4302
15600TIP3    H268292   6.444   1.731  15.684  1.2039  0.2410  1.1882
15601TIP3   OH268293   6.363   4.549  12.865 -0.0227 -0.2168 -0.2838
15601TIP3    H168294   6.333   4.508  12.783  1.1404 -0.1324 -0.7687
15601TIP3    H268295   6.285   4.551  12.920 -0.4650 -1.7177 -0.8003
15602TIP3   OH268296   3.397   4.354   1.680  0.3770  0.3091 -0.2610
15602TIP3    H168297   3.382   4.341   1.774 -0.8551 -1.1326 -0.6306
15602TIP3    H268298   3.309   4.356   1.642  0.8866  0.0861 -1.4861
15603TIP3   OH268299   5.139   1.461  15.306  0.6458  0.4251  0.2887
15603TIP3    H168300   5.177   1.447  15.219  0.3652 -0.2418  0.2624
15603TIP3    H268301   5.199   1.522  15.348  0.9384  0.5411 -0.2756
15604TIP3   OH268302   4.989   2.811   1.986  0.6613 -0.6169  0.8335
15604TIP3    H168303   5.003   2.904   1.968  0.3709 -0.6702  0.3183
15604TIP3    H268304   4.982   2.771   1.899 -0.7359 -0.8853  1.0497
15605TIP3   OH268305   5.237   4.234   4.658  0.0965  0.6968  0.0289
15605TIP3    H168306   5.181   4.308   4.679 -0.7310  0.3284 -0.7895
15605TIP3    H268307   5.208   4.205   4.571  0.8213 -0.1916  0.0584
15606TIP3   OH268308   3.822   0.268   5.581 -0.0258 -0.2312 -0.2592
15606TIP3    H168309   3.732   0.252   5.608  0.1345 -0.1822  0.3099
15606TIP3    H268310   3.859   0.182   5.564 -0.5389 -0.1908 -1.6858
15607TIP3   OH268311   2.204   0.541   1.459  0.3389  0.2496  0.5071
15607TIP3    H168312   2.288   0.585   1.456 -0.0439  1.0520  1.0904
15607TIP3    H268313   2.202   0.498   1.544  1.3961 -2.3743 -0.6852
15608TIP3   OH268314   1.082   2.856  11.719  0.0363  0.1098  0.1428
15608TIP3    H168315   1.165   2.877  11.762  0.6185  0.0527 -0.9286
15608TIP3    H268316   1.090   2.763  11.696 -1.0357 -0.3692  1.5547
15609TIP3   OH268317   5.982   1.137   5.861 -0.4389  0.1630 -0.1450
15609TIP3    H168318   5.954   1.153   5.951  0.9025 -1.2434  0.5606
15609TIP3    H268319   6.023   1.051   5.863  0.8042  0.6546 -1.8211
15610TIP3   OH268320   3.303   0.792  16.497  0.1753  0.2033  0.2999
15610TIP3    H168321   3.239   0.794  16.568  0.8708  0.8859  0.9137
15610TIP3    H268322   3.343   0.705  16.503  0.7274  0.5145  1.1882
15611TIP3   OH268323   2.215   6.064   2.055  0.1669  0.6284 -0.1700
15611TIP3    H168324   2.192   6.070   2.147 -0.3380  2.0318 -0.3550
15611TIP3    H268325   2.131   6.062   2.009  0.4158  0.2308 -0.6203
15612TIP3   OH268326   1.493   2.209  16.560  0.7309 -0.4226  0.0439
15612TIP3    H168327   1.552   2.191  16.487  1.2090  1.9801 -0.2264
15612TIP3    H268328   1.538   2.171  16.636  2.7626  1.3650 -0.1379
15613TIP3   OH268329   6.596   3.548  17.145 -0.0695 -0.3202  0.0868
15613TIP3    H168330   6.615   3.498  17.225  1.6383 -0.2763 -0.2540
15613TIP3    H268331   6.624   3.637  17.165  1.7680 -0.6057 -1.0096
15614TIP3   OH268332   3.059   5.272  12.049  0.0067 -0.3991  0.1161
15614TIP3    H168333   3.134   5.316  12.009 -0.6949  0.6268 -0.1187
15614TIP3    H268334   3.029   5.211  11.982 -0.1711  0.1447 -0.3062
15615TIP3   OH268335   4.338   3.469   5.941  0.0683  0.1759  0.1960
15615TIP3    H168336   4.394   3.405   5.897  0.9571 -0.7920  2.5804
15615TIP3    H268337   4.383   3.553   5.928  0.7172 -0.2125 -0.0927
15616TIP3   OH268338   4.448   6.597   0.213  0.0769  0.9498  0.2528
15616TIP3    H168339   4.437   6.527   0.278  1.5833 -2.2349 -2.6056
15616TIP3    H268340   4.543   6.613   0.213  0.6371 -1.3567 -3.0060
15617TIP3   OH268341   6.137   5.189  13.477 -0.1579 -0.0043 -0.1174
15617TIP3    H168342   6.075   5.143  13.532  0.2733 -1.2214 -0.6080
15617TIP3    H268343   6.100   5.184  13.389 -1.0234  2.2355  0.0479
15618TIP3   OH268344   2.436   5.738   1.134  0.1630  0.4618  0.3251
15618TIP3    H168345   2.431   5.727   1.038  2.6820  2.2320 -0.0979
15618TIP3    H268346   2.350   5.773   1.158  0.0806  1.7745 -1.6132
15619TIP3   OH268347   5.501   2.220   4.877  0.3202 -1.1825 -0.6116
15619TIP3    H168348   5.423   2.273   4.859  1.0970 -0.0957 -0.9015
15619TIP3    H268349   5.550   2.222   4.796  1.9366  0.4258  0.3231
15620TIP3   OH268350   0.081   6.702   2.909  0.2063  0.2011 -0.2763
15620TIP3    H168351   0.040   6.616   2.904  2.6703 -1.0793 -0.2358
15620TIP3    H268352   0.146   6.701   2.838  0.7064  1.7941  0.1246
15621TIP3   OH268353   3.163   6.303   6.744 -0.1496  0.2038  0.1058
15621TIP3    H168354   3.177   6.393   6.773 -1.5966  0.1320  1.1422
15621TIP3    H268355   3.244   6.257   6.766 -0.0209  0.8893  1.0915
15622TIP3   OH268356   4.096   5.726   3.225  0.1406  0.1376  0.3343
15622TIP3    H168357   4.006   5.703   3.247 -0.2433  0.7829 -0.4826
15622TIP3    H268358   4.132   5.763   3.306  0.3083 -1.8443  1.2330
15623TIP3   OH268359   3.249   2.760   4.957 -0.2062 -0.6527  0.5576
15623TIP3    H168360   3.274   2.809   5.035  0.5027 -0.6897  0.3570
15623TIP3    H268361   3.228   2.672   4.990 -5.2515  0.5864  1.5521
15624TIP3   OH268362   3.600   1.689   2.253 -0.2046  0.2817  0.4515
15624TIP3    H168363   3.538   1.753   2.286 -0.1751  0.3143  0.4426
15624TIP3    H268364   3.576   1.608   2.298 -0.9095  0.0518 -0.2933
15625TIP3   OH268365   2.039   2.632  12.709 -0.4997  0.5879 -0.6272
15625TIP3    H168366   2.082   2.547  12.715 -0.0867  0.3621 -4.3319
15625TIP3    H268367   2.068   2.680  12.787  2.0754 -1.4290 -0.2249
15626TIP3   OH268368   2.645   1.307   4.075 -0.1007 -0.6912  0.2974
15626TIP3    H168369   2.694   1.297   3.993 -3.5181 -0.9436 -1.9215
15626TIP3    H268370   2.608   1.220   4.091 -2.4210  0.1576 -0.0405
15627TIP3   OH268371   4.113   5.323  14.431 -0.6989  0.2573 -0.7259
15627TIP3    H168372   4.153   5.238  14.450 -0.1634  0.2591 -1.7756
15627TIP3    H268373   4.067   5.346  14.512 -0.5499 -0.8541 -0.2989
15628TIP3   OH268374   3.092   5.441  17.516  0.0182  0.5136 -0.0836
15628TIP3    H168375   3.086   5.537  17.508 -1.0356  0.5454  0.9235
15628TIP3    H268376   3.179   5.420  17.483  0.0662  1.7657 -0.8241
15629TIP3   OH268377   1.099   3.856  11.415 -0.0937 -0.1092 -0.0647
15629TIP3    H168378   1.185   3.887  11.388 -0.4268 -1.1836 -2.6374
15629TIP3    H268379   1.038   3.925  11.388 -0.3149 -0.6720 -1.0473
15630TIP3   OH268380   1.697   1.515   3.424 -0.6226 -0.3307 -0.0791
15630TIP3    H168381   1.778   1.537   3.471 -0.4875 -1.0573  0.0324
15630TIP3    H268382   1.656   1.600   3.407 -0.6240 -0.0433  1.2607
15631TIP3   OH268383   4.589   5.050   5.952 -0.5893 -0.0618 -0.4408
15631TIP3    H168384   4.622   5.096   5.874  2.0945 -0.6494  0.2523
15631TIP3    H268385   4.667   5.019   5.997 -1.9401  1.2095  3.1612
15632TIP3   OH268386   4.375   0.660   4.428 -0.1971  0.2932 -0.0021
15632TIP3    H168387   4.468   0.680   4.435 -0.0100 -0.5072 -0.0969
15632TIP3    H268388   4.341   0.727   4.368  0.4678  0.1372 -0.5758
15633TIP3   OH268389   0.526   0.981  17.672 -0.1318 -0.6238 -0.1543
15633TIP3    H168390   0.445   1.008  17.628  0.6702 -1.5924 -2.4115
15633TIP3    H268391   0.500   0.911  17.732 -1.2307  0.4998  0.7253
15634TIP3   OH268392   3.497   2.868   1.920 -0.5021 -0.2588  0.4990
15634TIP3    H168393   3.506   2.927   1.995  0.3935  0.2486  0.0083
15634TIP3    H268394   3.558   2.797   1.938 -1.1433 -0.7483  0.7998
15635TIP3   OH268395   2.137   4.857  16.502  0.0513 -0.1470 -0.2224
15635TIP3    H168396   2.106   4.923  16.564 -0.8357  0.7066 -1.5064
15635TIP3    H268397   2.107   4.774  16.538 -0.1200  0.2986  0.6802
15636TIP3   OH268398   2.106   2.630  12.302  0.2549 -0.0185  0.0228
15636TIP3    H168399   2.060   2.691  12.244  0.8760 -0.2046 -0.6919
15636TIP3    H268400   2.184   2.678  12.330 -0.2703  0.2380  1.0964
15637TIP3   OH268401   2.649   6.027  12.576  0.5376 -0.3869 -0.2876
15637TIP3    H168402   2.702   6.044  12.653  0.5840 -0.3076 -0.3365
15637TIP3    H268403   2.560   6.051  12.602  0.1366 -2.5135  0.5027
15638TIP3   OH268404   2.063   5.991  15.026  0.3688 -0.6982 -0.1174
15638TIP3    H168405   2.042   6.050  15.099  1.8803 -1.4551  0.9880
15638TIP3    H268406   1.981   5.982  14.978  0.0789  2.2933 -0.3630
15639TIP3   OH268407   3.367   5.828  14.173  0.1940 -0.2478  0.8489
15639TIP3    H168408   3.379   5.903  14.113 -2.7315  0.4789  1.0097
15639TIP3    H268409   3.451   5.819  14.217  1.4059  1.3646 -0.9492
15640TIP3   OH268410   1.107   4.949  11.907  0.4300  0.1632  0.1872
15640TIP3    H168411   1.178   4.887  11.928  1.4475  1.6837  1.4752
15640TIP3    H268412   1.108   4.955  11.812 -1.0912 -3.3021 -0.2111
15641TIP3   OH268413   3.420   6.676   1.424 -0.1243 -0.5464 -0.3383
15641TIP3    H168414   3.469   6.757   1.441 -0.8997  0.0794 -0.9829
15641TIP3    H268415   3.484   6.616   1.386 -0.2717  1.0665 -3.4624
15642TIP3   OH268416   5.395   0.824   0.128 -0.6244 -0.2840  0.1489
15642TIP3    H168417   5.484   0.854   0.109  0.0131 -2.6058 -0.7740
15642TIP3    H268418   5.344   0.853   0.053 -0.1180 -1.0274 -0.5007
15643TIP3   OH268419   3.349   6.688  17.023 -0.0476 -0.5563  0.2620
15643TIP3    H168420   3.277   6.666  16.964 -1.5171 -2.1161  2.4649
15643TIP3    H268421   3.409   6.613  17.015  0.8192  0.2130 -0.7329
15644TIP3   OH268422   3.385   3.925   5.316 -0.6730 -0.1989  0.3630
15644TIP3    H168423   3.330   3.848   5.300 -1.1498 -0.0687  1.2643
15644TIP3    H268424   3.330   3.982   5.370 -1.1211  1.7150 -1.9358
15645TIP3   OH268425   4.182   3.245  15.649  0.0147 -0.6531  0.3674
15645TIP3    H168426   4.108   3.196  15.612  0.8936 -1.6977 -0.0512
15645TIP3    H268427   4.202   3.312  15.584  1.0424 -1.9818 -0.7564
15646TIP3   OH268428   5.604   3.732   0.717 -0.3930 -0.3048 -0.6235
15646TIP3    H168429   5.593   3.685   0.635 -0.2747 -2.0386  0.3137
15646TIP3    H268430   5.687   3.779   0.707 -0.4623 -0.3641 -1.5361
15647TIP3   OH268431   4.965   6.307  14.942  0.2247  0.4254  0.6092
15647TIP3    H168432   5.055   6.339  14.932  0.6216 -0.8451 -0.1710
15647TIP3    H268433   4.962   6.272  15.031  0.5903  0.2491  0.5557
15648TIP3   OH268434   6.016   6.516  11.869 -0.0336 -0.2843 -0.6314
15648TIP3    H168435   6.042   6.443  11.813 -0.6532 -1.2973  0.3580
15648TIP3    H268436   5.925   6.498  11.893  0.3747 -0.2134  1.1470
15649TIP3   OH268437   3.888   5.143  13.011  0.5864 -0.2974  0.1445
15649TIP3    H168438   3.854   5.098  12.934  2.0772  2.4635 -2.3543
15649TIP3    H268439   3.817   5.202  13.037  0.9078  0.4773 -0.6828
15650TIP3   OH268440   4.272   4.268  13.810 -0.3539  0.0379  0.0989
15650TIP3    H168441   4.181   4.295  13.795 -0.4905 -0.6771 -0.4672
15650TIP3    H268442   4.268   4.172  13.809  0.3683  0.0038  0.3239
15651TIP3   OH268443   2.681   3.049  17.569  0.6039  0.2285  0.1421
15651TIP3    H168444   2.683   3.079  17.660  2.2390  0.0913  0.1790
15651TIP3    H268445   2.692   2.954  17.575  0.7519  0.2234 -0.1861
15652TIP3   OH268446   5.689   4.818  16.889 -0.1402 -0.1838 -0.3722
15652TIP3    H168447   5.731   4.732  16.902 -2.0237 -1.3693 -1.6157
15652TIP3    H268448   5.599   4.804  16.918 -0.1361  1.8525  0.7913
15653TIP3   OH268449   0.433   4.757   1.944  0.5294  0.0216 -0.3435
15653TIP3    H168450   0.400   4.670   1.924 -0.1491  0.7661 -2.8699
15653TIP3    H268451   0.473   4.787   1.862  2.5495  1.3446  1.0178
15654TIP3   OH268452   1.893   6.225  11.292  0.1766  0.0023  0.2302
15654TIP3    H168453   1.846   6.252  11.371  0.6220  0.3813  0.3653
15654TIP3    H268454   1.947   6.301  11.269 -0.3328  0.0885 -0.7304
15655TIP3   OH268455   4.851   1.222  13.103 -0.1531 -0.3313  0.3053
15655TIP3    H168456   4.934   1.268  13.117  0.6248 -1.8146  0.6788
15655TIP3    H268457   4.805   1.232  13.187  0.2361 -0.6750  0.5631
15656TIP3   OH268458   5.028   0.162  11.859  0.2060  0.2380 -0.3763
15656TIP3    H168459   4.959   0.202  11.807 -0.0181  0.4720  0.0989
15656TIP3    H268460   4.990   0.152  11.946  0.0667 -1.5154 -0.6056
15657TIP3   OH268461   1.427   4.170  13.298  0.8270  1.0401  0.0558
15657TIP3    H168462   1.499   4.132  13.348  0.5596 -1.3222 -1.2201
15657TIP3    H268463   1.470   4.227  13.235  1.6347 -0.2693 -0.6307
15658TIP3   OH268464   5.402   3.201  17.341  0.0160  0.0351  0.3616
15658TIP3    H168465   5.466   3.266  17.370 -0.5853  0.2212  1.3056
15658TIP3    H268466   5.448   3.118  17.348  1.1060  0.3881 -1.7306
15659TIP3   OH268467   4.313   4.034   5.082 -0.2337 -0.2689  0.3228
15659TIP3    H168468   4.399   4.076   5.069 -0.0241 -1.1921 -1.4723
15659TIP3    H268469   4.317   3.955   5.029 -2.2006 -0.3467  0.2399
15660TIP3   OH268470   6.368   4.363  14.361  0.4730 -0.1002  0.0856
15660TIP3    H168471   6.401   4.426  14.297  1.9821  0.0742  0.9608
15660TIP3    H268472   6.420   4.381  14.440  0.8183 -2.3211  0.4146
15661TIP3   OH268473   3.330   5.738   5.117 -0.2355 -0.8131 -0.1241
15661TIP3    H168474   3.235   5.753   5.119 -0.1174 -0.0264  1.6263
15661TIP3    H268475   3.339   5.644   5.104 -1.2557 -0.9337 -0.0859
15662TIP3   OH268476   4.842   0.405   0.811 -0.4217  0.0785  0.6082
15662TIP3    H168477   4.907   0.475   0.818  1.2673 -1.4700  1.1397
15662TIP3    H268478   4.773   0.429   0.873 -0.5035  1.8588 -0.1263
15663TIP3   OH268479   4.601   6.511   0.565 -0.2301 -0.2815  0.3627
15663TIP3    H168480   4.534   6.473   0.508 -0.0629  0.2759 -0.2191
15663TIP3    H268481   4.683   6.501   0.516 -0.3901  2.2346 -0.5578
15664TIP3   OH268482   2.836   0.701  13.392  0.0108  0.2132 -0.2033
15664TIP3    H168483   2.882   0.661  13.318  1.0119  2.1613 -0.6994
15664TIP3    H268484   2.765   0.640  13.411 -0.1850 -0.4623 -2.6650
15665TIP3   OH268485   2.945   6.321   0.082 -0.3859 -0.3186  0.3196
15665TIP3    H168486   2.994   6.386   0.132  0.5024 -0.2235 -0.6354
15665TIP3    H268487   2.994   6.312   0.000 -1.1080 -1.3856 -0.0163
15666TIP3   OH268488   3.250   5.711  15.697  0.4611  0.0381 -0.1137
15666TIP3    H168489   3.241   5.738  15.605  1.8954  0.7375 -0.0692
15666TIP3    H268490   3.316   5.643  15.696 -0.6410 -1.0786  0.2372
15667TIP3   OH268491   6.134   1.923   6.917  0.0792 -0.0429 -0.6173
15667TIP3    H168492   6.069   1.861   6.950  1.9342 -1.4203  0.6353
15667TIP3    H268493   6.200   1.927   6.986  1.5828  0.8989 -2.0560
15668TIP3   OH268494   4.721   3.061  13.136 -0.1741 -0.3624  0.1403
15668TIP3    H168495   4.716   3.110  13.053  0.9785 -0.6030 -0.0817
15668TIP3    H268496   4.814   3.047  13.150 -0.3087  0.2864  1.8614
15669TIP3   OH268497   5.981   6.030   4.792 -0.4358 -0.2918  0.0686
15669TIP3    H168498   5.922   5.978   4.847 -1.2563  0.1884 -0.3297
15669TIP3    H268499   5.960   6.121   4.813 -0.2566 -0.1099 -0.5148
15670TIP3   OH268500   1.389   1.023   2.431 -0.0975 -0.1563 -0.1314
15670TIP3    H168501   1.441   1.099   2.459 -0.8574  0.3777 -0.1194
15670TIP3    H268502   1.443   0.978   2.366 -0.4496  1.5697 -1.7069
15671TIP3   OH268503   6.620   5.383   0.684  0.5150 -0.5059  0.5114
15671TIP3    H168504   6.567   5.442   0.737 -0.9996  0.4719 -1.9182
15671TIP3    H268505   6.558   5.322   0.645  1.4284 -0.6194 -0.8317
15672TIP3   OH268506   0.265   6.258  13.530  0.0286  0.3086  0.0627
15672TIP3    H168507   0.292   6.179  13.484  0.6454  0.3738  0.3006
15672TIP3    H268508   0.183   6.234  13.574  0.2655 -0.2324  0.2187
15673TIP3   OH268509   2.257   1.913   5.485 -0.3734  0.2526 -0.0311
15673TIP3    H168510   2.236   1.970   5.560 -2.3754  0.1236 -0.4365
15673TIP3    H268511   2.307   1.969   5.426  0.5132  0.5983  1.0064
15674TIP3   OH268512   5.354   3.185   0.943 -0.0940 -0.1053  0.9989
15674TIP3    H168513   5.286   3.138   0.895 -0.4457  0.7992  0.5893
15674TIP3    H268514   5.397   3.118   0.996  0.9710 -1.3399 -1.3006
15675TIP3   OH268515   5.740   5.385   5.030 -0.1009  0.0220 -0.1774
15675TIP3    H168516   5.746   5.290   5.019 -0.2207 -0.0602  0.4417
15675TIP3    H268517   5.823   5.408   5.073 -0.0169  0.2164 -0.4433
15676TIP3   OH268518   4.985   0.218  14.024  0.1150  0.4362 -0.2423
15676TIP3    H168519   5.057   0.276  13.999  0.3333  0.7427  1.0356
15676TIP3    H268520   5.001   0.199  14.116  0.1783 -1.8627 -0.6812
15677TIP3   OH268521   2.008   6.557  17.036  0.3449  0.2573  0.5426
15677TIP3    H168522   1.979   6.547  16.945  1.3543  1.6859  0.0288
15677TIP3    H268523   2.088   6.505  17.041  0.2123  0.0640  0.6548
15678TIP3   OH268524   1.068   3.069  13.699  0.1455  0.3705  0.0250
15678TIP3    H168525   1.001   3.002  13.684 -0.3681  0.5385  1.4170
15678TIP3    H268526   1.144   3.019  13.729 -0.1069  0.3439  0.6590
15679TIP3   OH268527   4.810   0.311   5.371  0.6546 -0.7189  0.0281
15679TIP3    H168528   4.746   0.320   5.300  0.4204 -0.1630  0.3028
15679TIP3    H268529   4.790   0.226   5.410  0.5985 -0.9013 -0.3907
15680TIP3   OH268530   0.818   0.373   5.940  0.1938  0.0710 -0.4456
15680TIP3    H168531   0.809   0.415   5.855  1.1511  0.1963 -0.5010
15680TIP3    H268532   0.778   0.286   5.928 -1.0072  0.6222 -0.5760
15681TIP3   OH268533   2.365   6.145  14.610  0.0828  0.3204 -0.1979
15681TIP3    H168534   2.407   6.231  14.608  2.0812 -0.5919  0.1146
15681TIP3    H268535   2.344   6.131  14.702  0.2717  0.2370 -0.1679
15682TIP3   OH268536   4.337   3.056  13.911 -0.4948  0.3448  0.4837
15682TIP3    H168537   4.428   3.047  13.882 -0.4842 -0.5660  0.7479
15682TIP3    H268538   4.329   2.993  13.984 -1.3653  0.3172  0.3765
15683TIP3   OH268539   0.212   3.525   3.290  0.0790 -0.1818 -0.2490
15683TIP3    H168540   0.227   3.575   3.210  1.5647  2.4901  1.5076
15683TIP3    H268541   0.119   3.538   3.310  0.2064  1.0676 -0.3926
15684TIP3   OH268542   2.541   0.972  17.337  0.8424  0.0916 -0.3859
15684TIP3    H168543   2.496   1.012  17.262 -1.4305 -2.0837 -0.3238
15684TIP3    H268544   2.495   1.007  17.414 -1.2185 -2.3987 -0.3314
15685TIP3   OH268545   0.338   5.139  12.039 -0.1205  0.2003 -0.0577
15685TIP3    H168546   0.278   5.065  12.045  0.8161 -0.7178 -1.4061
15685TIP3    H268547   0.411   5.106  11.986  0.9646  1.6754  0.4620
15686TIP3   OH268548   3.792   0.883   1.153  0.2753  0.4382  0.1274
15686TIP3    H168549   3.728   0.890   1.224  1.1642  0.4576  0.9439
15686TIP3    H268550   3.857   0.950   1.172  1.6903 -0.9876  0.5251
15687TIP3   OH268551   1.425   0.551  11.881 -0.3338 -0.2881 -0.1666
15687TIP3    H168552   1.340   0.572  11.842 -0.3996 -1.8994 -0.9709
15687TIP3    H268553   1.479   0.524  11.808  0.5232 -0.3917  0.4876
15688TIP3   OH268554   6.057   3.685   5.696 -0.1086 -0.2280  0.0120
15688TIP3    H168555   6.037   3.592   5.683 -1.4315 -0.3061  2.1133
15688TIP3    H268556   5.971   3.727   5.706  0.3772  1.5119 -2.2516
15689TIP3   OH268557   3.550   4.035   5.988  0.2024  0.1030 -0.0605
15689TIP3    H168558   3.610   4.063   6.057 -0.1045  3.8075 -1.0524
15689TIP3    H268559   3.463   4.041   6.027  0.1779 -0.1610 -0.0758
15690TIP3   OH268560   1.090   5.903   1.376  0.3769 -0.0097 -0.0449
15690TIP3    H168561   1.146   5.957   1.433  1.5980 -0.4609 -0.7749
15690TIP3    H268562   1.024   5.964   1.343 -0.1283  0.3444  1.5150
15691TIP3   OH268563   0.412   4.198   3.507 -0.4699  0.0837 -0.2412
15691TIP3    H168564   0.426   4.139   3.433 -1.0402 -2.0165  1.2276
15691TIP3    H268565   0.322   4.228   3.497 -0.0063  1.2488 -1.2991
15692TIP3   OH268566   0.146   3.685   5.314  0.4182  0.2639  0.1766
15692TIP3    H168567   0.079   3.669   5.249 -0.6955  3.1013  0.4636
15692TIP3    H268568   0.107   3.749   5.374  1.9078 -1.1278  2.8133
15693TIP3   OH268569   4.351   0.130  12.447  0.5214 -0.1458 -0.0796
15693TIP3    H168570   4.426   0.165  12.495 -1.0921 -0.4161  2.9218
15693TIP3    H268571   4.316   0.204  12.398  0.3137  1.1573  1.8998
15694TIP3   OH268572   1.878   1.966  17.442  0.3773 -0.1223  0.6267
15694TIP3    H168573   1.964   2.008  17.434  0.3113  0.2101  1.4788
15694TIP3    H268574   1.817   2.039  17.446  0.0762 -0.3547  0.2148
15695TIP3   OH268575   0.706   2.404  12.602  0.0443 -0.3310 -0.0033
15695TIP3    H168576   0.679   2.495  12.610  0.8276 -0.0318 -0.6403
15695TIP3    H268577   0.668   2.361  12.678 -2.4642 -0.0115 -0.9534
15696TIP3   OH268578   0.907   5.102   4.408  0.0295  0.0320 -0.3659
15696TIP3    H168579   0.860   5.076   4.488 -1.1199  0.4336 -0.8796
15696TIP3    H268580   0.883   5.035   4.344 -0.3578  0.5746 -0.8021
15697TIP3   OH268581   3.664   2.589   4.712 -0.0394 -0.2360 -0.4284
15697TIP3    H168582   3.730   2.621   4.774 -0.5819  1.2505 -0.5655
15697TIP3    H268583   3.713   2.573   4.631  0.7054 -2.3704  0.3831
15698TIP3   OH268584   1.855   1.922  16.304  0.4047 -0.0681  0.0029
15698TIP3    H168585   1.811   1.909  16.220  0.2637 -3.0725  0.4107
15698TIP3    H268586   1.946   1.941  16.281  0.2642 -0.3802 -0.8547
15699TIP3   OH268587   2.130   2.505  13.776  0.8754  0.0429 -0.5710
15699TIP3    H168588   2.202   2.484  13.716  0.2545  1.8223 -2.0540
15699TIP3    H268589   2.142   2.598  13.797 -1.5668  0.7401 -1.8134
15700TIP3   OH268590   4.281   3.936   2.161 -0.6461  0.6889 -0.2965
15700TIP3    H168591   4.302   3.886   2.239 -0.4013  0.6986 -0.3566
15700TIP3    H268592   4.348   4.004   2.157 -0.8421  0.8840 -0.3406
15701TIP3   OH268593   4.289   4.603   3.833  0.0515  0.1468  0.2611
15701TIP3    H168594   4.282   4.686   3.881  0.9817  0.5868 -0.3356
15701TIP3    H268595   4.200   4.568   3.833  0.1789 -0.4087  3.1936
15702TIP3   OH268596   1.693   1.241  17.632  0.5493  0.3335 -0.0440
15702TIP3    H168597   1.605   1.272  17.656 -0.0671 -1.1954 -0.1449
15702TIP3    H268598   1.740   1.320  17.606 -1.3522  1.0324 -1.6933
15703TIP3   OH268599   2.413   4.647   1.064 -0.4601 -0.0461 -0.2991
15703TIP3    H168600   2.407   4.622   1.156 -0.2275 -1.0397 -0.5397
15703TIP3    H268601   2.497   4.692   1.057  0.1376 -1.1231 -0.2708
15704TIP3   OH268602   2.673   2.266   4.367  0.1491  0.2079 -0.1273
15704TIP3    H168603   2.635   2.311   4.443  1.4736  0.1967  0.5554
15704TIP3    H268604   2.767   2.283   4.373  0.3772 -0.5337 -1.2828
15705TIP3   OH268605   4.002   6.139   3.596 -0.2995  0.2690  0.0846
15705TIP3    H168606   3.907   6.132   3.585 -0.4748 -0.6900  1.8172
15705TIP3    H268607   4.014   6.167   3.687  1.1028 -1.0445  0.3439
15706TIP3   OH268608   5.569   6.248   0.150  0.6860  0.6067  0.0481
15706TIP3    H168609   5.607   6.315   0.093  0.2361 -1.0073 -2.2609
15706TIP3    H268610   5.533   6.182   0.090  2.3830 -2.4719  2.1374
15707TIP3   OH268611   3.566   5.891  14.841 -0.3310 -0.0382  0.0627
15707TIP3    H168612   3.620   5.933  14.908  0.0602 -2.7467  1.6024
15707TIP3    H268613   3.629   5.843  14.787 -0.7738  1.0800 -1.4996
15708TIP3   OH268614   2.689   4.485  13.852 -0.1220  0.0215  0.0325
15708TIP3    H168615   2.604   4.448  13.877 -0.0113 -0.7715 -0.7156
15708TIP3    H268616   2.701   4.560  13.910 -1.0800 -0.1921  0.5196
15709TIP3   OH268617   3.276   3.762   3.573 -0.1702 -0.5718  0.4057
15709TIP3    H168618   3.322   3.695   3.623  1.8619 -0.4002 -1.0553
15709TIP3    H268619   3.193   3.722   3.549  0.1804 -1.8331  1.2073
15710TIP3   OH268620   0.116   3.517  12.695 -0.6313 -0.1323 -1.4668
15710TIP3    H168621   0.040   3.528  12.638 -0.1956  0.7608 -1.8968
15710TIP3    H268622   0.184   3.571  12.655 -0.7401  1.7472  0.6775
15711TIP3   OH268623   0.775   3.451  12.038  0.4696  0.6025  0.4803
15711TIP3    H168624   0.787   3.380  12.101  0.4703  0.2444  0.0821
15711TIP3    H268625   0.754   3.407  11.956  0.5548  1.0610  0.2085
15712TIP3   OH268626   0.396   1.502   1.758 -0.2860 -0.4914  0.1676
15712TIP3    H168627   0.330   1.535   1.819  0.5780  1.6009  0.0559
15712TIP3    H268628   0.479   1.515   1.804  0.1557 -2.2420 -0.0566
15713TIP3   OH268629   0.109   2.680  16.747 -0.5449 -0.3652 -0.3426
15713TIP3    H168630   0.098   2.752  16.809 -1.7170 -0.7555 -0.0778
15713TIP3    H268631   0.029   2.628  16.755  1.4614 -3.4480  1.6625
15714TIP3   OH268632   0.440   3.537   4.470 -0.0960 -0.3589 -0.1615
15714TIP3    H168633   0.472   3.609   4.525 -0.6312 -0.2932  0.0724
15714TIP3    H268634   0.351   3.521   4.501  0.0675 -1.2267 -0.1085
15715TIP3   OH268635   2.696   1.945  16.116 -0.6136  0.1446  0.0596
15715TIP3    H168636   2.658   1.861  16.090  0.5382  0.2665 -2.2300
15715TIP3    H268637   2.760   1.922  16.184 -0.4087 -0.8369 -0.4413
15716TIP3   OH268638   1.670   2.951  17.238 -0.0967  0.3447  0.6319
15716TIP3    H168639   1.659   2.991  17.152 -0.0049  1.3204  1.0644
15716TIP3    H268640   1.602   2.883  17.241  1.3159 -1.2617 -1.0742
15717TIP3   OH268641   1.349   0.590  14.232  0.1478  0.7433  0.7251
15717TIP3    H168642   1.328   0.680  14.205  0.0475  0.7294  0.7561
15717TIP3    H268643   1.324   0.587  14.324 -3.1428 -0.3263 -0.0641
15718TIP3   OH268644   3.924   0.745  10.817  0.3689 -0.4578  0.2653
15718TIP3    H168645   3.945   0.839  10.812  0.0133 -0.2886  1.7553
15718TIP3    H268646   3.856   0.739  10.884  0.0121 -1.7378 -0.1866
15719TIP3   OH268647   6.088   2.526  13.589  0.2818  0.4001 -0.0149
15719TIP3    H168648   6.044   2.548  13.506  0.0220 -0.6814 -0.1863
15719TIP3    H268649   6.047   2.583  13.654 -0.3530  0.4259 -0.4285
15720TIP3   OH268650   1.836   5.145   3.449  0.1834 -0.0647  0.1184
15720TIP3    H168651   1.774   5.090   3.497  0.0880  0.2132  0.3113
15720TIP3    H268652   1.837   5.228   3.496  0.0742  0.2193 -0.3750
15721TIP3   OH268653   2.048   0.092  14.651  0.8403  0.9570 -0.4678
15721TIP3    H168654   2.090   0.015  14.613 -2.4233 -0.4359 -1.5996
15721TIP3    H268655   2.066   0.163  14.589  2.0985  0.6112 -0.5172
15722TIP3   OH268656   6.387   0.449  15.383  0.6968 -0.0107 -0.0035
15722TIP3    H168657   6.316   0.460  15.320  0.0639 -0.2039  0.6640
15722TIP3    H268658   6.370   0.363  15.423  0.8913  0.2636  0.6725
15723TIP3   OH268659   5.143   0.955  15.474 -0.0074 -0.3479  0.0072
15723TIP3    H168660   5.068   0.897  15.483 -0.2307 -0.1912 -0.7865
15723TIP3    H268661   5.212   0.914  15.526 -0.6653 -0.4466  0.8164
15724TIP3   OH268662   1.216   3.775  11.662 -0.0724 -0.0947 -0.2308
15724TIP3    H168663   1.161   3.729  11.598 -2.3437  0.8884  0.8904
15724TIP3    H268664   1.305   3.743  11.644 -0.9610 -1.7814 -2.1457
15725TIP3   OH268665   3.218   1.316   1.654  0.0576 -0.3753  0.0586
15725TIP3    H168666   3.155   1.256   1.695  0.8693 -1.4412 -0.1945
15725TIP3    H268667   3.215   1.394   1.709 -0.4867 -0.9360  0.8626
15726TIP3   OH268668   4.029   4.976   6.603 -0.9010  0.4859 -0.1271
15726TIP3    H168669   4.074   5.056   6.631 -0.5284  0.1778  0.1678
15726TIP3    H268670   3.936   4.996   6.611 -0.8178  0.3544  1.5359
15727TIP3   OH268671   0.894   0.239   3.564 -0.5053 -0.5050 -0.0744
15727TIP3    H168672   0.958   0.220   3.495 -1.3938 -0.7726 -0.8377
15727TIP3    H268673   0.824   0.176   3.550 -0.9735 -0.1761  0.7197
15728TIP3   OH268674   0.773   5.324   0.193 -0.3940  0.0285  0.2082
15728TIP3    H168675   0.843   5.378   0.229 -0.6241  0.0377  0.6423
15728TIP3    H268676   0.750   5.264   0.264 -0.5005 -0.2907 -0.0941
15729TIP3   OH268677   2.354   3.239   4.768 -0.2929  0.0117 -0.2044
15729TIP3    H168678   2.386   3.194   4.689  0.9129 -1.1256  0.8881
15729TIP3    H268679   2.278   3.188   4.795 -0.6110  0.3087 -0.5209
15730TIP3   OH268680   2.652   4.188   2.765  0.3854 -0.0569  0.1967
15730TIP3    H168681   2.618   4.210   2.678 -0.4558 -2.2309 -0.0841
15730TIP3    H268682   2.600   4.242   2.825 -0.8590 -0.4536 -0.4960
15731TIP3   OH268683   1.574   1.280  13.215  0.5864 -0.1125 -0.0836
15731TIP3    H168684   1.618   1.323  13.142  0.0968  0.4894 -0.0306
15731TIP3    H268685   1.489   1.253  13.180  0.9244 -1.1654 -0.1516
15732TIP3   OH268686   5.113   4.700  13.979  0.2891 -0.5292 -0.2516
15732TIP3    H168687   5.146   4.763  14.043  0.1895  0.3278 -1.0198
15732TIP3    H268688   5.118   4.746  13.896 -1.4255 -0.9033 -0.6059
15733TIP3   OH268689   2.423   6.601   6.475  0.2734  0.0009  0.3376
15733TIP3    H168690   2.493   6.572   6.533 -0.4488 -0.0804  1.1856
15733TIP3    H268691   2.465   6.665   6.417  0.8659  0.5286  1.3311
15734TIP3   OH268692   0.955   4.112  12.129  0.7945 -0.0108  1.1172
15734TIP3    H168693   0.957   4.141  12.038  0.5718  1.9256  1.6832
15734TIP3    H268694   0.880   4.053  12.134 -0.4888  1.5016  0.4609
15735TIP3   OH268695   0.738   5.052  13.642 -0.5117  0.3103 -0.3321
15735TIP3    H168696   0.761   5.063  13.734 -0.3511  0.0891 -0.3427
15735TIP3    H268697   0.812   5.088  13.594  0.1957 -1.1220 -0.3636
15736TIP3   OH268698   6.502   1.410  13.028 -0.4541 -0.1898  0.4442
15736TIP3    H168699   6.586   1.423  13.072  0.8073  1.6280 -2.2506
15736TIP3    H268700   6.523   1.355  12.953 -1.4009  1.2287 -0.9027
15737TIP3   OH268701   6.538   0.209   5.964  0.3777  0.1011  0.3802
15737TIP3    H168702   6.552   0.278   5.898 -0.5407 -1.0712 -1.0821
15737TIP3    H268703   6.444   0.212   5.982 -0.3785 -2.8137 -2.1760
15738TIP3   OH268704   3.786   0.966   3.923  1.0387 -0.1740 -0.0061
15738TIP3    H168705   3.853   1.013   3.873  0.4335 -0.5275 -1.2023
15738TIP3    H268706   3.753   1.031   3.985  1.1434  0.6008 -0.7267
15739TIP3   OH268707   3.705   3.641  13.826  0.1672  0.1918  0.0531
15739TIP3    H168708   3.624   3.590  13.823  0.1790  0.1826 -0.1507
15739TIP3    H268709   3.716   3.672  13.736 -0.6175  1.7822  0.4626
15740TIP3   OH268710   1.030   4.598   5.370 -0.5034 -0.5786  0.0665
15740TIP3    H168711   1.030   4.592   5.275 -2.3642 -0.3764  0.0132
15740TIP3    H268712   1.061   4.513   5.400  0.9545 -0.3436 -0.6945
15741TIP3   OH268713   1.736   5.989   5.258  0.0068  0.5980  0.6496
15741TIP3    H168714   1.758   6.068   5.208  1.8503  0.8559  1.7857
15741TIP3    H268715   1.689   6.021   5.335 -1.6030  0.3152 -0.1706
15742TIP3   OH268716   4.421   2.316   0.932  0.6083  0.2899 -0.0453
15742TIP3    H168717   4.378   2.284   1.011 -0.1237 -0.8784 -0.8932
15742TIP3    H268718   4.509   2.279   0.935  0.8516  0.9009  0.6029
15743TIP3   OH268719   5.433   4.222  14.834 -0.1777 -0.0589  0.2941
15743TIP3    H168720   5.410   4.308  14.869 -0.5165  0.3305 -0.8553
15743TIP3    H268721   5.354   4.169  14.846  0.4440 -0.6606  2.2462
15744TIP3   OH268722   3.808   3.538   1.898 -1.1966 -0.0745 -0.0704
15744TIP3    H168723   3.758   3.477   1.845 -0.7026 -0.8034  0.2917
15744TIP3    H268724   3.745   3.573   1.961 -1.2432 -1.0145  0.4079
15745TIP3   OH268725   3.750   1.025   1.407  0.0052 -0.3135 -0.3555
15745TIP3    H168726   3.750   1.064   1.494  2.0248  0.5191 -0.6626
15745TIP3    H268727   3.721   1.095   1.349 -1.4906 -0.9143 -0.3552
15746TIP3   OH268728   0.671   2.474   5.758  0.0533 -0.3051  0.1064
15746TIP3    H168729   0.699   2.394   5.803 -1.4330 -0.4562  0.8339
15746TIP3    H268730   0.748   2.531   5.762  0.5002 -0.9444  1.3788
15747TIP3   OH268731   6.144   1.160   5.078 -0.5429 -0.0699 -0.0508
15747TIP3    H168732   6.111   1.151   5.168  0.8290 -0.1176  0.4670
15747TIP3    H268733   6.168   1.072   5.052 -1.0050 -0.0675 -0.5142
15748TIP3   OH268734   1.377   2.185   2.063  0.3502 -0.2827 -0.2006
15748TIP3    H168735   1.433   2.158   2.135 -0.7718  1.1436  1.2908
15748TIP3    H268736   1.321   2.110   2.046 -1.0049  0.1097  2.1298
15749TIP3   OH268737   6.630   1.386  14.498  0.1130  0.4032  0.2832
15749TIP3    H168738   6.673   1.431  14.571  3.8441 -0.1466 -1.3126
15749TIP3    H268739   6.616   1.454  14.432  1.0348  0.1564 -0.1873
15750TIP3   OH268740   1.222   1.901   0.733 -0.1323  0.6017  0.1147
15750TIP3    H168741   1.185   1.878   0.818  1.6180  0.3213  0.8536
15750TIP3    H268742   1.217   1.821   0.682  0.3077  0.3014  0.5361
15751TIP3   OH268743   1.612   6.498   2.977 -1.0947  0.0531 -0.2244
15751TIP3    H168744   1.571   6.565   3.032 -0.2297  0.9267 -0.6222
15751TIP3    H268745   1.686   6.543   2.935 -1.2005 -0.8290 -1.4136
15752TIP3   OH268746   3.873   3.863  17.529  0.3241 -0.7470 -0.5757
15752TIP3    H168747   3.881   3.840  17.622 -0.7012 -1.8618 -0.7465
15752TIP3    H268748   3.793   3.915  17.524  0.2089 -0.9550 -0.8845
15753TIP3   OH268749   0.851   0.984   3.014  0.4949  0.6907  0.3740
15753TIP3    H168750   0.933   1.033   3.004 -0.2281  1.8038 -0.2742
15753TIP3    H268751   0.786   1.050   3.038 -0.6701  0.2276 -1.3040
15754TIP3   OH268752   2.079   6.105  15.784 -0.3493  0.4346 -0.1860
15754TIP3    H168753   2.042   6.159  15.854 -0.5173  0.1166 -0.0244
15754TIP3    H268754   2.145   6.160  15.743 -1.4337  1.2478 -0.8866
15755TIP3   OH268755   5.563   1.575   5.433  0.0228 -0.0518  0.1442
15755TIP3    H168756   5.487   1.539   5.479 -0.5460 -0.6863 -1.2590
15755TIP3    H268757   5.532   1.655   5.392  0.4726  0.3871  0.6313
15756TIP3   OH268758   3.029   2.976  11.324 -0.6622  0.2356 -0.3031
15756TIP3    H168759   3.057   2.990  11.234 -1.8893  0.6916 -0.6318
15756TIP3    H268760   2.939   2.944  11.317  0.3347 -3.2263  0.6083
15757TIP3   OH268761   5.000   0.588  11.072  0.3761  0.6037  0.1654
15757TIP3    H168762   4.961   0.674  11.056  0.7911  0.5636 -1.1501
15757TIP3    H268763   4.925   0.528  11.072  0.0542  0.9742  1.3597
15758TIP3   OH268764   4.980   4.406  14.968 -0.0790  0.2519  0.3183
15758TIP3    H168765   5.037   4.481  14.950 -1.5244  1.7241  1.5250
15758TIP3    H268766   4.973   4.405  15.064  0.0128 -1.5470  0.3394
15759TIP3   OH268767   4.359   5.689   6.035 -0.2683  0.0452 -0.5154
15759TIP3    H168768   4.392   5.710   6.122 -1.2578  3.7383 -0.8768
15759TIP3    H268769   4.326   5.599   6.043  2.3633 -0.8534  1.9994
15760TIP3   OH268770   2.153   6.163   5.583  0.0964 -0.5348 -0.1750
15760TIP3    H168771   2.163   6.221   5.658  1.6347 -1.3962  0.3310
15760TIP3    H268772   2.084   6.101   5.610  2.1382 -2.2373  1.5500
15761TIP3   OH268773   5.340   4.913   0.147  0.0282  0.2804 -0.4200
15761TIP3    H168774   5.370   4.934   0.059  0.6517  1.2743  0.0093
15761TIP3    H268775   5.375   4.825   0.164  1.9066  1.0033 -0.3158
15762TIP3   OH268776   6.513   3.397   5.989  0.5198  0.0150  0.3037
15762TIP3    H168777   6.452   3.360   5.925  0.5320  1.4653 -0.5956
15762TIP3    H268778   6.457   3.427   6.060  0.2388  0.7096 -0.2010
15763TIP3   OH268779   5.867   1.372   0.261 -0.3230 -0.1735 -0.2407
15763TIP3    H168780   5.882   1.282   0.230  0.4121 -0.2151  0.2147
15763TIP3    H268781   5.869   1.365   0.356 -0.7960  0.2491 -0.1966
15764TIP3   OH268782   4.233   6.423  15.620  0.2212 -0.7010  0.3726
15764TIP3    H168783   4.174   6.473  15.678 -0.8567 -0.6700 -0.7142
15764TIP3    H268784   4.204   6.333  15.628 -1.2298 -0.4624 -1.5375
15765TIP3   OH268785   6.139   3.248  16.756  0.3179 -0.0582 -0.4163
15765TIP3    H168786   6.107   3.283  16.673 -1.8093  0.3021  0.4759
15765TIP3    H268787   6.116   3.314  16.821  0.0097 -1.2370  0.7340
15766TIP3   OH268788   1.831   6.702   6.340 -0.2827 -0.3014  0.2826
15766TIP3    H168789   1.776   6.674   6.413  0.7828  0.1697  1.3069
15766TIP3    H268790   1.906   6.643   6.343 -0.7789 -1.0400 -1.1932
15767TIP3   OH268791   5.508   2.585  11.421 -0.6884 -0.2979  0.5362
15767TIP3    H168792   5.459   2.598  11.340 -0.7342  0.2192  0.6390
15767TIP3    H268793   5.461   2.517  11.468 -0.7853 -0.4438  0.2254
15768TIP3   OH268794   3.939   6.553   4.378 -0.4619  0.2978  0.4074
15768TIP3    H168795   3.981   6.568   4.463  0.7615  2.1400 -0.4573
15768TIP3    H268796   4.003   6.501   4.329 -1.6451 -1.7662  0.9375
15769TIP3   OH268797   4.724   0.824   1.862  0.7408 -0.1650 -0.0278
15769TIP3    H168798   4.744   0.857   1.950 -0.1976 -0.3369  0.2631
15769TIP3    H268799   4.629   0.820   1.860  0.8006 -1.8498 -0.4342
15770TIP3   OH268800   5.131   2.570   4.795  0.5806 -1.0444  0.0706
15770TIP3    H168801   5.054   2.514   4.804 -1.0290  0.9117 -0.5591
15770TIP3    H268802   5.139   2.613   4.880  0.8898 -1.1272  0.0839
15771TIP3   OH268803   0.118   0.285  11.711 -0.2884 -0.0694  0.2582
15771TIP3    H168804   0.138   0.237  11.630  1.8074  0.8931  0.1466
15771TIP3    H268805   0.182   0.356  11.713 -0.9092  0.4843  2.3074
15772TIP3   OH268806   5.233   6.503  17.404 -0.3621  0.2274 -0.3301
15772TIP3    H168807   5.201   6.549  17.481 -0.8709 -0.1171 -0.3309
15772TIP3    H268808   5.161   6.446  17.378  0.2141 -0.4966 -0.3960
15773TIP3   OH268809   4.047   1.545   3.928 -0.4609 -0.2083  0.9188
15773TIP3    H168810   4.076   1.606   3.860 -0.0088 -0.4300  0.9133
15773TIP3    H268811   4.122   1.535   3.985 -0.6569 -0.4720  1.1333
15774TIP3   OH268812   0.021   5.358   4.181 -0.5072  0.0645 -0.1987
15774TIP3    H168813  -0.069   5.386   4.162 -0.4506  1.0535  0.8798
15774TIP3    H268814   0.023   5.347   4.276  0.7058  0.7718 -0.1237
15775TIP3   OH268815   6.478   2.275   5.990 -0.1569  0.8373  0.1375
15775TIP3    H168816   6.473   2.370   5.977 -1.2523  0.9914  1.4847
15775TIP3    H268817   6.490   2.265   6.084 -0.7438 -0.3858  0.0910
15776TIP3   OH268818   0.964   5.893  16.444 -0.3649  0.0751  0.3700
15776TIP3    H168819   1.017   5.938  16.378 -1.1535 -1.1680 -1.2044
15776TIP3    H268820   1.006   5.807  16.453 -1.0255 -0.2392  0.5114
15777TIP3   OH268821   2.053   3.513  13.191 -0.0415 -0.2218  0.6071
15777TIP3    H168822   2.048   3.502  13.096 -0.2638  0.1344  0.5753
15777TIP3    H268823   2.120   3.451  13.219 -0.0070 -0.3599  0.2224
15778TIP3   OH268824   5.319   1.712  10.830  0.1968 -0.3111 -0.1331
15778TIP3    H168825   5.264   1.791  10.834  0.3717 -0.2333  1.1872
15778TIP3    H268826   5.257   1.640  10.843  0.0506 -0.4055 -1.2492
15779TIP3   OH268827   1.939   3.185   2.322  0.2045 -0.2813  0.0777
15779TIP3    H168828   1.990   3.123   2.270  2.4822  0.9803  0.6694
15779TIP3    H268829   1.888   3.233   2.258  0.7459 -0.7196 -0.6991
15780TIP3   OH268830   4.857   2.421  12.318  0.1448 -0.1377  0.0081
15780TIP3    H168831   4.937   2.471  12.336  0.4451 -0.7407  0.4020
15780TIP3    H268832   4.803   2.480  12.266 -0.2399  1.2219  1.8535
15781TIP3   OH268833   6.586   0.413   2.541  0.0380  0.1533 -0.2449
15781TIP3    H168834   6.495   0.417   2.511 -0.9580 -0.6422  2.4110
15781TIP3    H268835   6.589   0.473   2.615  1.7137  0.1554 -0.2731
15782TIP3   OH268836   3.866   1.581  14.620  0.0556  0.4466  0.1187
15782TIP3    H168837   3.940   1.587  14.560  0.3173 -2.7550 -0.0114
15782TIP3    H268838   3.900   1.611  14.704  0.5891  1.8833 -0.5742
15783TIP3   OH268839   6.420   3.054  15.124  0.5443  0.1887  0.0828
15783TIP3    H168840   6.372   3.001  15.060  0.5398  1.2437 -0.8040
15783TIP3    H268841   6.415   3.143  15.090 -1.0276  1.1130  2.4650
15784TIP3   OH268842   1.579   2.650  17.289 -0.0881 -0.1198  0.2937
15784TIP3    H168843   1.626   2.616  17.365 -0.8962 -0.8212  0.4934
15784TIP3    H268844   1.489   2.662  17.319 -0.2125  0.4804 -0.2941
15785TIP3   OH268845   5.794   0.026   0.188 -0.0331  0.0144 -0.1070
15785TIP3    H168846   5.789   0.122   0.184  0.6267  0.0464 -0.3353
15785TIP3    H268847   5.728   0.001   0.252 -0.2595  0.6216 -0.1008
15786TIP3   OH268848   1.718   3.010   5.077 -0.1537  0.3889  0.6939
15786TIP3    H168849   1.697   2.968   4.994 -1.2587 -0.6077  1.4297
15786TIP3    H268850   1.635   3.009   5.126  0.3531  1.3916  1.6134
15787TIP3   OH268851   2.649   4.091  15.641 -0.0646 -0.5705 -0.0042
15787TIP3    H168852   2.555   4.087  15.657  0.1671 -1.8253  1.2455
15787TIP3    H268853   2.680   4.159  15.701  0.0036 -1.1215  0.5902
15788TIP3   OH268854   6.130   5.297   6.810  0.0057 -0.0140 -0.4511
15788TIP3    H168855   6.212   5.346   6.799  0.6860 -0.8890  0.4451
15788TIP3    H268856   6.063   5.351   6.769  0.9293  1.0571 -0.5853
15789TIP3   OH268857   2.699   5.677   2.757 -0.5660  0.2426 -0.0249
15789TIP3    H168858   2.769   5.672   2.691 -0.5277 -0.9997  0.1012
15789TIP3    H268859   2.620   5.699   2.706 -0.2285  0.9781 -0.2511
15790TIP3   OH268860   5.482   3.564  11.906 -0.1504  0.5112 -0.1620
15790TIP3    H168861   5.450   3.490  11.958 -0.9936  1.0935  0.1673
15790TIP3    H268862   5.577   3.552  11.904 -0.3174 -1.0241 -0.7916
15791TIP3   OH268863   1.903   5.859   2.436 -0.0301  0.1247 -0.0024
15791TIP3    H168864   1.884   5.775   2.394  0.7544  0.7101 -1.5978
15791TIP3    H268865   1.991   5.882   2.406  0.3514  0.8531  1.5586
15792TIP3   OH268866   5.891   3.111  11.837  0.2002  0.1481 -0.0360
15792TIP3    H168867   5.947   3.117  11.914 -0.1448 -2.0541  0.4744
15792TIP3    H268868   5.952   3.103  11.763  0.5286  2.1133 -0.0215
15793TIP3   OH268869   0.035   4.053  17.248 -0.2447 -0.3661 -0.1472
15793TIP3    H168870   0.034   4.078  17.156  2.6123  0.1931 -0.1197
15793TIP3    H268871  -0.012   3.970  17.252 -2.8299  0.9010 -1.5861
15794TIP3   OH268872   6.531   5.433   2.702  0.2899 -0.1399  0.5433
15794TIP3    H168873   6.612   5.436   2.753 -0.6423  2.0749  2.0395
15794TIP3    H268874   6.532   5.515   2.652 -0.2964 -0.8507 -0.6647
15795TIP3   OH268875   5.801   5.928   3.562  0.5418  0.0716  0.1767
15795TIP3    H168876   5.845   6.011   3.580  1.1207 -0.2165  0.1110
15795TIP3    H268877   5.795   5.885   3.647  1.9984 -0.6646 -0.0622
15796TIP3   OH268878   1.193   3.298   5.526 -0.2434 -0.0481 -0.4122
15796TIP3    H168879   1.110   3.344   5.515 -0.4049 -0.5853 -1.5167
15796TIP3    H268880   1.216   3.312   5.618 -1.2920  0.5392 -0.2265
15797TIP3   OH268881   0.905   5.558  13.265 -0.4479  0.2945  0.2117
15797TIP3    H168882   0.978   5.498  13.278 -1.0771 -1.5048 -3.3065
15797TIP3    H268883   0.943   5.631  13.215 -0.6941  0.1851 -0.1417
15798TIP3   OH268884   1.249   3.697   1.365  0.5133  0.5113  0.0731
15798TIP3    H168885   1.295   3.651   1.436 -3.5075  0.4876  2.9790
15798TIP3    H268886   1.276   3.788   1.374 -0.7955  0.7298  2.5805
15799TIP3   OH268887   1.183   3.752   5.380  0.2825  0.4676  0.0695
15799TIP3    H168888   1.101   3.799   5.369 -1.4755 -1.9138  1.8146
15799TIP3    H268889   1.211   3.772   5.469 -0.3852 -1.4694  0.7698
15800TIP3   OH268890   3.592   2.126  13.647 -0.6337  0.1777  0.1508
15800TIP3    H168891   3.519   2.084  13.602 -0.4846 -2.2243  1.8931
15800TIP3    H268892   3.560   2.142  13.736  0.5035  0.3801  0.5499
15801TIP3   OH268893   2.566   0.095   6.340 -0.2257  0.1748 -0.3708
15801TIP3    H168894   2.523   0.151   6.275 -0.0227  0.4788 -0.2436
15801TIP3    H268895   2.651   0.076   6.301 -0.7548 -1.0634 -0.9800
15802TIP3   OH268896   6.701   2.242   5.808  0.0278 -0.0644 -0.1377
15802TIP3    H168897   6.665   2.285   5.885 -1.2732 -1.0491 -0.1609
15802TIP3    H268898   6.628   2.193   5.771  0.8505 -0.3256 -1.4991
15803TIP3   OH268899   6.696   3.632   5.100  0.4268 -0.0988 -0.5093
15803TIP3    H168900   6.666   3.564   5.041  0.1060  0.8907 -1.5190
15803TIP3    H268901   6.675   3.714   5.056 -0.3516  0.7008  1.2271
15804TIP3   OH268902   1.258   5.289   0.758  0.3561  0.2388 -0.1253
15804TIP3    H168903   1.206   5.235   0.817 -0.7976  0.2287 -1.0968
15804TIP3    H268904   1.349   5.265   0.777 -0.0657 -1.0557  0.3947
15805TIP3   OH268905   1.235   6.183  11.964  0.1146 -0.1846 -0.4493
15805TIP3    H168906   1.255   6.089  11.971  3.7823  0.5034  0.8848
15805TIP3    H268907   1.292   6.213  11.893  1.1945  1.4499  1.0483
15806TIP3   OH268908   1.783   4.855   4.604 -0.2055 -0.8389 -0.4489
15806TIP3    H168909   1.698   4.825   4.635 -0.2336 -1.3218 -0.9641
15806TIP3    H268910   1.784   4.832   4.511  0.2738 -0.3500 -0.5717
15807TIP3   OH268911   6.497   2.015   5.044 -0.4259 -0.2502  0.8369
15807TIP3    H168912   6.467   1.927   5.022 -2.2425  0.8305 -1.5214
15807TIP3    H268913   6.570   2.030   4.984  0.0515 -0.2210  1.4178
15808TIP3   OH268914   1.136   4.933   1.460 -0.5176  0.3244  0.1307
15808TIP3    H168915   1.099   5.020   1.478 -1.6008 -0.1610  0.3987
15808TIP3    H268916   1.167   4.937   1.370 -0.0718  1.1447  0.3138
15809TIP3   OH268917   2.591   6.109   0.232 -0.5047 -0.3234  0.1130
15809TIP3    H168918   2.512   6.070   0.269 -0.1023 -0.5037  0.7945
15809TIP3    H268919   2.597   6.072   0.144 -0.9148 -0.6834  0.2341
15810TIP3   OH268920   0.685   5.565   3.748 -0.0659  0.1867  0.5019
15810TIP3    H168921   0.680   5.538   3.656 -0.5705  1.7741  0.0192
15810TIP3    H268922   0.718   5.488   3.794 -1.6348 -1.2958 -0.7178
15811TIP3   OH268923   1.590   6.229   1.155 -0.5346 -0.5957  0.2361
15811TIP3    H168924   1.605   6.323   1.159  0.2618 -0.7416  0.9973
15811TIP3    H268925   1.539   6.216   1.075  3.3248  0.0097 -2.6604
15812TIP3   OH268926   5.960   6.188   3.765 -0.4709  1.0418 -0.0404
15812TIP3    H168927   5.911   6.267   3.744 -0.3124  1.0296 -0.4608
15812TIP3    H268928   5.979   6.148   3.681  1.6421  1.8823 -0.0408
15813TIP3   OH268929   0.292   3.481  12.997 -0.2152 -0.3745  0.4998
15813TIP3    H168930   0.319   3.491  12.905  0.8620  1.2662  0.9543
15813TIP3    H268931   0.358   3.528  13.047 -0.7093 -1.3581  2.1617
15814TIP3   OH268932   1.911   5.465  14.051 -0.2273  0.0870  0.8346
15814TIP3    H168933   1.907   5.540  14.110  0.9150 -0.5544  1.7668
15814TIP3    H268934   1.824   5.425  14.057 -1.0740  1.6739 -0.1839
15815TIP3   OH268935   1.677   3.239   0.474  0.0795  0.2317  0.1641
15815TIP3    H168936   1.632   3.174   0.528  0.0748 -1.1778 -1.4513
15815TIP3    H268937   1.607   3.294   0.438  0.0861  1.2105  1.5446
15816TIP3   OH268938   6.199   3.515  12.016 -0.1748 -0.3122 -0.1113
15816TIP3    H168939   6.106   3.512  12.042 -0.7828 -1.1405 -2.1789
15816TIP3    H268940   6.221   3.424  11.997  0.8642 -0.0256 -0.3107
15817TIP3   OH268941   3.066   3.451   6.228  0.4731 -0.1713 -0.0030
15817TIP3    H168942   3.154   3.438   6.263  0.3591  1.3544  0.9923
15817TIP3    H268943   3.024   3.366   6.235  0.8308 -0.2386  2.6709
15818TIP3   OH268944   1.538   0.153  13.239  0.0388  0.1885 -0.1305
15818TIP3    H168945   1.504   0.110  13.317  1.5466  1.5928  1.3861
15818TIP3    H268946   1.485   0.232  13.230 -0.5492 -0.2927 -0.9142
15819TIP3   OH268947   2.871   5.547  17.656 -0.0240 -0.3046 -0.0624
15819TIP3    H168948   2.961   5.534  17.626  0.6384 -0.2570  1.8139
15819TIP3    H268949   2.852   5.471  17.711 -0.4689  0.5940  1.0616
15820TIP3   OH268950   4.450   2.739  15.697 -0.0161  0.5751 -0.2794
15820TIP3    H168951   4.369   2.785  15.718 -0.0334  1.7788 -2.6168
15820TIP3    H268952   4.444   2.723  15.602  1.8552 -0.5707 -0.2579
15821TIP3   OH268953   4.598   1.153  17.247 -0.1022  0.5000 -0.2411
15821TIP3    H168954   4.527   1.090  17.241 -0.0782  0.5823 -1.7316
15821TIP3    H268955   4.659   1.126  17.178  0.5910  1.3168  0.0415
15822TIP3   OH268956   4.802   4.092   1.743 -0.2384 -0.1321 -0.8591
15822TIP3    H168957   4.812   4.170   1.797 -0.3625  0.5293 -1.7881
15822TIP3    H268958   4.724   4.108   1.690 -1.2192 -1.5727  0.0775
15823TIP3   OH268959   5.066   4.519   3.218  1.1988 -0.2316 -0.1960
15823TIP3    H168960   5.116   4.592   3.180  1.4352 -1.2794 -1.9760
15823TIP3    H268961   5.133   4.462   3.256  1.0216  0.3555  1.0615
15824TIP3   OH268962   4.337   6.095   4.719 -0.3697  0.3636 -0.4224
15824TIP3    H168963   4.419   6.098   4.768  0.0307 -2.0935 -0.8106
15824TIP3    H268964   4.352   6.153   4.644  0.6650  0.6443 -0.0221
15825TIP3   OH268965   4.490   1.072  10.809  0.3164  0.5560 -0.2284
15825TIP3    H168966   4.492   0.977  10.820 -0.3424  0.2178 -2.5027
15825TIP3    H268967   4.438   1.086  10.730  0.0235  2.8520  0.3014
15826TIP3   OH268968   5.948   2.895   2.130 -0.5044 -0.1040  0.1626
15826TIP3    H168969   5.946   2.834   2.204 -0.3847  1.1679  1.2395
15826TIP3    H268970   5.967   2.839   2.054 -1.5027 -1.5696  0.9347
15827TIP3   OH268971   0.053   6.446  17.589 -0.3654  0.0876 -0.5000
15827TIP3    H168972   0.113   6.403  17.527  0.5351  0.2719  0.2187
15827TIP3    H268973  -0.004   6.375  17.619  0.6994 -0.5139  0.1975
15828TIP3   OH268974   5.820   1.150   4.359 -0.2914 -0.5720 -0.8556
15828TIP3    H168975   5.781   1.076   4.312 -4.1071 -0.2845  1.4515
15828TIP3    H268976   5.826   1.120   4.450  0.2237  1.1761 -0.2701
15829TIP3   OH268977   3.638   1.649  16.169 -0.3476 -0.0813  0.3024
15829TIP3    H168978   3.693   1.628  16.245  1.9483  0.9549 -0.9710
15829TIP3    H268979   3.612   1.564  16.134 -1.0721 -0.5803  1.9446
15830TIP3   OH268980   3.910   6.001  11.766 -0.2105  0.4719 -0.3833
15830TIP3    H168981   3.906   5.981  11.860  0.0044  1.5909 -0.1205
15830TIP3    H268982   3.842   6.066  11.752  0.7260  1.4137 -0.6968
15831TIP3   OH268983   1.914   6.131  14.606  0.7327 -0.3450 -0.7138
15831TIP3    H168984   1.937   6.195  14.674 -1.5793  2.9286 -2.7223
15831TIP3    H268985   1.821   6.114  14.619  0.5480 -0.6452 -2.2436
15832TIP3   OH268986   6.048   3.427   0.752  0.0340  0.5342  0.2046
15832TIP3    H168987   6.029   3.348   0.702  1.6575  0.3265 -0.1252
15832TIP3    H268988   6.046   3.399   0.844  0.4755  0.1347  0.0948
15833TIP3   OH268989   2.339   1.184  11.706  0.1366  0.5531  0.6079
15833TIP3    H168990   2.312   1.119  11.772 -0.6930  0.5673  0.2875
15833TIP3    H268991   2.392   1.134  11.644 -0.6883  0.1224  0.2383
15834TIP3   OH268992   0.464   6.126   1.104  0.0294 -0.0309 -0.7627
15834TIP3    H168993   0.496   6.159   1.020 -1.3616  1.8355 -0.6268
15834TIP3    H268994   0.531   6.065   1.133  1.3580  0.5577 -2.4346
15835TIP3   OH268995   1.914   5.672   4.878  0.3783 -0.0854 -0.0500
15835TIP3    H168996   1.833   5.703   4.837  1.2587 -0.2014 -1.9796
15835TIP3    H268997   1.911   5.709   4.966 -1.6047  0.1983 -0.1836
15836TIP3   OH268998   4.302   2.872   6.520 -0.1892 -0.1099  0.0047
15836TIP3    H168999   4.238   2.941   6.540  0.8963  0.6343  1.0257
15836TIP3    H269000   4.253   2.790   6.531 -0.9260  0.4409  1.0138
15837TIP3   OH269001   1.048   3.324  11.795 -0.3618 -0.2056  0.7321
15837TIP3    H169002   1.027   3.275  11.875  0.9264  0.3861  1.4737
15837TIP3    H269003   1.074   3.410  11.826 -0.7105  0.3362 -0.4144
15838TIP3   OH269004   0.244   1.910  12.267 -0.3861 -0.0280 -0.7132
15838TIP3    H169005   0.196   1.930  12.347  1.1640  0.4585  0.1229
15838TIP3    H269006   0.229   1.986  12.211 -0.7132  0.0386 -0.5403
15839TIP3   OH269007   2.483   2.684  14.192  0.0569 -0.3524 -0.4710
15839TIP3    H169008   2.475   2.779  14.191  1.3086 -0.1894  0.7973
15839TIP3    H269009   2.406   2.652  14.145 -1.4419  1.2375  0.7702
15840TIP3   OH269010   6.152   6.646   6.132  0.2115 -0.3765 -0.2184
15840TIP3    H169011   6.216   6.578   6.114  0.3705  0.3003 -2.5053
15840TIP3    H269012   6.085   6.634   6.065 -0.4017  0.9402  0.1265
15841TIP3   OH269013   1.816   2.663  16.351 -0.2553 -0.7539  0.2156
15841TIP3    H169014   1.885   2.727  16.368 -0.6393 -0.5586  1.0703
15841TIP3    H269015   1.861   2.578  16.358  0.0689 -0.6062 -0.0437
15842TIP3   OH269016   3.393   1.711  11.204 -0.3085  0.5159  0.4812
15842TIP3    H169017   3.380   1.674  11.117  1.2900  1.5644 -0.2572
15842TIP3    H269018   3.399   1.635  11.262  1.5055 -0.3628 -0.7755
15843TIP3   OH269019   2.577   3.921  17.446  0.1675  0.7118 -0.1840
15843TIP3    H169020   2.505   3.920  17.509 -0.4263 -0.1827 -0.8624
15843TIP3    H269021   2.619   3.836  17.457  0.2183  0.6545 -0.8086
15844TIP3   OH269022   0.897   1.006  16.989 -0.2963 -0.2152  0.0247
15844TIP3    H169023   0.860   0.960  17.065 -2.4909 -0.6664 -1.2366
15844TIP3    H269024   0.859   1.094  16.994 -0.1568 -0.1324 -0.3608
15845TIP3   OH269025   6.562   2.782   2.175  0.6049  0.0702 -0.4976
15845TIP3    H169026   6.493   2.754   2.115 -1.5953  1.5381  1.1898
15845TIP3    H269027   6.568   2.711   2.239 -2.2311  1.4917  1.5612
15846TIP3   OH269028   1.850   1.253  14.724 -0.1782  0.6802  0.0454
15846TIP3    H169029   1.877   1.200  14.799 -1.7917 -0.2735 -0.0159
15846TIP3    H269030   1.876   1.203  14.647  1.3624  1.6003 -0.0791
15847TIP3   OH269031   3.365   2.042  16.612 -0.4461 -0.6723 -0.6522
15847TIP3    H169032   3.394   2.097  16.540  0.6649 -2.1761 -1.4127
15847TIP3    H269033   3.351   1.956  16.573 -3.5954 -0.6709  0.1922
15848TIP3   OH269034   4.470   0.632  12.897 -0.1583  0.6967 -0.1197
15848TIP3    H169035   4.517   0.704  12.939  0.3425  1.3904 -1.7839
15848TIP3    H269036   4.392   0.673  12.859 -1.4945 -0.2098  1.4878
15849TIP3   OH269037   0.611   6.728  14.510 -0.4659 -0.0603 -0.3024
15849TIP3    H169038   0.569   6.710  14.425 -0.8782  2.8198 -0.8170
15849TIP3    H269039   0.692   6.773  14.487  0.6613 -1.4566  0.8204
15850TIP3   OH269040   6.201   3.238   6.020  0.3528 -0.4395 -0.0357
15850TIP3    H169041   6.208   3.258   6.114 -1.3203  0.3877 -0.0495
15850TIP3    H269042   6.109   3.253   5.999  0.1795 -2.8806 -1.3346
15851TIP3   OH269043   5.071   6.653  12.333 -0.0674 -0.2367  0.7460
15851TIP3    H169044   5.083   6.658  12.428 -0.7821 -0.5629  0.8634
15851TIP3    H269045   5.129   6.583  12.304  2.2767  1.6509  0.5270
15852TIP3   OH269046   2.402   3.702   0.158 -0.4946 -0.3709  0.0882
15852TIP3    H169047   2.362   3.730   0.240  0.7114  0.9952  0.2530
15852TIP3    H269048   2.494   3.686   0.180 -0.3986 -1.0627 -0.7646
15853TIP3   OH269049   0.705   5.923   4.477 -0.7395  0.3009 -0.5169
15853TIP3    H169050   0.671   5.842   4.441 -0.7375 -0.1234  0.3948
15853TIP3    H269051   0.751   5.965   4.404  1.0870 -1.5141 -0.5229
15854TIP3   OH269052   4.291   1.172   0.401 -0.2431 -0.4814 -0.4151
15854TIP3    H169053   4.281   1.265   0.384  1.1203 -0.1299  0.5500
15854TIP3    H269054   4.333   1.167   0.487 -0.1466 -1.9827 -0.5089
15855TIP3   OH269055   0.034   2.215  16.884  0.0222 -0.6996  0.8033
15855TIP3    H169056   0.028   2.169  16.801  1.9177 -2.0575  1.3424
15855TIP3    H269057   0.100   2.283  16.870 -1.8120  1.0886  0.3961
15856TIP3   OH269058   4.109   5.385  15.798  0.4767  0.5025  0.3817
15856TIP3    H169059   4.061   5.439  15.735 -0.8196 -0.4903  0.4806
15856TIP3    H269060   4.065   5.399  15.881  2.4779  2.1769  1.2495
15857TIP3   OH269061   5.663   1.874   1.005 -0.4212 -0.2643 -0.2763
15857TIP3    H169062   5.582   1.872   0.954 -0.8819  0.7434  0.3673
15857TIP3    H269063   5.650   1.807   1.073 -0.1003 -1.1113 -1.0383
15858TIP3   OH269064   3.749   1.872  16.025  0.3518 -0.0995 -0.0829
15858TIP3    H169065   3.688   1.816  16.073 -0.4964  1.1352  0.3257
15858TIP3    H269066   3.835   1.853  16.063  0.0448 -0.9189  0.2178
15859TIP3   OH269067   5.594   0.723   5.298 -0.8346 -0.2855 -0.3806
15859TIP3    H169068   5.603   0.792   5.233 -1.2995 -1.3561 -1.6184
15859TIP3    H269069   5.525   0.754   5.356 -0.2879  0.7621 -0.2668
15860TIP3   OH269070   0.652   6.630  11.224 -0.9863 -0.2729 -0.5233
15860TIP3    H169071   0.688   6.582  11.299  1.5509  1.1988 -0.6879
15860TIP3    H269072   0.562   6.650  11.251 -0.5336 -0.8157  1.6448
15861TIP3   OH269073   4.549   5.350   2.557  0.1486  0.0265 -0.1560
15861TIP3    H169074   4.546   5.446   2.556 -2.2891  0.0059 -1.8720
15861TIP3    H269075   4.500   5.325   2.636 -0.8255  0.1978 -0.6979
15862TIP3   OH269076   2.328   5.131   1.712 -0.3552 -0.2831  0.3598
15862TIP3    H169077   2.238   5.140   1.682 -0.1713 -1.0908 -0.5066
15862TIP3    H269078   2.366   5.218   1.701 -1.1531  0.1784  1.1885
15863TIP3   OH269079   2.280   2.810   3.345 -0.2780 -0.0190  0.1856
15863TIP3    H169080   2.219   2.814   3.270  0.5570  0.3742 -0.4836
15863TIP3    H269081   2.367   2.819   3.306  0.6205 -4.3750  0.6131
15864TIP3   OH269082   4.970   0.104   2.191 -0.2271 -0.3020 -0.0540
15864TIP3    H169083   4.914   0.157   2.133  0.9599 -0.6963 -1.6326
15864TIP3    H269084   4.910   0.043   2.234 -1.3108  0.8506  0.1246
15865TIP3   OH269085   3.469   0.956   0.260 -0.2137  0.1993 -0.4337
15865TIP3    H169086   3.545   0.910   0.296 -0.6128  1.2381  1.9170
15865TIP3    H269087   3.504   1.002   0.184  1.9799  1.9350  1.4743
15866TIP3   OH269088   2.276   3.417   0.990  0.4879  0.2634 -0.2269
15866TIP3    H169089   2.235   3.408   1.075 -0.6790 -0.8439 -0.8692
15866TIP3    H269090   2.205   3.402   0.927  1.4400  0.4230 -1.3843
15867TIP3   OH269091   0.033   5.107  11.450  0.1133  0.0800 -0.3034
15867TIP3    H169092   0.035   5.200  11.427 -0.2908 -0.2644 -1.8702
15867TIP3    H269093   0.041   5.062  11.366 -3.4233 -1.2801 -0.0944
15868TIP3   OH269094   3.530   5.524  11.106  0.1159 -0.1162  0.3829
15868TIP3    H169095   3.528   5.619  11.093  2.0473  0.0537  1.0384
15868TIP3    H269096   3.549   5.488  11.019 -2.3839 -0.0812 -0.2511
15869TIP3   OH269097   4.892   1.495   1.684  0.4172  0.6379 -0.1660
15869TIP3    H169098   4.850   1.536   1.760  1.1336 -0.2345  0.7281
15869TIP3    H269099   4.985   1.491   1.707  0.8836  1.6822 -1.7133
15870TIP3   OH269100   3.037   1.323  11.783  0.0324 -0.2128 -0.2782
15870TIP3    H169101   2.970   1.391  11.776  0.2231 -0.0413 -0.5006
15870TIP3    H269102   2.991   1.246  11.816 -0.0037  0.2989  0.9145
15871TIP3   OH269103   3.701   0.063   2.967  0.3325  0.9290  0.3175
15871TIP3    H169104   3.678   0.028   3.054  1.8707 -2.8870 -0.6202
15871TIP3    H269105   3.797   0.066   2.967  0.4780 -1.0919 -1.8052
15872TIP3   OH269106   2.756   6.428  14.396 -0.3178 -0.3527 -0.0773
15872TIP3    H169107   2.771   6.347  14.445 -2.5180  0.0801  1.4463
15872TIP3    H269108   2.725   6.398  14.310  0.5735 -1.1057 -0.1580
15873TIP3   OH269109   3.562   1.983  14.957  0.2922  0.1091  0.2604
15873TIP3    H169110   3.533   2.049  14.895  2.5874 -0.4472 -1.5265
15873TIP3    H269111   3.651   2.009  14.979  0.8890 -1.8526  0.2768
15874TIP3   OH269112   4.134   4.049   1.143  0.3013 -0.4651 -0.1742
15874TIP3    H169113   4.097   3.971   1.102 -2.0404  0.5750 -0.1703
15874TIP3    H269114   4.125   4.034   1.237 -1.3020  0.2888 -0.1847
15875TIP3   OH269115   4.116   0.101   2.241 -0.1482  0.3577  0.5370
15875TIP3    H169116   4.197   0.142   2.209  0.5228 -0.9436  0.4852
15875TIP3    H269117   4.072   0.070   2.162 -0.8088  1.2338  0.5517
15876TIP3   OH269118   6.260   1.767   3.650 -0.4658  0.2907 -0.1693
15876TIP3    H169119   6.192   1.832   3.670  0.7552  1.2229  1.1040
15876TIP3    H269120   6.293   1.739   3.735  0.2893 -0.6690 -0.7471
15877TIP3   OH269121   3.207   2.497   3.751  0.4499 -0.3646  0.4312
15877TIP3    H169122   3.174   2.488   3.841  2.1885  0.7833  1.2342
15877TIP3    H269123   3.230   2.590   3.743  1.2618 -0.6538 -0.8726
15878TIP3   OH269124   1.060   6.200   0.572 -0.4232  0.8100  0.1002
15878TIP3    H169125   1.143   6.246   0.561 -0.4116  0.9729  0.7988
15878TIP3    H269126   1.084   6.113   0.604 -0.3805 -0.1067 -2.2442
15879TIP3   OH269127   5.239   6.190  16.588  0.0259 -0.1802 -0.0400
15879TIP3    H169128   5.255   6.278  16.555 -1.7656  0.4311  0.6279
15879TIP3    H269129   5.180   6.150  16.525 -1.5783  0.1943  1.1523
15880TIP3   OH269130   0.995   3.959  11.682 -0.5441 -0.1385  0.0969
15880TIP3    H169131   0.962   3.876  11.716 -0.6341  0.2111  0.8733
15880TIP3    H269132   1.074   3.935  11.633  0.6732 -0.4569  2.1032
15881TIP3   OH269133   0.569   5.679   4.393  0.2191  0.1136 -0.4354
15881TIP3    H169134   0.530   5.596   4.421  0.0532  0.7287  1.2829
15881TIP3    H269135   0.604   5.661   4.305  0.3103 -1.8048 -0.0509
15882TIP3   OH269136   2.084   4.973   2.424  0.6021  0.2863  0.6548
15882TIP3    H169137   2.096   4.878   2.429 -1.5156 -0.0338  0.8221
15882TIP3    H269138   2.021   4.993   2.494 -0.3193  1.5262 -0.4719
15883TIP3   OH269139   1.062   0.150  16.377  0.7497  0.3612  0.0837
15883TIP3    H169140   1.138   0.202  16.402  1.1254  0.2346 -0.7741
15883TIP3    H269141   0.987   0.206  16.400  0.9951 -0.1521  2.4140
15884TIP3   OH269142   6.518   0.793   3.802 -0.1719  0.1269  0.2420
15884TIP3    H169143   6.448   0.836   3.852 -2.1638 -1.5005 -1.0172
15884TIP3    H269144   6.511   0.830   3.715 -0.2851 -0.9019 -0.2009
15885TIP3   OH269145   5.198   1.954  15.595 -0.1861 -0.0918  0.0979
15885TIP3    H169146   5.273   2.001  15.632  1.6539 -3.1334  0.5927
15885TIP3    H269147   5.122   1.993  15.638  1.3989  0.8245  2.2545
15886TIP3   OH269148   0.346   3.545   3.777  0.3070  0.4525  0.0632
15886TIP3    H169149   0.349   3.615   3.711  1.0415 -0.4942 -0.9439
15886TIP3    H269150   0.254   3.516   3.777 -0.0895  1.6359  0.7577
15887TIP3   OH269151   3.882   4.801  16.806 -0.6105 -0.6353  0.4970
15887TIP3    H169152   3.912   4.791  16.715 -1.2748  0.0861  0.1854
15887TIP3    H269153   3.947   4.857  16.847 -1.7325  1.3480 -0.3170
15888TIP3   OH269154   0.204   2.511   1.718 -0.6731  0.0132  0.3740
15888TIP3    H169155   0.250   2.477   1.641  1.1434  1.2923  0.8302
15888TIP3    H269156   0.164   2.592   1.688 -0.2247  0.3542  0.6871
15889TIP3   OH269157   6.288   3.895   0.275  0.1237  0.3435 -0.0990
15889TIP3    H169158   6.233   3.960   0.318  0.5102  0.3537  0.3954
15889TIP3    H269159   6.243   3.875   0.193  0.2449  1.5959 -0.4917
15890TIP3   OH269160   6.646   4.160   5.493 -0.1697 -0.0022 -0.3600
15890TIP3    H169161   6.735   4.128   5.478 -0.2813  0.2214 -1.5958
15890TIP3    H269162   6.644   4.247   5.454 -0.7971  0.1763  0.0549
15891TIP3   OH269163   0.280   0.126  16.859  0.1859  0.0705 -0.2584
15891TIP3    H169164   0.355   0.158  16.909 -2.5650  1.5326  3.4444
15891TIP3    H269165   0.304   0.037  16.833  4.1336  1.3622 -1.7757
15892TIP3   OH269166   4.624   4.644   1.669 -0.3026 -0.3654 -0.3558
15892TIP3    H169167   4.636   4.556   1.703 -2.7858 -0.8122 -0.4697
15892TIP3    H269168   4.570   4.633   1.591 -0.4104  1.2329 -0.5514
15893TIP3   OH269169   2.668   5.661   1.232  0.3576  0.3321 -0.6729
15893TIP3    H169170   2.735   5.653   1.165  1.0974  0.1520  0.0766
15893TIP3    H269171   2.588   5.685   1.184  1.1803  1.5826 -1.4665
15894TIP3   OH269172   3.682   3.351   0.971 -0.4033  0.6080  0.0855
15894TIP3    H169173   3.768   3.388   0.992 -0.3915  0.4433  0.3286
15894TIP3    H269174   3.625   3.380   1.042  0.1246 -1.7374  1.5509
15895TIP3   OH269175   5.370   1.163  17.075 -0.1350 -0.3336  0.0524
15895TIP3    H169176   5.456   1.206  17.071 -0.2401 -0.2478 -2.9185
15895TIP3    H269177   5.310   1.232  17.101  0.1466  0.6069 -1.7072
15896TIP3   OH269178   6.568   0.591  10.635 -0.5996  0.4359 -0.2292
15896TIP3    H169179   6.595   0.558  10.721  0.6407 -1.2432 -1.1862
15896TIP3    H269180   6.500   0.655  10.654  0.0561  0.5564  2.0257
15897TIP3   OH269181   1.976   4.960   0.514  0.1880  0.2321 -0.0479
15897TIP3    H169182   1.887   4.960   0.549  0.4128  1.8526  0.5995
15897TIP3    H269183   1.965   4.978   0.421 -0.1312  1.4217  0.2056
15898TIP3   OH269184   2.258   0.480  11.400 -0.6692 -0.4985  0.3453
15898TIP3    H169185   2.349   0.502  11.418 -0.2451 -2.3763  0.6548
15898TIP3    H269186   2.208   0.551  11.440  0.6930  2.1733 -2.3674
15899TIP3   OH269187   5.230   1.726   2.705  0.3377 -0.1005  0.1735
15899TIP3    H169188   5.215   1.736   2.799  0.1904 -0.4555  0.1903
15899TIP3    H269189   5.321   1.698   2.698 -0.1376 -1.7740  0.3305
15900TIP3   OH269190   2.270   0.803   0.685 -0.4507  0.1070  0.4783
15900TIP3    H169191   2.186   0.761   0.707 -1.4485  1.5716 -0.3364
15900TIP3    H269192   2.256   0.841   0.598  1.3691 -0.3549 -0.0537
15901TIP3   OH269193   4.867   2.467   4.849  0.1404  0.6166  0.4028
15901TIP3    H169194   4.870   2.445   4.756  0.5054  0.8895  0.3496
15901TIP3    H269195   4.881   2.561   4.853  3.9134  0.1996  0.9334
15902TIP3   OH269196   5.513   1.679   3.842  0.2419 -0.1773 -0.0698
15902TIP3    H169197   5.491   1.623   3.917  3.2565  0.6795  1.6589
15902TIP3    H269198   5.547   1.618   3.776 -0.4451 -0.7567  0.1016
15903TIP3   OH269199   4.444   3.811  17.073 -0.3185  0.8987  0.3071
15903TIP3    H169200   4.511   3.743  17.079 -1.2907 -0.1960 -0.7185
15903TIP3    H269201   4.401   3.808  17.159  0.1150  0.7323  0.5253
15904TIP3   OH269202   1.209   6.304  13.073 -0.0165  0.2741 -0.6627
15904TIP3    H169203   1.154   6.343  13.141 -0.8631 -0.6082 -0.8212
15904TIP3    H269204   1.164   6.223  13.049  0.3700  0.4802 -2.1526
15905TIP3   OH269205   5.470   6.491   2.041  0.1726 -0.7680 -0.2956
15905TIP3    H169206   5.525   6.427   1.996  0.5232 -0.6654 -0.0180
15905TIP3    H269207   5.525   6.569   2.048  0.0501 -0.7136  0.1176
15906TIP3   OH269208   4.587   5.427   1.211  0.3062 -0.2835 -0.0305
15906TIP3    H169209   4.566   5.352   1.154 -0.1262  0.0954 -0.3793
15906TIP3    H269210   4.537   5.500   1.173  0.7499  0.1878  0.2884
15907TIP3   OH269211   2.179   1.428  14.112  0.1816 -0.2938 -0.0407
15907TIP3    H169212   2.270   1.453  14.125 -0.1786  0.2060  1.8454
15907TIP3    H269213   2.144   1.496  14.053  0.8949 -0.2293 -0.4040
15908TIP3   OH269214   1.042   1.783  12.880  0.5294 -0.2493 -1.0636
15908TIP3    H169215   1.048   1.861  12.934 -0.4200 -0.5175 -0.5490
15908TIP3    H269216   0.959   1.793  12.833 -1.0040 -2.1784  1.0242
15909TIP3   OH269217   5.457   5.051  12.320  0.2762 -0.0831  0.5642
15909TIP3    H169218   5.524   5.119  12.325  0.1377  0.1135 -0.1619
15909TIP3    H269219   5.403   5.075  12.245  0.2782 -1.0316  0.2438
15910TIP3   OH269220   2.063   3.387  11.563  0.0659 -0.0678 -0.0471
15910TIP3    H169221   2.023   3.459  11.611  0.4997 -0.7201  1.3438
15910TIP3    H269222   2.011   3.380  11.483 -0.2590  1.4866 -0.0133
15911TIP3   OH269223   4.924   2.885   2.255 -0.5769  0.2498 -0.0381
15911TIP3    H169224   4.957   2.894   2.166 -2.6460  0.9819 -0.8094
15911TIP3    H269225   4.953   2.798   2.283  0.2349  0.0723 -1.3584
15912TIP3   OH269226   5.712   2.275  13.466 -0.0502  0.3723 -0.2517
15912TIP3    H169227   5.753   2.290  13.551  0.1019  0.2959 -0.3108
15912TIP3    H269228   5.785   2.274  13.404 -0.2699  1.7177 -0.5590
15913TIP3   OH269229   5.465   1.755   0.861  0.6649 -0.2745 -0.2548
15913TIP3    H169230   5.395   1.737   0.799  1.2254  0.0898 -1.0094
15913TIP3    H269231   5.471   1.676   0.915  0.2965 -0.6730 -0.7874
15914TIP3   OH269232   1.488   6.595  11.351 -0.0413  0.3312  0.4944
15914TIP3    H169233   1.472   6.529  11.418  2.4439 -0.0407  0.8061
15914TIP3    H269234   1.460   6.677  11.391  0.1693 -0.0664  1.4778
15915TIP3   OH269235   4.717   4.661   6.687 -0.0556 -0.4596 -0.4982
15915TIP3    H169236   4.626   4.669   6.659 -0.5759  0.7708  1.2983
15915TIP3    H269237   4.712   4.664   6.783  1.8780 -0.3902 -0.3655
15916TIP3   OH269238   2.884   5.321  15.823 -0.3720 -0.0290  0.9193
15916TIP3    H169239   2.949   5.319  15.894 -0.6357 -0.9749  1.1378
15916TIP3    H269240   2.933   5.356  15.748  0.0505  0.4763  1.4158
15917TIP3   OH269241   0.548   0.264  16.499 -0.6598  0.2164  0.5409
15917TIP3    H169242   0.542   0.339  16.559 -0.3157  2.3760 -1.9230
15917TIP3    H269243   0.459   0.229  16.495 -1.4537  2.1536 -0.1264
15918TIP3   OH269244   4.300   4.663  16.822  0.0173 -0.4713  0.2965
15918TIP3    H169245   4.246   4.678  16.744 -2.0388  1.1869  1.9008
15918TIP3    H269246   4.364   4.734  16.821  0.6609 -1.0495 -0.3820
15919TIP3   OH269247   1.883   3.435   5.736 -0.4807 -0.8830 -0.3247
15919TIP3    H169248   1.939   3.474   5.804  0.9380 -1.7478 -0.9561
15919TIP3    H269249   1.797   3.427   5.777 -0.2326  0.6909  0.6047
15920TIP3   OH269250   3.726   6.694   3.213 -0.0346  0.7454  0.2696
15920TIP3    H169251   3.661   6.653   3.271 -2.0469  0.6233 -1.9175
15920TIP3    H269252   3.802   6.635   3.217 -0.5335  0.1611  1.8863
15921TIP3   OH269253   0.980   5.292  15.828  0.2545 -0.3319 -0.2908
15921TIP3    H169254   0.981   5.330  15.740 -0.0718 -1.6473 -0.8814
15921TIP3    H269255   0.994   5.367  15.886 -0.0847  0.6437 -1.4245
15922TIP3   OH269256   5.698   1.043   0.721 -0.0431 -0.1788  0.6680
15922TIP3    H169257   5.660   0.981   0.784 -0.4340 -2.5595 -1.7348
15922TIP3    H269258   5.633   1.048   0.651  1.5657  0.2089 -0.8371
15923TIP3   OH269259   5.349   5.836   2.801 -0.3447  0.1109  0.9151
15923TIP3    H169260   5.350   5.893   2.878  3.3397  1.6266 -0.0936
15923TIP3    H269261   5.436   5.797   2.798 -0.8156 -0.9669 -1.7853
15924TIP3   OH269262   1.249   6.190   3.105 -0.1256 -0.5975 -0.3283
15924TIP3    H169263   1.195   6.267   3.123 -0.0921 -0.7169  0.3087
15924TIP3    H269264   1.319   6.222   3.049  0.8607  0.2138  1.3204
15925TIP3   OH269265   6.361   6.701   1.404 -0.2583  0.1477 -0.6743
15925TIP3    H169266   6.345   6.760   1.478  0.4378 -1.0647  0.4809
15925TIP3    H269267   6.367   6.614   1.443  0.9386 -0.4303 -2.0342
15926TIP3   OH269268   1.850   3.674  12.722  0.2747  0.0618 -0.2711
15926TIP3    H169269   1.909   3.600  12.733 -0.1725  0.0174  2.7104
15926TIP3    H269270   1.769   3.636  12.688  0.0510 -0.8807  1.2351
15927TIP3   OH269271   2.081   5.395   0.203 -0.5946 -0.0519 -0.1028
15927TIP3    H169272   2.112   5.441   0.281  0.8066  1.4680 -1.4743
15927TIP3    H269273   1.986   5.401   0.208 -0.4829  2.1866  0.2928
15928TIP3   OH269274   0.937   4.148  11.840 -0.3429  0.3472  0.7272
15928TIP3    H169275   0.841   4.148  11.843 -0.4939  0.1234 -2.0134
15928TIP3    H269276   0.959   4.081  11.775  1.7409 -0.0426  1.7326
15929TIP3   OH269277   6.588   4.596  14.233  0.2929 -0.0605  0.1236
15929TIP3    H169278   6.627   4.581  14.319  1.5171 -1.6176 -0.6579
15929TIP3    H269279   6.650   4.558  14.171 -1.7847 -1.4024 -1.2856
15930TIP3   OH269280   3.044   2.292  13.844  0.3838 -0.2493  0.0333
15930TIP3    H169281   2.998   2.218  13.884  1.7541 -0.8286  0.6046
15930TIP3    H269282   2.975   2.346  13.806 -1.0048  0.2449  3.0062
15931TIP3   OH269283   3.412   0.281  13.306 -0.2379  0.1591  0.1762
15931TIP3    H169284   3.388   0.364  13.265  0.0248  0.2524  0.2084
15931TIP3    H269285   3.411   0.218  13.234  1.4233  0.5526 -0.2368
15932TIP3   OH269286   5.416   2.028   6.120 -0.0903 -0.0932 -1.1114
15932TIP3    H169287   5.384   2.065   6.203 -1.1485  0.4372 -1.7388
15932TIP3    H269288   5.511   2.043   6.122 -0.1459  0.1882 -0.1352
15933TIP3   OH269289   2.786   1.811   2.859 -0.4084 -0.4200 -0.0492
15933TIP3    H169290   2.817   1.879   2.918 -1.6179  0.1935 -0.0820
15933TIP3    H269291   2.854   1.805   2.792 -0.2783  0.7796 -0.0574
15934TIP3   OH269292   5.390   0.355  15.691 -0.3398 -0.3327  0.2348
15934TIP3    H169293   5.461   0.352  15.755 -0.7183  1.6474  0.8209
15934TIP3    H269294   5.422   0.415  15.623 -1.2032  0.1258  0.2150
15935TIP3   OH269295   5.953   6.056  15.140 -0.0659 -0.2683  0.3376
15935TIP3    H169296   6.045   6.048  15.166 -0.2212 -0.8958  0.7189
15935TIP3    H269297   5.929   6.146  15.163  0.4884 -0.0551  0.1000
15936TIP3   OH269298   2.634   2.485   5.552 -0.1823  0.1629 -0.0044
15936TIP3    H169299   2.582   2.562   5.574 -0.6685 -0.0252 -0.4761
15936TIP3    H269300   2.691   2.472   5.628 -2.7267 -1.2363  1.8226
15937TIP3   OH269301   3.445   2.762   5.423  0.2521 -0.0223  0.4308
15937TIP3    H169302   3.507   2.789   5.356 -0.2601  0.6913  0.2342
15937TIP3    H269303   3.429   2.669   5.404  1.0024 -0.1270  0.2884
15938TIP3   OH269304   3.522   4.051  11.247 -0.2112  0.4083 -0.5480
15938TIP3    H169305   3.568   3.985  11.196 -0.1118 -1.3642  1.6553
15938TIP3    H269306   3.437   4.060  11.204  1.3959  2.4144 -3.6215
15939TIP3   OH269307   0.918   4.032  13.668 -0.2509  0.7751 -0.4395
15939TIP3    H169308   0.984   4.012  13.735 -1.0327 -1.5026 -0.2940
15939TIP3    H269309   0.839   4.053  13.718 -0.1286  1.8267 -0.6517
15940TIP3   OH269310   3.834   1.777   6.336  0.3770 -0.0311 -0.8260
15940TIP3    H169311   3.766   1.730   6.385  2.1731 -2.0536 -0.0906
15940TIP3    H269312   3.814   1.869   6.350 -1.1683 -0.5589  0.8742
15941TIP3   OH269313   0.745   1.548  15.968 -0.1044 -0.4837 -1.0198
15941TIP3    H169314   0.665   1.562  16.018  1.5667 -2.3244  2.5822
15941TIP3    H269315   0.816   1.575  16.028  2.0563  0.4397 -3.7668
15942TIP3   OH269316   0.533   4.603  15.424 -0.2762 -0.7742 -0.3600
15942TIP3    H169317   0.483   4.679  15.393 -0.5574 -1.6570 -2.2363
15942TIP3    H269318   0.623   4.635  15.431 -0.7973  0.4352  1.6187
15943TIP3   OH269319   6.033   2.029  14.116  0.0479 -0.0664 -0.1299
15943TIP3    H169320   6.023   1.936  14.097  1.4313 -0.3193  0.2611
15943TIP3    H269321   6.070   2.031  14.204 -0.3209  0.8773  0.0143
15944TIP3   OH269322   5.563   6.307  13.545  0.4766  0.5782  0.0588
15944TIP3    H169323   5.576   6.254  13.466  2.3657  1.9668 -0.6409
15944TIP3    H269324   5.624   6.271  13.608  2.7573  2.6040 -0.8476
15945TIP3   OH269325   5.533   5.905   5.958 -0.0908 -0.0394 -0.4627
15945TIP3    H169326   5.502   5.926   5.870  0.7896  1.3931 -0.4532
15945TIP3    H269327   5.628   5.912   5.952  0.3203 -3.5414 -0.2904
15946TIP3   OH269328   4.143   4.687  17.559  0.1025 -0.2190  0.2445
15946TIP3    H169329   4.121   4.654  17.472  2.6168 -0.7495 -0.2742
15946TIP3    H269330   4.090   4.766  17.569  1.1196  0.9606 -2.5910
15947TIP3   OH269331   2.936   3.031  17.422 -0.2356 -0.3406 -0.5842
15947TIP3    H169332   2.843   3.053  17.430 -0.1949  0.3055 -1.6187
15947TIP3    H269333   2.982   3.104  17.464 -0.1849 -0.0826 -1.0691
15948TIP3   OH269334   0.718   4.182   1.798 -0.0409  0.2401  0.5529
15948TIP3    H169335   0.687   4.249   1.737 -0.1218  0.7550  1.1554
15948TIP3    H269336   0.796   4.146   1.755 -1.8986 -1.7388 -1.4591
15949TIP3   OH269337   6.261   1.072   0.914 -0.0834 -0.0022 -0.4963
15949TIP3    H169338   6.194   1.132   0.879 -0.4097 -0.0533  0.0281
15949TIP3    H269339   6.343   1.102   0.874 -0.1151  1.2843  0.3365
15950TIP3   OH269340   2.443   2.455   1.325  0.5466 -0.1502 -0.0504
15950TIP3    H169341   2.406   2.511   1.393  0.0478 -1.1758  0.5374
15950TIP3    H269342   2.404   2.487   1.243  1.1732  1.1053  0.1131
15951TIP3   OH269343   2.541   3.926   2.780  0.2479  0.3536  0.0695
15951TIP3    H169344   2.612   3.987   2.758  1.1524 -0.8329 -0.4920
15951TIP3    H269345   2.524   3.941   2.873  1.8772  0.0715  0.4500
15952TIP3   OH269346   2.941   0.411  13.810  0.1247  0.3529  0.1369
15952TIP3    H169347   2.880   0.408  13.736  0.9115  1.8423 -0.6103
15952TIP3    H269348   3.022   0.373  13.776  0.1083 -0.1480  0.6415
15953TIP3   OH269349   4.109   1.185  13.632 -0.3194  0.1324 -0.4182
15953TIP3    H169350   4.057   1.114  13.669  1.0047  0.0481  1.3696
15953TIP3    H269351   4.125   1.244  13.705  1.6228  0.4324 -1.0251
15954TIP3   OH269352   6.221   0.528  16.710 -0.2982  0.3373  0.0368
15954TIP3    H169353   6.150   0.476  16.746  0.3369  0.6118  1.8017
15954TIP3    H269354   6.242   0.591  16.779  3.0699 -1.1195  0.5241
15955TIP3   OH269355   0.367   6.157  14.611  0.1477  0.6040 -0.4569
15955TIP3    H169356   0.444   6.099  14.609  0.5948  1.1394  0.3931
15955TIP3    H269357   0.385   6.218  14.683 -1.5074  0.1554  0.3892
15956TIP3   OH269358   6.204   1.217   6.306  0.4179  0.1999  0.1829
15956TIP3    H169359   6.215   1.204   6.212  2.9455 -0.9976  0.5709
15956TIP3    H269360   6.220   1.311   6.319  0.0806  0.3702 -0.5587
15957TIP3   OH269361   0.350   3.227   0.258 -0.2624 -0.2205  0.6145
15957TIP3    H169362   0.311   3.295   0.312  0.2273  0.9058 -0.3931
15957TIP3    H269363   0.438   3.260   0.237 -1.0258  0.2721 -2.2903
15958TIP3   OH269364   0.229   3.931  13.550 -0.2272 -0.0443  0.4989
15958TIP3    H169365   0.288   3.875  13.600  2.2721  1.5780 -0.4301
15958TIP3    H269366   0.249   4.020  13.579  1.1521  0.9613 -2.9557
15959TIP3   OH269367   2.774   3.512  12.630 -0.5882  0.7042 -0.0086
15959TIP3    H169368   2.822   3.552  12.557 -0.9659  0.0425 -0.6278
15959TIP3    H269369   2.798   3.565  12.705  2.4564 -0.5185  0.0643
15960TIP3   OH269370   1.674   6.012   4.549 -0.0970 -0.6568 -0.3527
15960TIP3    H169371   1.624   5.942   4.591  0.6720 -0.6708  0.5766
15960TIP3    H269372   1.752   5.970   4.516  0.1483 -0.3209 -0.2086
15961TIP3   OH269373   2.688   5.102   4.355  0.0767 -0.8452 -0.3142
15961TIP3    H169374   2.774   5.065   4.376 -0.6491 -1.5029  1.7024
15961TIP3    H269375   2.678   5.175   4.416 -0.4899 -0.2792 -1.0604
15962TIP3   OH269376   5.765   0.805   4.908  0.3795  0.4148 -0.2928
15962TIP3    H169377   5.765   0.866   4.982  0.6627  1.4570 -1.1231
15962TIP3    H269378   5.672   0.795   4.886  0.3518  0.9202 -0.4330
15963TIP3   OH269379   5.103   3.192  14.044  0.0374 -0.5935 -0.1065
15963TIP3    H169380   5.169   3.232  14.100 -0.1339 -0.4149 -0.0309
15963TIP3    H269381   5.151   3.162  13.967  0.0198  0.6805 -0.6418
15964TIP3   OH269382   4.954   4.583   0.645 -0.3231  0.8289 -0.9148
15964TIP3    H169383   4.931   4.503   0.598 -3.0017  1.1389 -0.2837
15964TIP3    H269384   4.994   4.639   0.578 -0.1593 -0.3097 -1.8030
15965TIP3   OH269385   0.269   4.099  14.629  0.2717  0.6845 -0.2166
15965TIP3    H169386   0.253   4.040  14.555 -2.4247  0.4612  0.4114
15965TIP3    H269387   0.288   4.183  14.589 -1.5879  0.6752 -1.2625
15966TIP3   OH269388   5.569   3.800  12.605 -0.0587  0.6602  0.1535
15966TIP3    H169389   5.526   3.816  12.689  0.9694  0.3876  0.7612
15966TIP3    H269390   5.498   3.791  12.542 -0.9626 -0.9383  1.3162
15967TIP3   OH269391   1.723   0.344  11.324  0.2837 -0.1602 -0.3621
15967TIP3    H169392   1.663   0.418  11.315  1.8605  1.1540 -0.3720
15967TIP3    H269393   1.712   0.295  11.242 -0.4767  0.2820 -0.5336
15968TIP3   OH269394   5.343   4.017  13.980  0.0952  0.4024 -0.6207
15968TIP3    H169395   5.353   4.040  14.072  0.6593 -1.6177 -0.1311
15968TIP3    H269396   5.319   4.100  13.937 -1.6598  1.1207  1.5447
15969TIP3   OH269397   5.474   2.891   6.013 -0.0428  0.0228 -0.1244
15969TIP3    H169398   5.434   2.832   5.949 -2.8437  1.7203 -0.1138
15969TIP3    H269399   5.441   2.861   6.097  2.4636 -1.2993  0.4874
15970TIP3   OH269400   0.354   2.469  16.330  0.3370  0.3012 -0.1563
15970TIP3    H169401   0.298   2.516  16.267  0.1357 -2.1059 -1.9416
15970TIP3    H269402   0.443   2.491  16.303  0.2576 -0.8557 -1.5079
15971TIP3   OH269403   3.289   2.693  15.341  0.1089 -0.3302  0.1882
15971TIP3    H169404   3.298   2.682  15.436  1.3302 -0.3605  0.0807
15971TIP3    H269405   3.211   2.749  15.331 -0.0136 -0.3040  1.2018
15972TIP3   OH269406   4.311   1.091   2.190  0.3193  0.3564  0.4573
15972TIP3    H169407   4.362   1.159   2.147  1.5249  0.0811  1.4181
15972TIP3    H269408   4.302   1.022   2.124 -0.1729  1.0656 -0.2339
15973TIP3   OH269409   3.889   1.299  15.170 -0.5637 -0.6306 -0.7969
15973TIP3    H169410   3.963   1.328  15.117  0.1154 -2.4126 -0.8801
15973TIP3    H269411   3.905   1.338  15.256 -0.9308  1.1167 -1.4806
15974TIP3   OH269412   2.674   1.500   4.528  0.2575  0.0109 -0.6130
15974TIP3    H169413   2.621   1.470   4.454 -1.0391 -2.6374  1.2395
15974TIP3    H269414   2.764   1.474   4.505  0.1006  0.5190 -1.8484
15975TIP3   OH269415   5.577   5.363  16.044 -0.1221 -0.2896 -0.6453
15975TIP3    H169416   5.670   5.384  16.035 -0.0159 -0.3480  0.1949
15975TIP3    H269417   5.568   5.335  16.136 -1.1883  0.7975 -0.4025
15976TIP3   OH269418   6.386   2.640   6.210  0.3109 -0.3480  0.0532
15976TIP3    H169419   6.462   2.635   6.267  0.4128 -1.9859 -0.1711
15976TIP3    H269420   6.337   2.716   6.240  1.1889 -0.2477  1.2652
15977TIP3   OH269421   2.973   2.751  17.375 -0.1713  0.3484  0.6068
15977TIP3    H169422   2.973   2.697  17.453 -0.3000  2.2456  1.9942
15977TIP3    H269423   2.948   2.838  17.406 -1.0831  0.9737 -1.7002
15978TIP3   OH269424   1.745   2.408  11.932  0.1546  0.3451  0.7153
15978TIP3    H169425   1.692   2.328  11.936  1.9685 -1.1382 -1.5602
15978TIP3    H269426   1.790   2.411  12.016 -0.7362 -0.4534  1.2404
15979TIP3   OH269427   3.400   1.173  14.026 -0.0771 -0.1919 -0.7039
15979TIP3    H169428   3.378   1.184  13.934  0.6750  1.9236 -0.6878
15979TIP3    H269429   3.353   1.244  14.070  3.0377  1.6699 -0.0964
15980TIP3   OH269430   3.491   3.509   2.786  0.5121 -0.1033  0.0580
15980TIP3    H169431   3.467   3.441   2.722  1.4339 -1.3220  0.9363
15980TIP3    H269432   3.488   3.464   2.870  0.3539  1.1939  0.7666
15981TIP3   OH269433   0.357   5.410  17.032 -0.2014  0.2438 -0.4482
15981TIP3    H169434   0.434   5.358  17.007 -0.3073  0.9289 -2.3809
15981TIP3    H269435   0.335   5.380  17.120  1.4198 -0.9715 -0.4121
15982TIP3   OH269436   6.406   2.135  14.939  0.5532  0.4352  0.1856
15982TIP3    H169437   6.424   2.059  14.884  1.0571  0.4723  0.2901
15982TIP3    H269438   6.378   2.098  15.022 -1.9443  0.3808 -0.6104
15983TIP3   OH269439   1.595   0.580  13.918 -0.1800  0.0217 -0.1785
15983TIP3    H169440   1.622   0.669  13.938 -1.7116  0.5575 -0.3436
15983TIP3    H269441   1.603   0.533  14.001 -1.0164  0.7733  0.3534
15984TIP3   OH269442   2.423   2.919   4.983  0.2022 -0.6462  0.0573
15984TIP3    H169443   2.383   2.912   5.069  0.5236 -0.4860  0.2219
15984TIP3    H269444   2.349   2.919   4.922 -0.1992  1.7517  0.4584
15985TIP3   OH269445   3.636   6.075  17.076 -0.2832  0.3961 -0.9904
15985TIP3    H169446   3.682   6.159  17.077  1.0453 -0.3103 -1.1781
15985TIP3    H269447   3.568   6.085  17.143  1.1888  0.9036  0.5004
15986TIP3   OH269448   1.822   1.245   4.480  0.1791 -0.2454  0.2926
15986TIP3    H169449   1.740   1.247   4.529  0.6085 -0.7140  1.0438
15986TIP3    H269450   1.808   1.178   4.413  0.1381 -0.7035  0.7580
15987TIP3   OH269451   0.909   4.056   2.797  0.2878 -0.2205 -0.6717
15987TIP3    H169452   0.913   4.019   2.885  2.0264  2.0472  0.3040
15987TIP3    H269453   0.852   4.132   2.806  1.7913  1.0029 -1.0406
15988TIP3   OH269454   2.876   6.077  16.405  0.6595 -0.4164 -0.6787
15988TIP3    H169455   2.815   6.151  16.407 -0.4129 -1.2704  0.8302
15988TIP3    H269456   2.832   6.011  16.352  0.6190 -0.7465 -0.2412
15989TIP3   OH269457   3.200   1.246  12.637  0.4088  0.4685 -0.2048
15989TIP3    H169458   3.195   1.177  12.703 -0.3538  2.1093  1.5390
15989TIP3    H269459   3.109   1.262  12.613  0.6062  0.6659 -0.8387
15990TIP3   OH269460   3.264   5.138  14.995  0.0585 -0.1960 -0.2258
15990TIP3    H169461   3.282   5.090  15.076  2.0532 -0.3612 -0.7200
15990TIP3    H269462   3.181   5.103  14.965  0.2654 -1.5720  0.7161
15991TIP3   OH269463   3.522   5.894  15.755 -0.0046 -0.7173  0.6502
15991TIP3    H169464   3.539   5.969  15.698  0.3165 -1.1277  0.2010
15991TIP3    H269465   3.462   5.838  15.705  0.0269 -0.9249  0.8412
15992TIP3   OH269466   1.479   4.600  13.247 -0.2325 -0.2187  0.4021
15992TIP3    H169467   1.555   4.610  13.303  1.0007 -0.9484 -1.0761
15992TIP3    H269468   1.498   4.653  13.170 -1.9679  0.9179  0.6893
15993TIP3   OH269469   5.552   1.956   5.692 -0.0298 -0.0400 -0.2739
15993TIP3    H169470   5.494   1.916   5.756 -0.1407  0.7153  0.1134
15993TIP3    H269471   5.569   2.044   5.727  0.4051  0.1605 -0.9686
15994TIP3   OH269472   2.558   5.806   2.485  0.2757  0.2918 -0.3210
15994TIP3    H169473   2.632   5.804   2.424  0.6925 -0.9060  0.2018
15994TIP3    H269474   2.509   5.884   2.460  1.8895  1.2996 -0.4580
15995TIP3   OH269475   1.783   5.326   3.866 -0.1078  0.3824  0.3512
15995TIP3    H169476   1.801   5.324   3.772  1.2012  1.7783  0.5322
15995TIP3    H269477   1.724   5.401   3.877  1.1297  1.3075  0.8290
15996TIP3   OH269478   4.320   4.235  15.152  0.2993  0.3102 -0.0421
15996TIP3    H169479   4.238   4.281  15.138 -0.4546 -1.1767 -0.7708
15996TIP3    H269480   4.296   4.160  15.207  1.3441  0.3510  0.4938
15997TIP3   OH269481   0.196   6.569   5.432  0.3919 -0.4322  0.1146
15997TIP3    H169482   0.101   6.581   5.431  0.1273 -2.2591 -0.7374
15997TIP3    H269483   0.230   6.650   5.471 -1.3620  1.2143 -1.5480
15998TIP3   OH269484   3.569   6.483   5.408 -0.3487 -0.6268 -0.1540
15998TIP3    H169485   3.548   6.438   5.491 -2.3738 -1.4651 -1.0566
15998TIP3    H269486   3.547   6.574   5.424  0.3352 -0.5766  0.5674
15999TIP3   OH269487   1.234   5.732  11.736  0.0708 -0.4187 -0.9538
15999TIP3    H169488   1.248   5.655  11.681  0.8010 -1.1398  0.2004
15999TIP3    H269489   1.233   5.806  11.675  0.4052 -1.2341 -1.9685
16000TIP3   OH269490   4.558   2.937  15.065  0.2776 -0.2198 -0.6878
16000TIP3    H169491   4.607   2.953  15.146 -0.0636 -0.4204 -0.4411
16000TIP3    H269492   4.599   2.994  15.001  1.0902 -0.6616 -0.5774
16001TIP3   OH269493   2.752   3.896  15.906 -0.4589 -0.3043  0.1265
16001TIP3    H169494   2.840   3.928  15.886 -0.7221  1.1701  1.1145
16001TIP3    H269495   2.695   3.971  15.886 -1.4801 -1.1788 -0.3279
16002TIP3   OH269496   4.197   1.861  11.976  0.0124 -0.0674  0.3509
16002TIP3    H169497   4.242   1.844  11.894 -0.1777  2.7708 -0.4637
16002TIP3    H269498   4.105   1.839  11.959  0.2251 -0.9881  0.3506
16003TIP3   OH269499   2.658   2.081   5.131  0.1568  0.0991 -0.5363
16003TIP3    H169500   2.751   2.075   5.150  0.1809 -0.8489 -0.9026
16003TIP3    H269501   2.643   2.016   5.062 -0.4288  1.5437 -1.8301
16004TIP3   OH269502   3.487   2.535  15.586 -0.1347  0.4667  0.1035
16004TIP3    H169503   3.531   2.512  15.505 -1.2248  2.5785 -1.1779
16004TIP3    H269504   3.429   2.461  15.605  1.3640 -0.7912 -0.0675
16005TIP3   OH269505   6.733   1.714   2.074  0.6283 -0.1462  0.3179
16005TIP3    H169506   6.682   1.743   2.149  2.7142  1.7818  1.1097
16005TIP3    H269507   6.671   1.715   2.001 -0.4315  2.4572  1.1515
16006TIP3   OH269508   4.441   6.342   1.529  0.0221  0.0725 -0.1114
16006TIP3    H169509   4.447   6.435   1.552  0.4368  0.6888 -2.4037
16006TIP3    H269510   4.363   6.336   1.473 -0.5049 -1.1599  0.7004
16007TIP3   OH269511   6.556   4.670   0.226 -0.6033 -0.3702 -0.0260
16007TIP3    H169512   6.505   4.605   0.178 -1.7820  1.3502 -1.2162
16007TIP3    H269513   6.528   4.660   0.317 -0.3678 -1.8570 -0.1010
16008TIP3   OH269514   5.249   4.472  13.167 -0.2079  0.5964  0.4466
16008TIP3    H169515   5.281   4.383  13.152  0.6313  0.5353  2.3099
16008TIP3    H269516   5.182   4.463  13.235 -0.8864  1.2674 -0.1157
16009TIP3   OH269517   5.984   2.149  15.971  0.6519  0.1944 -0.1298
16009TIP3    H169518   5.891   2.156  15.994  0.3837  0.5091 -1.2518
16009TIP3    H269519   6.026   2.223  16.015  0.5998 -0.6395  1.3865
16010TIP3   OH269520   0.046   4.287  16.056  0.2407 -0.3760  0.0314
16010TIP3    H169521   0.123   4.256  16.009  0.4468 -0.3971  0.3778
16010TIP3    H269522   0.010   4.356  16.001  0.8920  0.0966  0.1917
16011TIP3   OH269523   1.581   2.161  14.897  0.6127  0.0929 -0.4759
16011TIP3    H169524   1.671   2.136  14.879  1.0104  1.5944 -0.6490
16011TIP3    H269525   1.553   2.209  14.820 -0.0304  0.4446 -0.0346
16012TIP3   OH269526   5.437   4.795  13.570 -0.0460 -0.1685 -0.8455
16012TIP3    H169527   5.510   4.750  13.528  0.7119 -0.5627  0.8037
16012TIP3    H269528   5.359   4.752  13.535  0.5068 -0.0035 -2.3466
16013TIP3   OH269529   4.498   6.000  14.804 -0.6424  0.0208  0.3317
16013TIP3    H169530   4.514   5.933  14.737  0.2566  0.5028  0.0543
16013TIP3    H269531   4.575   6.056  14.801  0.5262 -1.2340  3.2973
16014TIP3   OH269532   2.211   2.526  15.398  0.1402  0.4007 -0.0947
16014TIP3    H169533   2.157   2.448  15.406  1.7154 -0.8988 -1.3056
16014TIP3    H269534   2.203   2.551  15.306  1.1534  0.4659 -0.1821
16015TIP3   OH269535   2.580   0.830   1.482  0.5718 -0.4146 -0.6217
16015TIP3    H169536   2.661   0.857   1.526  0.7548 -1.4810 -0.2665
16015TIP3    H269537   2.514   0.832   1.551  0.6064 -0.9357 -0.5685
16016TIP3   OH269538   4.730   3.869   1.867 -0.1474  1.1299  0.1527
16016TIP3    H169539   4.727   3.807   1.794  0.2333  0.1045  0.9830
16016TIP3    H269540   4.783   3.942   1.835  0.6972  0.3191 -0.3328
16017TIP3   OH269541   3.984   2.562   5.934  0.8508 -0.0279  0.7403
16017TIP3    H169542   3.983   2.621   5.859  1.0021  0.5592  1.1918
16017TIP3    H269543   4.066   2.513   5.925  0.2226 -0.9412 -0.2123
16018TIP3   OH269544   5.098   4.629  13.640  0.2225 -0.3774  0.1979
16018TIP3    H169545   5.172   4.576  13.668 -0.2473 -0.5785  1.1151
16018TIP3    H269546   5.120   4.718  13.668 -0.8985 -0.7968  2.7179
16019TIP3   OH269547   3.086   0.355  15.930 -0.2043  0.3600  0.4990
16019TIP3    H169548   3.097   0.439  15.886 -0.6704 -0.4791 -1.3016
16019TIP3    H269549   2.992   0.336  15.922  0.0890 -0.8971 -0.2200
16020TIP3   OH269550   4.895   0.887   1.626 -0.6983 -0.1257 -0.0110
16020TIP3    H169551   4.814   0.867   1.672 -0.5291  0.2066  0.4360
16020TIP3    H269552   4.919   0.805   1.583 -0.6300 -0.5716  0.8518
16021TIP3   OH269553   3.444   5.313   0.955 -0.1537  0.5577 -0.4069
16021TIP3    H169554   3.464   5.249   0.886 -0.2509  0.5610 -0.4381
16021TIP3    H269555   3.446   5.397   0.911  0.3546  0.6136 -0.2875
16022TIP3   OH269556   6.674   4.405  16.404  1.0816 -0.8419  0.0472
16022TIP3    H169557   6.753   4.362  16.438 -0.0394 -1.5804  1.8412
16022TIP3    H269558   6.634   4.447  16.480 -1.6795 -2.7928 -0.1755
16023TIP3   OH269559   0.786   3.723   3.210 -0.2478  0.3147 -0.0979
16023TIP3    H169560   0.802   3.801   3.262  0.4399 -0.9498  1.7060
16023TIP3    H269561   0.771   3.654   3.275 -0.4198 -1.1374 -1.6156
16024TIP3   OH269562   0.763   0.307   6.592 -0.2075 -0.2879 -0.0316
16024TIP3    H169563   0.780   0.276   6.681 -1.1160 -0.5791  0.0592
16024TIP3    H269564   0.846   0.342   6.562  0.2842 -0.8051  0.6886
16025TIP3   OH269565   6.248   3.777   0.780 -0.1991  0.1102  0.3368
16025TIP3    H169566   6.187   3.850   0.775 -0.4029 -0.1505 -1.7172
16025TIP3    H269567   6.333   3.818   0.796 -0.1466  0.9550 -1.7161
16026TIP3   OH269568   5.935   4.297   4.035  0.5040 -0.0098 -0.6161
16026TIP3    H169569   5.860   4.269   4.088 -0.1853  1.7144 -0.6075
16026TIP3    H269570   6.006   4.239   4.061 -0.7734 -1.6337 -0.5429
16027TIP3   OH269571   4.439   0.913   5.001  0.0666  0.1932  0.2082
16027TIP3    H169572   4.481   0.898   5.086  1.4332  0.9279 -0.3031
16027TIP3    H269573   4.370   0.977   5.019 -0.1624 -0.2311  0.8821
16028TIP3   OH269574   4.853   5.995  15.200  0.1538  0.4074  0.2657
16028TIP3    H169575   4.789   6.037  15.142 -0.1456 -1.7176 -1.0426
16028TIP3    H269576   4.802   5.930  15.248  1.2614 -1.1902 -0.6655
16029TIP3   OH269577   0.839   0.461   0.660  0.3821  0.0622 -0.1795
16029TIP3    H169578   0.766   0.503   0.616 -0.2663  1.3295  1.9355
16029TIP3    H269579   0.805   0.376   0.689  0.6057 -0.4814 -1.4649
16030TIP3   OH269580   5.642   5.454   5.411  0.0194  0.0001  0.2074
16030TIP3    H169581   5.636   5.491   5.323  0.6069  1.1451  0.6322
16030TIP3    H269582   5.579   5.381   5.410 -1.4515  1.2127 -0.5599
16031TIP3   OH269583   1.908   5.683   3.664  0.3367 -0.6466  0.3003
16031TIP3    H169584   1.969   5.665   3.593 -0.0813 -1.1332  0.0530
16031TIP3    H269585   1.895   5.777   3.662 -0.1277 -0.7240 -0.6603
16032TIP3   OH269586   5.889   2.831  16.286  0.4419 -0.2726 -0.4601
16032TIP3    H169587   5.902   2.898  16.353  0.8810 -0.5240 -0.2855
16032TIP3    H269588   5.972   2.829  16.238  0.8860 -1.5194  0.3055
16033TIP3   OH269589   6.280   1.616   3.033  0.2380  0.5271 -0.0207
16033TIP3    H169590   6.240   1.558   3.098  1.0534  1.6524  1.5520
16033TIP3    H269591   6.214   1.684   3.019  0.0783  0.3063 -0.3411
16034TIP3   OH269592   5.095   5.090   2.734 -0.5304  0.5400  0.0706
16034TIP3    H169593   5.037   5.090   2.811  0.1329  0.1223  0.5858
16034TIP3    H269594   5.036   5.078   2.660 -1.0824 -0.2386  0.6150
16035TIP3   OH269595   3.922   2.852   3.261  0.3176  0.0966 -0.7173
16035TIP3    H169596   3.956   2.765   3.236  0.0228 -0.7149  1.4899
16035TIP3    H269597   3.879   2.837   3.345  0.2090  2.4009 -0.3173
16036TIP3   OH269598   1.107   6.322   6.182 -0.0280  0.3487 -0.1245
16036TIP3    H169599   1.036   6.363   6.229 -1.3854  0.9308 -2.5331
16036TIP3    H269600   1.184   6.334   6.238 -1.3744  1.6517  1.5218
16037TIP3   OH269601   2.599   1.600   2.777  0.6634  0.1795  0.3392
16037TIP3    H169602   2.647   1.679   2.800 -0.4205  0.6130  1.1398
16037TIP3    H269603   2.629   1.534   2.840 -0.5174  0.7214  1.4963
16038TIP3   OH269604   2.294   6.044   0.599 -0.4005  0.5688 -0.1660
16038TIP3    H169605   2.384   6.014   0.585 -0.6772  0.4014 -1.7905
16038TIP3    H269606   2.271   6.012   0.686  0.7844 -0.1984 -0.1136
16039TIP3   OH269607   3.355   3.854  11.773  0.4753 -0.1042 -0.1275
16039TIP3    H169608   3.378   3.779  11.829 -0.6798 -0.8197 -0.5908
16039TIP3    H269609   3.293   3.819  11.710 -0.2406  1.2942 -0.2344
16040TIP3   OH269610   2.394   2.892  17.375 -0.3228  0.7741 -0.1287
16040TIP3    H169611   2.335   2.830  17.331  0.8659 -0.3816 -0.1804
16040TIP3    H269612   2.459   2.915  17.308 -0.4245  1.6521  0.0606
16041TIP3   OH269613   4.723   1.260   1.804  0.1634 -0.1609 -0.2814
16041TIP3    H169614   4.806   1.263   1.852 -0.3575 -1.4632  0.7677
16041TIP3    H269615   4.733   1.324   1.734  0.6274  2.5165  2.0719
16042TIP3   OH269616   1.352   0.808  12.847  0.6650 -0.4056  0.2599
16042TIP3    H169617   1.312   0.895  12.846  1.3624 -0.0733 -1.1683
16042TIP3    H269618   1.288   0.753  12.892  0.1256  0.7938  1.0111
16043TIP3   OH269619   5.632   1.442   3.716  0.0227 -0.2786 -0.4589
16043TIP3    H169620   5.719   1.426   3.680  0.2901 -0.3187  0.1858
16043TIP3    H269621   5.643   1.431   3.810 -1.1216 -2.4048 -0.5155
16044TIP3   OH269622   2.918   2.391   6.024  0.3496  0.1971 -0.2376
16044TIP3    H169623   3.003   2.365   5.987 -0.3358 -1.3723 -0.7906
16044TIP3    H269624   2.883   2.453   5.961  0.9582  0.6510 -0.1430
16045TIP3   OH269625   0.099   4.640  17.506 -0.0894 -0.2798  0.0448
16045TIP3    H169626   0.145   4.609  17.428 -0.7203  0.8855 -0.8267
16045TIP3    H269627   0.037   4.570  17.527 -0.6850 -0.1416 -1.1757
16046TIP3   OH269628   4.921   5.075  11.400 -0.6979  0.4189  0.3229
16046TIP3    H169629   4.893   5.059  11.310  0.6084  0.3336 -0.0888
16046TIP3    H269630   4.913   5.170  11.411  0.7550  0.6668 -0.4816
16047TIP3   OH269631   0.058   1.869  16.446  0.1058  0.3413  0.5615
16047TIP3    H169632  -0.022   1.833  16.485 -0.1568  0.9346  0.5847
16047TIP3    H269633   0.028   1.944  16.394  0.2937 -1.0437 -1.7077
16048TIP3   OH269634   3.180   1.810  14.045  0.0651 -0.2157 -0.1535
16048TIP3    H169635   3.126   1.872  13.997  1.1361  1.0322  0.2165
16048TIP3    H269636   3.129   1.791  14.124 -1.3983 -1.7766 -1.3857
16049TIP3   OH269637   2.793   3.961  13.803 -0.0119 -0.2457  0.0018
16049TIP3    H169638   2.872   4.000  13.842 -0.0630 -0.5254  0.3856
16049TIP3    H269639   2.745   4.036  13.766 -2.1503  0.7473  4.1875
16050TIP3   OH269640   3.918   3.854   6.296 -0.0581  0.0814 -0.1518
16050TIP3    H169641   3.876   3.769   6.312 -1.3454  0.6210 -0.5210
16050TIP3    H269642   3.956   3.878   6.380 -0.2306 -0.5697  0.1180
16051TIP3   OH269643   1.255   3.537  15.455  0.0876  0.2379  0.3606
16051TIP3    H169644   1.315   3.586  15.511 -0.4217  1.2770  0.0173
16051TIP3    H269645   1.186   3.506  15.514 -0.3694  1.2059  0.3542
16052TIP3   OH269646   2.547   3.410   4.555  0.1866  0.0790  0.7582
16052TIP3    H169647   2.609   3.469   4.513  1.6117 -0.5763  1.8734
16052TIP3    H269648   2.461   3.438   4.523  1.1560 -0.5773 -2.8577
16053TIP3   OH269649   0.191   4.224   1.194  0.5562  0.6978  0.0856
16053TIP3    H169650   0.205   4.174   1.275  2.3554  0.8179 -0.1249
16053TIP3    H269651   0.137   4.298   1.222 -0.6954 -0.4168  0.7306
16054TIP3   OH269652   2.389   4.240  13.614 -0.5980 -0.1876 -0.4379
16054TIP3    H169653   2.483   4.248  13.633 -0.4505 -0.0154 -1.1970
16054TIP3    H269654   2.365   4.155  13.649 -0.1175 -0.3024 -0.3765
16055TIP3   OH269655   5.189   4.761   3.193 -0.1215 -0.2883 -0.2569
16055TIP3    H169656   5.270   4.733   3.236  0.8242  0.5567 -1.4009
16055TIP3    H269657   5.138   4.801   3.263  1.2884  0.8708  0.1670
16056TIP3   OH269658   5.282   2.806  16.727  0.1986 -0.0280 -0.7650
16056TIP3    H169659   5.199   2.759  16.723  0.5723 -0.8852  0.8473
16056TIP3    H269660   5.346   2.740  16.752  0.6914  1.3374  1.9272
16057TIP3   OH269661   0.871   0.103   0.201  0.5198 -0.0529  0.1219
16057TIP3    H169662   0.939   0.100   0.268 -0.0240  3.0129  0.9599
16057TIP3    H269663   0.808   0.036   0.227  2.0450 -1.3580  0.6124
16058TIP3   OH269664   4.284   5.984   2.748  0.0435  0.1261 -0.0936
16058TIP3    H169665   4.324   5.922   2.687 -1.7352 -4.1342  2.5833
16058TIP3    H269666   4.330   5.969   2.831 -1.6082  1.1574  1.0722
16059TIP3   OH269667   3.742   2.096   3.667  1.0192 -0.3485 -0.1000
16059TIP3    H169668   3.826   2.132   3.698  0.7264 -0.2590  0.6131
16059TIP3    H269669   3.755   2.002   3.667  0.5802 -0.4448  1.7006
16060TIP3   OH269670   1.005   6.391  12.465  0.6117 -0.1966  0.0441
16060TIP3    H169671   0.994   6.306  12.423 -2.1728 -0.8474  1.8581
16060TIP3    H269672   1.066   6.374  12.537 -0.0033 -0.6853  0.4538
16061TIP3   OH269673   1.657   0.051   4.266 -0.4281 -0.5083 -0.7890
16061TIP3    H169674   1.701   0.128   4.302 -1.4773  0.2053 -0.9698
16061TIP3    H269675   1.707  -0.024   4.298  1.4887  0.2860 -1.7700
16062TIP3   OH269676   2.367   0.533   5.653 -0.1063  0.3398  0.4214
16062TIP3    H169677   2.372   0.438   5.669 -3.1375 -0.0570 -0.3881
16062TIP3    H269678   2.455   0.557   5.625  1.1660 -1.9164  2.1142
16063TIP3   OH269679   0.459   4.533   5.616  0.1225 -0.1737 -0.3025
16063TIP3    H169680   0.485   4.619   5.584 -0.0240 -0.1299 -0.3010
16063TIP3    H269681   0.532   4.476   5.592  0.7234  0.1575  0.6394
16064TIP3   OH269682   6.118   4.476  15.004  0.0192  0.2402 -0.7869
16064TIP3    H169683   6.048   4.435  15.055 -1.0072  0.3918 -2.0267
16064TIP3    H269684   6.110   4.570  15.023 -0.5423  0.3257 -1.4308
16065TIP3   OH269685   6.242   1.740  12.619 -0.3923 -0.1584 -0.3868
16065TIP3    H169686   6.301   1.673  12.652  0.1953 -0.3843 -1.7919
16065TIP3    H269687   6.204   1.701  12.540 -0.1646  1.0824 -1.1349
16066TIP3   OH269688   5.010   4.919  14.377  0.3148  0.1562 -0.1512
16066TIP3    H169689   4.942   4.933  14.312 -1.4404 -0.1724  1.5396
16066TIP3    H269690   5.086   4.891  14.326 -1.3136 -1.2359 -1.9757
16067TIP3   OH269691   5.523   5.867   2.181 -0.3602  0.2095 -0.1005
16067TIP3    H169692   5.598   5.869   2.121 -1.2266 -0.1015 -1.2301
16067TIP3    H269693   5.561   5.851   2.267  0.6899 -2.5547 -0.9796
16068TIP3   OH269694   2.077   3.991  17.116  0.2040 -0.1945  0.0344
16068TIP3    H169695   2.063   3.927  17.045  2.9706 -0.1075 -0.6985
16068TIP3    H269696   2.014   3.966  17.183 -0.2792 -2.3671 -1.1241
16069TIP3   OH269697   3.690   6.055   1.904 -0.5824  0.5942 -0.1388
16069TIP3    H169698   3.658   6.135   1.947 -0.2309  0.2631  0.7543
16069TIP3    H269699   3.625   5.988   1.925 -0.1795  0.3232  0.2461
16070TIP3   OH269700   6.523   1.484   1.681 -0.4027  0.0490 -0.3499
16070TIP3    H169701   6.586   1.553   1.660  2.5897 -2.1066  0.9772
16070TIP3    H269702   6.504   1.496   1.774  0.7439 -1.2946  0.0881
16071TIP3   OH269703   5.535   5.726  13.781 -0.3114 -0.6358 -0.6029
16071TIP3    H169704   5.604   5.713  13.846  0.0682  1.0831 -0.6339
16071TIP3    H269705   5.457   5.747  13.832 -0.0947  0.3692 -0.6692
16072TIP3   OH269706   2.237   2.928   4.757 -0.2428 -0.2655 -0.0031
16072TIP3    H169707   2.211   2.934   4.665 -1.0311 -2.7106  0.0079
16072TIP3    H269708   2.154   2.926   4.806  0.1634  1.8067  0.8883
16073TIP3   OH269709   1.138   0.515  15.604 -0.2169 -0.1256 -0.5245
16073TIP3    H169710   1.131   0.440  15.663  2.0898  1.5432  2.1446
16073TIP3    H269711   1.221   0.502  15.558  0.9950  1.3662  1.0811
16074TIP3   OH269712   4.938   3.095   2.987 -0.5311  0.3790  0.4492
16074TIP3    H169713   4.998   3.167   2.965 -1.2688  0.6648 -0.7170
16074TIP3    H269714   4.858   3.116   2.940 -0.3379 -1.8843 -1.0220
16075TIP3   OH269715   4.579   4.812  13.681 -0.0157 -0.0885 -0.1961
16075TIP3    H169716   4.661   4.808  13.731  0.4980 -0.8795 -1.0790
16075TIP3    H269717   4.516   4.763  13.734  0.2113  0.0829  0.2377
16076TIP3   OH269718   5.830   6.209  17.100 -0.2139  0.2615  0.9845
16076TIP3    H169719   5.856   6.177  17.014  0.9472 -1.0086  1.7643
16076TIP3    H269720   5.735   6.197  17.103 -1.1105  4.4274 -1.7159
16077TIP3   OH269721   5.051   2.497   5.150 -0.0703 -0.3790  0.4098
16077TIP3    H169722   5.103   2.449   5.214  0.3539 -0.0167  0.3354
16077TIP3    H269723   4.973   2.442   5.138  0.2425 -0.8728  0.5913
16078TIP3   OH269724   0.406   0.959  16.277 -0.1461 -0.0675  0.1563
16078TIP3    H169725   0.373   1.049  16.280  1.2760  0.5558 -1.1213
16078TIP3    H269726   0.471   0.961  16.207 -1.2221 -2.5076 -1.0036
16079TIP3   OH269727   1.948   5.312   0.998 -0.1922 -0.4012  0.7313
16079TIP3    H169728   1.867   5.361   1.012 -0.6023 -0.3200 -1.5379
16079TIP3    H269729   1.929   5.255   0.924  1.7967 -0.4757  0.2188
16080TIP3   OH269730   5.870   4.042   5.890  0.3353  0.4905  0.2937
16080TIP3    H169731   5.827   3.968   5.847 -0.2311  0.9843 -0.0108
16080TIP3    H269732   5.798   4.101   5.912  0.9112  1.5484 -0.6269
16081TIP3   OH269733   5.977   4.157  12.189  0.2518  0.6744 -0.7698
16081TIP3    H169734   6.021   4.220  12.245 -0.4609  1.1092 -0.6855
16081TIP3    H269735   5.899   4.202  12.158 -1.4562 -0.8396  1.0386
16082TIP3   OH269736   0.954   6.248   1.746  0.6119 -0.3718  0.1020
16082TIP3    H169737   0.949   6.311   1.817  2.9136  0.4208 -0.3601
16082TIP3    H269738   0.986   6.168   1.787  1.8479  0.0585  0.0148
16083TIP3   OH269739   4.195   5.150   3.665  0.3042 -0.2424 -0.5021
16083TIP3    H169740   4.254   5.216   3.701  1.2683 -0.0724 -2.2598
16083TIP3    H269741   4.234   5.066   3.690 -1.4697 -0.2716  2.6157
16084TIP3   OH269742   2.910   0.416  15.474  0.2972  0.1737  0.1296
16084TIP3    H169743   2.875   0.327  15.475  0.7190  0.0071  0.1374
16084TIP3    H269744   2.907   0.442  15.382  0.9297 -0.1528  0.0103
16085TIP3   OH269745   0.845   1.991   5.789  0.1274  0.0009  0.1557
16085TIP3    H169746   0.774   2.025   5.844  0.9707  0.3653  1.0344
16085TIP3    H269747   0.852   1.899   5.815 -0.4961 -0.2341 -0.4595
16086TIP3   OH269748   6.231   5.410  11.841  0.3799  0.3524  0.5742
16086TIP3    H169749   6.287   5.338  11.869  0.2424  0.4720  1.1749
16086TIP3    H269750   6.157   5.408  11.902 -0.0196  0.5063  0.1035
16087TIP3   OH269751   4.661   0.704   5.918  0.2592  0.3697  0.1051
16087TIP3    H169752   4.719   0.749   5.980  2.5946 -1.5749 -0.4749
16087TIP3    H269753   4.677   0.611   5.935 -3.0273 -0.3050  0.0962
16088TIP3   OH269754   6.385   5.731   6.883 -0.3324  0.1547  0.0590
16088TIP3    H169755   6.471   5.765   6.858 -0.0453  1.1298  2.0883
16088TIP3    H269756   6.348   5.800   6.939 -1.7799 -0.9033  0.4629
16089TIP3   OH269757   0.739   4.727   1.586 -0.6793  0.2253  0.4974
16089TIP3    H169758   0.762   4.795   1.522 -2.1990 -0.6525 -1.0598
16089TIP3    H269759   0.658   4.758   1.626 -1.0242 -0.3578  0.2555
16090TIP3   OH269760   4.040   2.584   5.146  0.3592 -0.6017  0.1528
16090TIP3    H169761   4.040   2.585   5.242  2.8601  0.0993  0.2090
16090TIP3    H269762   4.121   2.539   5.122  0.0053 -0.3615 -1.6432
16091TIP3   OH269763   3.960   1.903   3.377 -0.0900 -0.4787 -0.3402
16091TIP3    H169764   3.943   1.996   3.364  0.9718 -0.3233 -0.7071
16091TIP3    H269765   3.956   1.865   3.289  0.7495 -0.5492 -0.3540
16092TIP3   OH269766   4.668   6.417  15.728  0.3331 -0.0672  0.0624
16092TIP3    H169767   4.691   6.507  15.753  4.0483 -0.8607  0.0676
16092TIP3    H269768   4.575   6.409  15.751 -0.6017  4.1536 -1.2345
16093TIP3   OH269769   2.766   5.418  14.339 -0.6082 -0.7650 -0.2149
16093TIP3    H169770   2.691   5.460  14.381  0.4155  1.3190 -0.3377
16093TIP3    H269771   2.758   5.441  14.247  0.5667  0.1501 -0.1094
16094TIP3   OH269772   2.829   4.311   3.549 -0.3040  0.1422  0.0346
16094TIP3    H169773   2.889   4.285   3.619 -1.9741 -0.6656  1.2170
16094TIP3    H269774   2.821   4.406   3.559  1.8852  0.5009 -1.0919
16095TIP3   OH269775   0.396   3.842   2.106 -0.3361  0.0372 -0.3561
16095TIP3    H169776   0.384   3.811   2.017 -0.4367 -0.5120 -0.1519
16095TIP3    H269777   0.313   3.885   2.127  0.4688  2.2390 -1.3294
16096TIP3   OH269778   2.392   2.266  15.051 -0.0013 -0.3725  0.1670
16096TIP3    H169779   2.309   2.275  15.097  0.0805 -0.7686  0.4024
16096TIP3    H269780   2.401   2.346  15.000 -0.1318  0.0361  0.7753
16097TIP3   OH269781   0.619   0.929  16.080 -0.6614  0.1741 -0.1054
16097TIP3    H169782   0.712   0.948  16.084 -0.6316  0.0201  3.3540
16097TIP3    H269783   0.614   0.833  16.082 -0.8610  0.1834 -0.1297
16098TIP3   OH269784   2.306   2.584   1.521 -0.1261 -0.0345 -0.5765
16098TIP3    H169785   2.289   2.502   1.568  2.2647  0.5145  1.4880
16098TIP3    H269786   2.244   2.647   1.558  0.2771 -0.1411  0.3063
16099TIP3   OH269787   3.288   5.856  11.521 -0.7368 -0.2226  0.1015
16099TIP3    H169788   3.204   5.864  11.566 -0.5347  0.8702  0.3041
16099TIP3    H269789   3.353   5.882  11.586 -0.4960  2.2897 -1.0240
16100TIP3   OH269790   0.695   5.176   2.516  0.2764  0.1419  0.4409
16100TIP3    H169791   0.694   5.193   2.610 -0.8742  1.8224  0.1808
16100TIP3    H269792   0.613   5.130   2.499 -0.2548  1.1641  0.0979
16101TIP3   OH269793   5.024   4.383   0.855 -0.0383  0.4669  0.1331
16101TIP3    H169794   5.045   4.475   0.841 -1.8295  0.9003  0.1250
16101TIP3    H269795   4.930   4.377   0.844  0.1720 -1.6302 -1.2381
16102TIP3   OH269796   4.177   4.759   1.052 -0.9260  0.2701 -0.2146
16102TIP3    H169797   4.217   4.827   1.107 -1.4938  1.4299 -1.1771
16102TIP3    H269798   4.228   4.681   1.070 -0.4164  0.8768  1.1446
16103TIP3   OH269799   3.548   2.453  12.441  0.3682  0.1193  0.1732
16103TIP3    H169800   3.562   2.403  12.360  0.4915 -1.3372  1.0428
16103TIP3    H269801   3.589   2.538  12.425  1.3210 -0.5153 -0.9161
16104TIP3   OH269802   4.752   3.600   2.770 -0.1995  0.0395  0.4642
16104TIP3    H169803   4.847   3.609   2.759 -0.3235  0.5560 -0.2317
16104TIP3    H269804   4.740   3.509   2.795  0.3219 -0.6455 -1.5741
16105TIP3   OH269805   4.903   6.679   0.379  0.3053 -0.5849  1.0020
16105TIP3    H169806   4.997   6.665   0.379  0.1812 -1.5047  0.1868
16105TIP3    H269807   4.888   6.743   0.449  1.5822 -0.0283  0.7849
16106TIP3   OH269808   3.724   1.316  14.045 -0.3343  0.3860 -0.0558
16106TIP3    H169809   3.641   1.324  14.091 -0.8136 -0.9914 -0.6234
16106TIP3    H269810   3.738   1.402  14.006 -1.1019  0.8611  0.6853
16107TIP3   OH269811   1.590   2.844  13.075 -0.0483 -0.0224  0.1444
16107TIP3    H169812   1.631   2.908  13.133 -3.0576  1.7746  0.5175
16107TIP3    H269813   1.560   2.774  13.134  0.2393 -0.0980  0.2035
16108TIP3   OH269814   4.028   3.882   6.026  0.4714 -0.5983  0.0109
16108TIP3    H169815   4.100   3.942   6.043 -1.3754  1.9356 -0.4607
16108TIP3    H269816   3.984   3.874   6.111  0.1878 -0.5524 -0.1319
16109TIP3   OH269817   0.928   6.361  13.552 -0.3337  0.2423 -0.8503
16109TIP3    H169818   0.841   6.376  13.516 -0.4651 -1.6681 -1.4810
16109TIP3    H269819   0.958   6.447  13.580 -1.7687  1.2094 -2.1052
16110TIP3   OH269820   2.798   2.774  16.059 -0.0673  0.3402  0.0585
16110TIP3    H169821   2.780   2.867  16.048 -0.5392  0.1596 -0.8071
16110TIP3    H269822   2.839   2.767  16.145  0.4002  1.4039 -0.0663
16111TIP3   OH269823   2.815   5.096  15.687 -0.1381  0.1431  0.2063
16111TIP3    H169824   2.808   5.143  15.603  1.8773 -0.8826 -0.6034
16111TIP3    H269825   2.833   5.165  15.751 -0.0085  0.7679 -0.4826
16112TIP3   OH269826   6.236   0.910   0.671  0.3243 -0.1222 -0.2679
16112TIP3    H169827   6.248   0.943   0.760 -1.3953 -0.3880  0.0826
16112TIP3    H269828   6.293   0.833   0.667  2.4672  1.3568 -0.3043
16113TIP3   OH269829   3.045   3.143  11.839 -0.0852 -0.2940  0.4907
16113TIP3    H169830   3.070   3.059  11.876  0.2256 -1.2167 -1.6452
16113TIP3    H269831   3.031   3.125  11.746 -0.0778  2.0085 -0.0265
16114TIP3   OH269832   3.160   3.032   3.710  0.9250 -0.3465 -0.4175
16114TIP3    H169833   3.143   2.983   3.630  1.6826 -1.1127 -0.1268
16114TIP3    H269834   3.096   3.000   3.773  0.6010 -0.0484 -0.5969
16115TIP3   OH269835   3.672   4.427   2.780 -0.0367 -0.1953  0.1257
16115TIP3    H169836   3.654   4.487   2.853  2.1384 -0.8428  1.3107
16115TIP3    H269837   3.736   4.365   2.816  0.5918 -0.9633 -2.1487
16116TIP3   OH269838   1.536   0.746   3.795  0.1221  0.4637  0.0262
16116TIP3    H169839   1.493   0.819   3.752 -1.2345 -0.2372  0.1355
16116TIP3    H269840   1.470   0.711   3.856  1.5081  0.5734  1.6796
16117TIP3   OH269841   2.435   6.303   2.773 -0.2782 -0.2936  0.4479
16117TIP3    H169842   2.502   6.329   2.711 -1.2464 -2.0194 -1.4428
16117TIP3    H269843   2.458   6.214   2.798 -1.4344 -0.6520  0.3167
16118TIP3   OH269844   4.000   2.728  11.602  0.2989  0.3888  0.1613
16118TIP3    H169845   4.041   2.651  11.640  1.0105  0.1087 -1.0981
16118TIP3    H269846   3.958   2.696  11.522 -0.7231  1.0334  0.4215
16119TIP3   OH269847   0.154   5.823  13.326  0.1260 -0.0882 -0.0047
16119TIP3    H169848   0.120   5.736  13.345 -1.2322  0.1216 -1.2795
16119TIP3    H269849   0.133   5.875  13.403  0.1306 -0.6602  0.3911
16120TIP3   OH269850   2.738   0.889  14.107  0.7263  0.1628 -0.6711
16120TIP3    H169851   2.789   0.814  14.138  1.6011 -0.1368 -2.6934
16120TIP3    H269852   2.655   0.852  14.079 -0.6660  0.6162  2.3674
16121TIP3   OH269853   2.928   1.634  13.664  0.6913  0.3021 -0.3191
16121TIP3    H169854   2.960   1.549  13.696  1.0846  0.5185 -0.1386
16121TIP3    H269855   3.005   1.679  13.631  0.8112  1.3245  1.2398
16122TIP3   OH269856   1.823   3.996   1.310 -0.3203 -0.8796 -0.3101
16122TIP3    H169857   1.889   4.026   1.247  1.0402  0.1012  1.4798
16122TIP3    H269858   1.838   4.050   1.388 -3.4212 -0.4516  0.1199
16123TIP3   OH269859   4.546   4.245   4.599  0.3626  0.0133 -0.3490
16123TIP3    H169860   4.517   4.327   4.560  1.4654  1.5907  1.8655
16123TIP3    H269861   4.577   4.270   4.687 -2.2439 -3.2323  1.7510
16124TIP3   OH269862   3.996   0.940  16.915  1.1149 -0.1467 -0.2204
16124TIP3    H169863   4.080   0.908  16.949  0.8514 -0.7601 -0.1329
16124TIP3    H269864   4.016   0.973  16.827  0.9550 -3.0206 -1.4473
16125TIP3   OH269865   6.320   2.430   5.353  0.5791 -0.5070 -0.5581
16125TIP3    H169866   6.373   2.501   5.317 -0.3721  0.3965 -0.2327
16125TIP3    H269867   6.284   2.466   5.434 -0.2656 -1.2119 -0.6045
16126TIP3   OH269868   4.867   2.108  13.233 -0.4514 -0.8503 -0.4019
16126TIP3    H169869   4.892   2.057  13.310  0.6689  0.2381 -0.0096
16126TIP3    H269870   4.800   2.168  13.265  2.2411  1.8652  0.6600
16127TIP3   OH269871   6.146   2.979  13.653 -0.2352  0.4122 -0.2178
16127TIP3    H169872   6.227   3.028  13.666 -0.1924  0.1853  0.3958
16127TIP3    H269873   6.170   2.888  13.671 -0.6398  0.3562  0.0522
16128TIP3   OH269874   0.945   1.560   0.340  0.2902  0.3389  0.7793
16128TIP3    H169875   0.955   1.508   0.419 -2.0220 -2.4733 -0.6108
16128TIP3    H269876   1.009   1.523   0.279  2.2019  2.6193  1.2238
16129TIP3   OH269877   2.822   5.796   0.154  0.2194  0.3736  0.2311
16129TIP3    H169878   2.868   5.808   0.071  0.0580  0.6736  0.1831
16129TIP3    H269879   2.746   5.742   0.132  0.3015  0.2580  0.2283
16130TIP3   OH269880   4.728   3.368  15.077  0.0012 -0.4563 -0.4201
16130TIP3    H169881   4.770   3.436  15.128 -0.6978 -0.5608  0.3094
16130TIP3    H269882   4.760   3.381  14.988  1.6994 -0.6479  0.1412
16131TIP3   OH269883   1.597   0.748  16.552  0.6180  0.3941 -0.0807
16131TIP3    H169884   1.570   0.839  16.541  0.7025  0.2483 -1.7163
16131TIP3    H269885   1.528   0.697  16.509  1.8632 -0.1444 -1.5348
16132TIP3   OH269886   3.996   3.799  16.033 -0.3624 -0.3748 -0.0638
16132TIP3    H169887   4.071   3.826  15.980  0.5270  3.6191  2.7763
16132TIP3    H269888   3.936   3.874  16.029 -1.4271 -1.0191  2.4236
16133TIP3   OH269889   2.241   0.972   2.507  0.3262 -0.3840 -0.3811
16133TIP3    H169890   2.264   0.989   2.598  1.1808 -1.6421 -0.3414
16133TIP3    H269891   2.300   1.027   2.456 -0.1998  0.3725 -0.1886
16134TIP3   OH269892   3.269   0.945   1.427  0.1074  0.2608  0.2754
16134TIP3    H169893   3.197   1.007   1.418  0.0811  0.0034 -2.0500
16134TIP3    H269894   3.251   0.898   1.508 -1.5844  1.1429  0.4536
16135TIP3   OH269895   1.475   4.864   2.739 -0.4117 -0.1196 -0.3685
16135TIP3    H169896   1.535   4.935   2.717  0.8099 -0.3531  1.9739
16135TIP3    H269897   1.463   4.817   2.656  3.4200 -0.6155 -0.8305
16136TIP3   OH269898   2.717   4.715  13.124  0.6001 -0.1934 -0.1560
16136TIP3    H169899   2.773   4.656  13.073  0.9183  0.5234 -0.6520
16136TIP3    H269900   2.628   4.686  13.105  0.7693 -0.7682 -0.0772
16137TIP3   OH269901   2.290   2.183  12.633  0.0266  0.5906 -0.0452
16137TIP3    H169902   2.270   2.098  12.593  0.3273  0.8258 -0.7131
16137TIP3    H269903   2.361   2.166  12.694  1.0396  0.5883 -1.1869
16138TIP3   OH269904   2.645   0.597  13.620 -0.1141 -0.1103  0.1342
16138TIP3    H169905   2.697   0.644  13.685 -0.9702 -2.3962  2.6358
16138TIP3    H269906   2.586   0.664  13.584  2.2465  1.8102 -0.4576
16139TIP3   OH269907   1.205   1.597  15.583  0.8130 -0.0603 -0.0760
16139TIP3    H169908   1.296   1.593  15.612  0.4604 -2.4097  0.9125
16139TIP3    H269909   1.181   1.689  15.591  2.9580  0.5324  0.0476
16140TIP3   OH269910   6.291   1.179   2.325 -0.5388 -0.0686 -0.1020
16140TIP3    H169911   6.272   1.206   2.236  1.7272  1.2285 -0.2556
16140TIP3    H269912   6.205   1.165   2.365 -1.6549  1.5433 -1.8077
16141TIP3   OH269913   5.112   1.359  16.288  0.4936  0.0509  0.0416
16141TIP3    H169914   5.149   1.378  16.375  0.7760 -1.1613  0.1974
16141TIP3    H269915   5.188   1.341  16.233  0.3127  0.8041 -0.4762
16142TIP3   OH269916   3.348   3.929   2.824  0.3256  0.0670 -0.4753
16142TIP3    H169917   3.422   3.983   2.852 -0.0145  0.3811 -0.1704
16142TIP3    H269918   3.355   3.927   2.728  0.8547 -0.0933 -0.4372
16143TIP3   OH269919   1.691   3.632  12.250 -0.0858 -0.5048  0.0637
16143TIP3    H169920   1.723   3.587  12.329 -1.1751  0.1329  0.8925
16143TIP3    H269921   1.600   3.651  12.269 -0.5677 -0.9613 -1.6654
16144TIP3   OH269922   4.461   0.417   6.509  0.0924  0.5852  0.3244
16144TIP3    H169923   4.427   0.505   6.527 -0.4855  0.7387 -1.2780
16144TIP3    H269924   4.497   0.387   6.592 -0.9714  1.7787  1.2604
16145TIP3   OH269925   6.540   3.591  14.426  0.7301  0.2019 -0.0149
16145TIP3    H169926   6.603   3.620  14.359 -1.7264  2.0954 -1.6642
16145TIP3    H269927   6.510   3.672  14.467 -1.3192 -0.5636  0.0775
16146TIP3   OH269928   2.600   2.618   1.748  0.2316 -0.6718 -0.4927
16146TIP3    H169929   2.588   2.685   1.681  0.5343  2.3819  2.2716
16146TIP3    H269930   2.695   2.606   1.753  0.1782 -1.4275 -1.0062
16147TIP3   OH269931   1.703   3.259   5.406  0.1557 -0.4274 -1.3099
16147TIP3    H169932   1.670   3.345   5.433  0.4286 -0.8368  0.4549
16147TIP3    H269933   1.625   3.211   5.376 -0.1808  0.0150 -1.1470
16148TIP3   OH269934   6.608   1.601   5.266 -0.3090 -0.2129  0.0645
16148TIP3    H169935   6.634   1.689   5.292  0.7998  0.2702 -2.4403
16148TIP3    H269936   6.608   1.551   5.348  0.4873  1.7470  1.3304
16149TIP3   OH269937   2.524   3.813   1.617 -0.4572  0.0814 -0.0446
16149TIP3    H169938   2.590   3.752   1.584  1.7869  1.8968  0.7918
16149TIP3    H269939   2.477   3.762   1.683  0.7874 -1.0273  0.0481
16150TIP3   OH269940   2.083   2.725   6.947  0.0911  0.7593  0.2445
16150TIP3    H169941   2.080   2.648   7.004 -3.0071 -1.1904 -2.2060
16150TIP3    H269942   2.029   2.790   6.990 -0.5534  0.0578  0.5198
16151TIP3   OH269943   2.181   6.712  14.176 -0.4247 -0.0107 -0.5215
16151TIP3    H169944   2.205   6.778  14.112 -0.4595  1.0900  0.5725
16151TIP3    H269945   2.262   6.693  14.223 -0.9913  1.5093  1.1760
16152TIP3   OH269946   4.158   3.562   2.619  0.2606  0.6795  0.3735
16152TIP3    H169947   4.112   3.480   2.604 -0.5639  1.1160  0.4322
16152TIP3    H269948   4.251   3.540   2.611  0.0800 -0.3747  0.9918
16153TIP3   OH269949   1.294   4.404  13.946 -0.6789  0.3336  0.2026
16153TIP3    H169950   1.234   4.363  14.008  0.0817  1.1936  1.5502
16153TIP3    H269951   1.253   4.391  13.861 -1.5777 -1.1986  0.8279
16154TIP3   OH269952   4.119   2.457   1.748 -0.1515  0.0847 -0.2539
16154TIP3    H169953   4.110   2.549   1.773  0.0671  0.2189 -0.6589
16154TIP3    H269954   4.181   2.458   1.675 -1.2754 -0.2284 -1.2313
16155TIP3   OH269955   6.407   3.062   2.751  0.0172 -0.5173  0.3896
16155TIP3    H169956   6.375   3.104   2.671  1.3160  1.9340  1.0429
16155TIP3    H269957   6.384   2.970   2.741 -0.9695 -0.0755 -2.2137
16156TIP3   OH269958   4.903   0.621   1.515  0.5859  0.1893 -0.3162
16156TIP3    H169959   4.825   0.623   1.460 -0.2964 -0.3958  0.8777
16156TIP3    H269960   4.966   0.569   1.465  0.0264  0.2074 -1.0520
16157TIP3   OH269961   2.821   1.821   3.585 -0.0934 -0.1564  0.1341
16157TIP3    H169962   2.782   1.762   3.520 -1.0853  0.0731  0.5103
16157TIP3    H269963   2.764   1.898   3.585  2.0816  1.6001 -1.5506
16158TIP3   OH269964   3.161   4.236  12.703 -0.0782  0.4288 -0.3663
16158TIP3    H169965   3.179   4.313  12.649 -2.1145  0.6583 -0.7788
16158TIP3    H269966   3.228   4.173  12.678  0.2338  1.2464 -1.7011
16159TIP3   OH269967   5.272   0.824  15.888 -0.8531 -0.0929 -0.2938
16159TIP3    H169968   5.182   0.853  15.905 -1.0614 -0.5813 -0.5126
16159TIP3    H269969   5.271   0.801  15.795 -1.1315 -2.2240  0.1815
16160TIP3   OH269970   5.840   2.895   2.812 -0.8709 -0.5121 -0.0102
16160TIP3    H169971   5.846   2.805   2.843  1.0397 -0.0382  1.1805
16160TIP3    H269972   5.757   2.927   2.846 -0.2958 -1.0003  1.9518
16161TIP3   OH269973   6.229   3.347   6.763 -0.0812  0.0999 -0.0249
16161TIP3    H169974   6.323   3.333   6.777 -0.1459  0.0038  0.3314
16161TIP3    H269975   6.188   3.267   6.797 -0.2702  0.0016 -0.4844
16162TIP3   OH269976   1.871   3.205  16.885 -0.4196 -0.3382 -0.3117
16162TIP3    H169977   1.930   3.247  16.822  0.1641 -1.9363 -0.8717
16162TIP3    H269978   1.893   3.246  16.969 -1.0398  1.6479 -1.0540
16163TIP3   OH269979   4.553   0.490  11.521 -0.0864 -0.2779 -1.1745
16163TIP3    H169980   4.570   0.584  11.525  1.0089 -0.4948  0.0345
16163TIP3    H269981   4.459   0.484  11.501 -0.3053  1.0704 -0.7002
16164TIP3   OH269982   6.259   5.844   4.308 -0.4552 -0.2095 -0.0907
16164TIP3    H169983   6.304   5.810   4.231  0.6109 -0.0629  0.4404
16164TIP3    H269984   6.328   5.887   4.359 -1.7121  2.9540 -0.8151
16165TIP3   OH269985   5.405   1.220  12.976 -0.3631 -0.2611 -0.0313
16165TIP3    H169986   5.390   1.159  13.048  0.7592  0.0408  0.4916
16165TIP3    H269987   5.439   1.299  13.019  0.9853 -0.3150 -0.9353
16166TIP3   OH269988   6.562   5.282  15.226 -0.1502 -0.2560 -0.3078
16166TIP3    H169989   6.601   5.211  15.278  1.1303  1.5886  1.3927
16166TIP3    H269990   6.622   5.293  15.153 -0.9851 -1.6475 -1.2572
16167TIP3   OH269991   0.934   2.035  15.465  0.2618  0.2718 -0.1295
16167TIP3    H169992   0.898   1.984  15.392 -3.7114  2.0807  0.3114
16167TIP3    H269993   0.931   1.975  15.540  1.3809 -0.6066 -0.7493
16168TIP3   OH269994   3.198   4.223  12.020  0.0105  0.3588 -0.1259
16168TIP3    H169995   3.173   4.141  11.977 -0.1945 -0.2302  1.0798
16168TIP3    H269996   3.270   4.257  11.967  0.4019 -0.8314 -0.3830
16169TIP3   OH269997   2.783   3.232  11.700 -0.1141 -0.2563 -0.4575
16169TIP3    H169998   2.856   3.294  11.700 -0.6412  0.3758 -0.6238
16169TIP3    H269999   2.822   3.149  11.675  1.0770 -0.5903  2.1588
16170TIP3   OH270000   5.268   4.689  12.410  0.4746 -0.9042  0.0783
16170TIP3    H170001   5.211   4.658  12.339  0.4955 -0.1425 -0.2767
16170TIP3    H270002   5.246   4.632  12.484 -1.2076 -0.2487  0.1372
16171TIP3   OH270003   6.734   3.490   1.112 -0.4365 -0.0691 -0.0674
16171TIP3    H170004   6.810   3.546   1.099 -1.6919  1.8148  0.2742
16171TIP3    H270005   6.770   3.403   1.128  1.5503  0.1570 -2.6837
16172TIP3   OH270006   1.494   6.732   3.558 -0.4082  0.2243 -0.0256
16172TIP3    H170007   1.525   6.796   3.622 -0.4687 -0.2006  0.4325
16172TIP3    H270008   1.565   6.725   3.494 -0.4519  0.8397 -0.1530
16173TIP3   OH270009   6.634   5.989  14.727  0.9831  0.3935  0.6136
16173TIP3    H170010   6.628   6.083  14.741  1.7720  0.5853 -0.2162
16173TIP3    H270011   6.677   5.955  14.805 -0.2826  0.5618  1.4059
16174TIP3   OH270012   5.758   4.353   6.365  0.1193 -0.3051  0.1090
16174TIP3    H170013   5.683   4.353   6.306  0.2411 -0.1936 -0.0455
16174TIP3    H270014   5.783   4.445   6.372  0.4174 -0.3720 -0.0630
16175TIP3   OH270015   0.391   2.214   5.531  0.7138 -0.5281  0.3898
16175TIP3    H170016   0.462   2.269   5.497  1.5261 -0.4434  2.0885
16175TIP3    H270017   0.376   2.247   5.620  0.3529 -2.2129  1.0067
16176TIP3   OH270018   1.679   5.513   5.122 -0.0128 -0.5205 -0.0378
16176TIP3    H170019   1.610   5.575   5.099  0.9083  1.2405  1.6175
16176TIP3    H270020   1.665   5.438   5.064 -2.2952  0.4552 -0.8530
16177TIP3   OH270021   4.373   2.278   1.640  0.2729  0.0358  0.7357
16177TIP3    H170022   4.454   2.231   1.622  0.5071  0.1372  1.4814
16177TIP3    H270023   4.351   2.322   1.557  0.8586 -0.1684  0.4692
16178TIP3   OH270024   5.048   0.587   0.649  0.5957  0.0512  0.2906
16178TIP3    H170025   5.040   0.655   0.715  1.6021 -0.5802  1.1026
16178TIP3    H270026   4.994   0.617   0.576  0.2356  1.2252  1.0168
16179TIP3   OH270027   0.670   4.957  14.334  0.4965  0.1831 -0.2288
16179TIP3    H170028   0.726   4.887  14.366  0.1655  0.2196  0.4400
16179TIP3    H270029   0.613   4.978  14.408  0.2248  0.7810 -0.6035
16180TIP3   OH270030   5.170   2.886  13.252 -0.3994  0.5524  0.0902
16180TIP3    H170031   5.255   2.867  13.212 -0.5786  1.3822 -0.6993
16180TIP3    H270032   5.153   2.810  13.307  1.5353  0.9880  1.4135
16181TIP3   OH270033   4.257   2.317  14.012 -0.5342  0.1882  0.6586
16181TIP3    H170034   4.280   2.232  13.973 -1.1980 -0.9021  2.4800
16181TIP3    H270035   4.275   2.381  13.943 -0.3762 -1.4650 -0.9245
16182TIP3   OH270036   4.483   2.585   4.165  0.0798 -0.4736  0.0852
16182TIP3    H170037   4.442   2.661   4.124 -1.3598 -1.4032 -0.2790
16182TIP3    H270038   4.440   2.510   4.125  1.1661 -1.4790  0.7449
16183TIP3   OH270039   6.007   1.990   3.866  0.2299  0.1443 -0.0859
16183TIP3    H170040   6.036   1.964   3.778  1.4014  0.4490  0.2014
16183TIP3    H270041   6.013   2.085   3.866 -0.1441  0.1707  0.2015
16184TIP3   OH270042   6.110   5.012  10.821  0.2329 -0.6942 -0.3757
16184TIP3    H170043   6.024   5.056  10.823  0.5152 -0.1174  1.6012
16184TIP3    H270044   6.167   5.075  10.777  0.1077 -0.0765  0.3102
16185TIP3   OH270045   3.894   6.419  14.802  0.4518 -0.0680  0.1515
16185TIP3    H170046   3.855   6.350  14.856 -0.8139 -0.2249 -0.9148
16185TIP3    H270047   3.915   6.489  14.865 -3.0966  0.7061  0.6771
16186TIP3   OH270048   6.158   5.487   5.921  0.0756 -0.4816 -0.4867
16186TIP3    H170049   6.157   5.420   5.853  2.1503 -1.0049 -0.0834
16186TIP3    H270050   6.243   5.477   5.963 -1.0650 -0.0699  2.1132
16187TIP3   OH270051   6.016   4.847   3.601 -0.0794 -0.4650 -0.2245
16187TIP3    H170052   6.028   4.776   3.539 -2.0941 -0.0174 -1.1980
16187TIP3    H270053   6.085   4.910   3.579  2.2207 -2.3151  1.1308
16188TIP3   OH270054   2.752   5.503   3.944  0.0474  0.0911  0.2826
16188TIP3    H170055   2.758   5.575   4.007  1.5685 -0.1261  0.4409
16188TIP3    H270056   2.742   5.425   3.998 -0.9660  0.1154  0.1383
16189TIP3   OH270057   1.756   5.609  11.969 -0.0135  0.8551  0.4262
16189TIP3    H170058   1.805   5.690  11.956  2.0750 -0.5942 -1.4394
16189TIP3    H270059   1.822   5.547  12.002 -0.2186 -1.4083 -2.9743
16190TIP3   OH270060   6.120   2.343  15.450 -0.0191 -0.3891 -0.3377
16190TIP3    H170061   6.059   2.268  15.450  0.1457 -0.5328 -0.8745
16190TIP3    H270062   6.157   2.344  15.538  1.9107 -2.5588 -1.0234
16191TIP3   OH270063   1.983   6.386  15.744  0.1872 -0.2849 -0.0612
16191TIP3    H170064   2.079   6.391  15.753  0.1371  0.5292  0.0521
16191TIP3    H270065   1.949   6.452  15.805 -0.4557 -0.6815  0.0172
16192TIP3   OH270066   0.733   0.291   0.057 -0.0225  0.2537 -0.3866
16192TIP3    H170067   0.703   0.251  -0.025 -1.2536 -0.1314  0.2178
16192TIP3    H270068   0.774   0.219   0.105  1.3246  0.6282 -0.9196
16193TIP3   OH270069   2.514   0.204   6.582 -0.1200  0.7806  0.2156
16193TIP3    H170070   2.549   0.153   6.509 -0.8240  1.0276 -0.3025
16193TIP3    H270071   2.571   0.282   6.585  0.8822  0.0491  0.9369
16194TIP3   OH270072   2.590   4.425  12.307  0.3361  0.2734 -0.9489
16194TIP3    H170073   2.625   4.355  12.362 -0.4996  1.4127  1.1265
16194TIP3    H270074   2.667   4.477  12.282  0.8195 -0.7217 -1.5900
16195TIP3   OH270075   6.280   0.244  11.835  0.0583 -0.4214 -0.3808
16195TIP3    H170076   6.264   0.150  11.841 -0.1552 -0.3623 -0.0006
16195TIP3    H270077   6.239   0.281  11.913 -0.1904  0.0326 -0.7174
16196TIP3   OH270078   3.760   4.731   5.861 -0.3252  0.0739  0.0295
16196TIP3    H170079   3.816   4.742   5.785 -2.3082 -0.1624 -1.5474
16196TIP3    H270080   3.736   4.820   5.887 -1.2564  0.1128 -0.9140
16197TIP3   OH270081   6.000   2.300   1.762  0.2256 -0.8275  0.1932
16197TIP3    H170082   5.992   2.387   1.802  0.0441 -0.7956  0.0856
16197TIP3    H270083   5.911   2.277   1.735  0.6400  0.0186 -2.0486
16198TIP3   OH270084   6.016   1.766   1.196  0.1553 -0.2963  0.4756
16198TIP3    H170085   6.004   1.738   1.105 -1.4634 -1.8175  1.0974
16198TIP3    H270086   6.110   1.784   1.204 -0.0763  3.0205 -2.3062
16199TIP3   OH270087   1.712   2.821   5.519 -0.1514 -0.1022  0.2214
16199TIP3    H170088   1.786   2.841   5.577  1.2518 -1.2248 -1.1055
16199TIP3    H270089   1.644   2.883   5.545  1.6624  1.8070  0.6658
16200TIP3   OH270090   3.138   5.318  17.015 -0.5592 -0.1254 -0.1445
16200TIP3    H170091   3.066   5.257  17.008  0.6874 -1.5247 -1.4507
16200TIP3    H270092   3.210   5.266  17.051  0.0152  1.0460  0.4513
16201TIP3   OH270093   0.700   2.324   5.156  0.2290 -0.4696  0.0016
16201TIP3    H170094   0.789   2.328   5.122  0.3755  0.3427  0.4455
16201TIP3    H270095   0.701   2.383   5.232 -0.7707 -0.1932 -0.1885
16202TIP3   OH270096   0.491   2.124   4.746 -0.3099 -0.2714 -0.5552
16202TIP3    H170097   0.487   2.077   4.663  2.9114 -0.2411 -0.8386
16202TIP3    H270098   0.549   2.072   4.801 -0.0629  1.1826  0.6395
16203TIP3   OH270099   3.689   3.339   2.190  0.3995 -0.2166  0.4277
16203TIP3    H170100   3.754   3.401   2.223  0.7601 -0.8054  0.8478
16203TIP3    H270101   3.652   3.298   2.268 -0.0872 -0.2756  0.1698
16204TIP3   OH270102   0.673   5.772  15.710  0.6545 -0.2254 -0.6729
16204TIP3    H170103   0.630   5.731  15.785  0.6952 -0.9261 -1.0298
16204TIP3    H270104   0.612   5.839  15.681  0.5974 -0.0094 -0.0684
16205TIP3   OH270105   4.798   1.188   2.179 -0.5582  0.6128 -0.0566
16205TIP3    H170106   4.744   1.158   2.252 -1.1008  2.8068  0.4986
16205TIP3    H270107   4.883   1.207   2.218 -0.3583  0.2660 -0.3173
16206TIP3   OH270108   0.732   2.494   6.130 -0.4834 -0.2671 -0.6406
16206TIP3    H170109   0.739   2.556   6.058 -1.6067 -0.6567 -1.0977
16206TIP3    H270110   0.768   2.541   6.205 -1.3783  0.9699 -0.9624
16207TIP3   OH270111   6.315   4.983  13.107  0.4452  0.2917 -0.0711
16207TIP3    H170112   6.410   4.985  13.121  0.7470  3.7252 -1.5281
16207TIP3    H270113   6.306   4.978  13.011 -0.8848 -0.4159  0.0730
16208TIP3   OH270114   6.495   6.194  11.592  0.1246  0.1903 -0.3331
16208TIP3    H170115   6.512   6.279  11.634  0.6604 -0.4245  0.7570
16208TIP3    H270116   6.410   6.205  11.549  0.4700  1.4641 -0.7294
16209TIP3   OH270117   0.719   0.251  14.773  0.1408  0.1556  0.3878
16209TIP3    H170118   0.667   0.306  14.715 -0.8736 -0.8370  0.3270
16209TIP3    H270119   0.783   0.209  14.716 -1.0822 -1.0977 -0.1372
16210TIP3   OH270120   1.372   5.799  15.055  0.0152  0.2298 -0.2302
16210TIP3    H170121   1.446   5.780  15.114 -0.8930  1.1393  1.2852
16210TIP3    H270122   1.386   5.890  15.027 -0.6104  0.4797  0.2331
16211TIP3   OH270123   1.848   4.842   3.310  0.0638 -0.7206 -0.4224
16211TIP3    H170124   1.892   4.824   3.393 -0.7433  0.6013  0.3188
16211TIP3    H270125   1.755   4.847   3.332 -0.2967 -1.5642 -1.6345
16212TIP3   OH270126   6.171   1.493   4.446 -0.3173 -0.2084 -0.2041
16212TIP3    H170127   6.140   1.579   4.476  1.3786 -0.1534  1.5682
16212TIP3    H270128   6.100   1.433   4.470 -0.5444  0.3796  0.6562
16213TIP3   OH270129   5.193   1.329  11.970 -0.0605 -0.2437  0.3274
16213TIP3    H170130   5.217   1.244  11.932  0.3783 -0.8621  1.9054
16213TIP3    H270131   5.121   1.360  11.916 -0.8162 -2.0475  0.2374
16214TIP3   OH270132   5.612   3.154   1.238  0.5159 -0.1223 -0.2296
16214TIP3    H170133   5.626   3.080   1.179 -0.5673  0.9851 -1.9859
16214TIP3    H270134   5.626   3.231   1.183  2.4865  1.0440  1.7437
16215TIP3   OH270135   3.210   2.499  11.838 -0.0174 -0.2469  0.5107
16215TIP3    H170136   3.123   2.529  11.865  0.5689  0.4337  1.6909
16215TIP3    H270137   3.199   2.404  11.827 -1.0021 -0.1168  0.2589
16216TIP3   OH270138   4.652   3.337   1.558 -0.4915 -0.1083  0.1883
16216TIP3    H170139   4.560   3.361   1.554 -0.5607 -0.3866  0.1199
16216TIP3    H270140   4.692   3.403   1.615 -0.3885  1.0769 -1.1983
16217TIP3   OH270141   1.124   0.091  12.089  0.1710 -0.1825 -0.2165
16217TIP3    H170142   1.096   0.182  12.074 -1.0527 -0.4353  0.3730
16217TIP3    H270143   1.055   0.054  12.146  1.1054 -1.2216  0.2758
16218TIP3   OH270144   5.660   1.783   4.328  0.5638 -0.1339  0.2533
16218TIP3    H170145   5.748   1.772   4.291 -0.1541 -1.4055 -1.2129
16218TIP3    H270146   5.650   1.710   4.389  0.4058 -0.2062  0.1430
16219TIP3   OH270147   1.395   3.229  13.024  0.2064 -0.1742 -0.4921
16219TIP3    H170148   1.380   3.168  13.096 -0.5362 -0.3525 -0.7959
16219TIP3    H270149   1.372   3.180  12.945  1.1174 -0.0185 -0.8734
16220TIP3   OH270150   1.977   5.412  12.034 -0.4228 -0.5038  0.3714
16220TIP3    H170151   1.989   5.386  12.125 -0.1563  1.5353  0.9731
16220TIP3    H270152   2.066   5.409  11.997 -0.5869 -1.7143  0.0465
16221TIP3   OH270153   4.411   1.812   3.623 -0.6791  0.0071 -0.1024
16221TIP3    H170154   4.382   1.829   3.534 -0.5528 -0.1137 -0.1675
16221TIP3    H270155   4.442   1.897   3.655 -0.8862  0.0853 -0.1131
16222TIP3   OH270156   6.645   5.637  17.061  0.3682 -0.0558 -0.4700
16222TIP3    H170157   6.558   5.676  17.063  0.5658  0.3859 -0.4815
16222TIP3    H270158   6.629   5.544  17.041 -0.3347 -0.6316  2.3355
16223TIP3   OH270159   1.356   2.972   1.954  0.5389  0.0406 -0.3406
16223TIP3    H170160   1.321   2.901   2.008  2.0547  0.7231  1.6405
16223TIP3    H270161   1.319   3.052   1.992  0.7271  0.4848 -1.0546
16224TIP3   OH270162   3.025   6.484  15.786 -0.8771 -0.3220 -0.1973
16224TIP3    H170163   2.981   6.537  15.853 -1.9791 -1.5752  0.1055
16224TIP3    H270164   3.073   6.418  15.835 -0.4600 -0.3251 -0.6094
16225TIP3   OH270165   5.978   0.482  13.890  0.2430  0.4466 -0.1085
16225TIP3    H170166   6.039   0.548  13.922  0.3413 -0.1766  1.0528
16225TIP3    H270167   6.032   0.425  13.834  1.1696 -1.0011  2.1099
16226TIP3   OH270168   0.509   5.045  16.733 -0.2292  0.3547 -0.2735
16226TIP3    H170169   0.421   5.007  16.731  0.0243 -0.3371  1.1323
16226TIP3    H270170   0.553   5.006  16.657 -1.0735  0.5989 -0.9099
16227TIP3   OH270171   3.219   4.291  11.165 -0.1162 -0.3882 -0.3411
16227TIP3    H170172   3.138   4.342  11.167 -0.3580 -0.6816  3.0868
16227TIP3    H270173   3.285   4.350  11.201  0.5816 -1.0673 -0.4914
16228TIP3   OH270174   4.577   2.860   6.564  0.2050  0.3946 -0.0913
16228TIP3    H170175   4.481   2.861   6.569  0.1545  0.4121 -0.8560
16228TIP3    H270176   4.605   2.809   6.640 -0.2568  2.8746  1.8788
16229TIP3   OH270177   2.944   2.258   0.857 -0.0023  0.1145 -0.0064
16229TIP3    H170178   2.975   2.348   0.846 -1.6091  0.5415 -1.3623
16229TIP3    H270179   2.867   2.266   0.913 -1.1627 -0.1701 -1.4977
16230TIP3   OH270180   2.269   5.559  16.229  0.3903  0.1310 -0.8908
16230TIP3    H170181   2.320   5.483  16.201 -0.1783 -0.2100 -1.0137
16230TIP3    H270182   2.321   5.597  16.300  1.9229  1.1067 -2.4824
16231TIP3   OH270183   4.550   5.650   2.460 -0.2690  0.0756 -0.2629
16231TIP3    H170184   4.592   5.663   2.376 -0.5057  0.9277 -0.2527
16231TIP3    H270185   4.581   5.723   2.514  1.2334 -1.3670  0.9421
16232TIP3   OH270186   5.460   6.163  11.129 -0.2016 -0.2512  0.0262
16232TIP3    H170187   5.505   6.140  11.048  0.1141  1.1087 -0.2158
16232TIP3    H270188   5.397   6.093  11.142  0.9938 -1.4463 -0.4042
16233TIP3   OH270189   6.305   2.536   2.006  0.3948  0.8530 -0.0699
16233TIP3    H170190   6.322   2.561   1.916 -0.8054  1.8237 -0.0456
16233TIP3    H270191   6.379   2.479   2.029 -0.2991 -1.1143 -2.3117
16234TIP3   OH270192   2.664   0.191   5.270 -0.0192 -0.4763  0.1611
16234TIP3    H170193   2.653   0.107   5.226 -0.9017  0.5440 -1.6764
16234TIP3    H270194   2.675   0.168   5.363 -1.0061 -2.5605 -0.1676
16235TIP3   OH270195   0.548   4.501  14.873  0.0257  0.0457 -0.6179
16235TIP3    H170196   0.510   4.511  14.785  1.2388 -0.4787 -1.2254
16235TIP3    H270197   0.621   4.441  14.860 -0.0369 -0.3734  0.8429
16236TIP3   OH270198   6.316   2.401   2.975 -0.2718  0.1073  0.5654
16236TIP3    H170199   6.299   2.319   3.021 -0.6124  0.4281  1.0147
16236TIP3    H270200   6.411   2.403   2.963 -0.1478  0.1792  1.5371
16237TIP3   OH270201   5.274   5.420   6.037  0.4662 -0.4665 -0.0590
16237TIP3    H170202   5.338   5.354   6.064 -0.5316 -1.0876  0.8711
16237TIP3    H270203   5.248   5.464   6.119 -0.5725 -0.4974 -0.3510
16238TIP3   OH270204   6.431   4.804   5.793 -0.0505 -0.1006  0.2178
16238TIP3    H170205   6.446   4.898   5.795  1.5106 -0.3180  0.8027
16238TIP3    H270206   6.519   4.766   5.786 -0.6158 -1.5271  0.4201
16239TIP3   OH270207   2.311   0.935   0.931  0.3808  0.0940  0.5012
16239TIP3    H170208   2.317   0.890   0.846 -3.1027  0.0831  0.1266
16239TIP3    H270209   2.315   0.864   0.995 -1.8431 -0.5485  0.0410
16240TIP3   OH270210   1.563   5.203   3.685  0.0869  0.7766 -0.3461
16240TIP3    H170211   1.607   5.201   3.770  0.1500 -0.4822 -0.3927
16240TIP3    H270212   1.574   5.293   3.654  2.2717  0.6219 -0.1782
16241TIP3   OH270213   3.946   0.761   5.066  0.2050 -0.2998 -0.4691
16241TIP3    H170214   3.868   0.725   5.107 -0.2851  1.8787  0.6886
16241TIP3    H270215   4.002   0.786   5.139  2.2848 -2.3085 -1.2826
16242TIP3   OH270216   0.608   4.822   2.152  0.7692 -0.5753  0.1860
16242TIP3    H170217   0.697   4.818   2.115  0.2047  1.2767 -1.5622
16242TIP3    H270218   0.551   4.799   2.078 -0.3744  2.5424 -0.0483
16243TIP3   OH270219   0.237   5.849  13.896 -0.5996  0.1974  0.4103
16243TIP3    H170220   0.261   5.900  13.819  0.1093 -0.9739 -0.1691
16243TIP3    H270221   0.310   5.788  13.908 -1.3689 -0.6073  1.1405
16244TIP3   OH270222   5.846   1.887  15.469 -0.0725  0.1286 -0.0355
16244TIP3    H170223   5.772   1.858  15.523  0.5811  0.4962  1.1103
16244TIP3    H270224   5.917   1.826  15.490 -0.0757 -0.3092 -1.2315
16245TIP3   OH270225   1.600   0.124   5.709  0.3343 -0.5294  0.2170
16245TIP3    H170226   1.634   0.094   5.625  1.2855  3.4017 -0.9917
16245TIP3    H270227   1.520   0.073   5.723  1.5311 -3.1225 -1.7021
16246TIP3   OH270228   0.520   5.685  16.882  0.0585 -0.2598 -0.0367
16246TIP3    H170229   0.439   5.704  16.929 -0.3458 -0.5129 -0.6186
16246TIP3    H270230   0.558   5.770  16.863 -0.2826 -0.1256 -0.1221
16247TIP3   OH270231   4.935   0.583  12.492 -0.2223  0.0401  0.3745
16247TIP3    H170232   4.942   0.605  12.585 -2.4902  1.7973  0.2286
16247TIP3    H270233   4.973   0.658  12.447 -2.1618  0.8115 -0.0850
16248TIP3   OH270234   3.010   5.504   4.177 -0.0930 -0.1725 -0.3796
16248TIP3    H170235   3.084   5.448   4.154 -0.8140 -0.6204 -1.7155
16248TIP3    H270236   3.050   5.582   4.215  0.9648 -1.2404  0.8026
16249TIP3   OH270237   1.449   2.860   2.787 -0.0573  0.1689 -0.2041
16249TIP3    H170238   1.539   2.863   2.819 -0.7747  1.0300  1.9117
16249TIP3    H270239   1.410   2.785   2.832 -0.4825 -0.0136 -0.8646
16250TIP3   OH270240   5.348   6.550   2.803 -0.2929  0.0018  0.0390
16250TIP3    H170241   5.356   6.483   2.735 -0.2941 -0.6621  0.6885
16250TIP3    H270242   5.277   6.607   2.772 -1.3745 -1.2060  0.2321
16251TIP3   OH270243   4.145   5.078   4.989 -0.0485 -0.1025  0.0788
16251TIP3    H170244   4.201   5.076   5.066  0.1413  0.0407 -0.0530
16251TIP3    H270245   4.062   5.114   5.019 -0.0913 -0.3793  0.2903
16252TIP3   OH270246   2.597   0.212  13.341  0.0699  0.2411  0.2991
16252TIP3    H170247   2.665   0.184  13.403 -0.9563 -0.8561  0.9690
16252TIP3    H270248   2.554   0.285  13.386  0.8569  1.0270 -0.1840
16253TIP3   OH270249   3.097   1.539   2.483  0.3436 -0.4593 -0.8166
16253TIP3    H170250   3.139   1.472   2.536  0.1429 -0.5608 -0.7850
16253TIP3    H270251   3.081   1.497   2.399  1.7178  0.0516 -1.3616
16254TIP3   OH270252   2.516   0.538  11.458  0.2711  0.0678  0.0321
16254TIP3    H170253   2.539   0.525  11.550  2.4971  2.1240 -0.1216
16254TIP3    H270254   2.581   0.601  11.426 -1.2891  0.4972 -2.5858
16255TIP3   OH270255   1.047   3.503  16.665 -0.1438 -0.3640 -0.6737
16255TIP3    H170256   0.991   3.485  16.741  0.0126 -0.3291 -0.5515
16255TIP3    H270257   1.092   3.420  16.649  0.7420 -0.0270  0.0259
16256TIP3   OH270258   2.318   0.746  15.012  0.0884  0.0662 -0.5370
16256TIP3    H170259   2.230   0.771  15.039  0.2954  0.7180 -0.4410
16256TIP3    H270260   2.310   0.654  14.985 -0.2137 -0.5205  1.3951
16257TIP3   OH270261   4.673   1.219   0.205 -0.5873  0.7266  0.1454
16257TIP3    H170262   4.590   1.229   0.158 -0.9926  0.7928  0.8667
16257TIP3    H270263   4.733   1.279   0.160 -1.0606  1.0454 -0.0733
16258TIP3   OH270264   2.821   1.057   2.089  0.0308  0.3274  0.4353
16258TIP3    H170265   2.760   1.004   2.142  1.6425  0.5492  2.6802
16258TIP3    H270266   2.797   1.148   2.109  0.5197  0.4154  0.6251
16259TIP3   OH270267   3.675   3.273   6.685  0.4414  1.0300 -0.2833
16259TIP3    H170268   3.667   3.368   6.683 -1.8631  0.8761 -0.7401
16259TIP3    H270269   3.598   3.241   6.637  1.1425 -1.0689 -0.1171
16260TIP3   OH270270   3.531   3.881   1.741  0.1470 -0.4183  0.1867
16260TIP3    H170271   3.506   3.943   1.672  1.0963  0.2817  0.4391
16260TIP3    H270272   3.611   3.839   1.707  1.1762  0.6280  1.2336
16261TIP3   OH270273   0.478   3.183  13.234 -0.5343  0.1401 -0.3766
16261TIP3    H170274   0.385   3.167  13.220 -0.2797 -1.5239 -0.3243
16261TIP3    H270275   0.484   3.214  13.325 -1.0316  0.2923 -0.3948
16262TIP3   OH270276   1.712   3.533   3.936 -0.2873  0.4330  0.8515
16262TIP3    H170277   1.725   3.535   4.031  0.3048  0.4693  0.7719
16262TIP3    H270278   1.619   3.512   3.925 -0.2137 -0.2359  1.4360
16263TIP3   OH270279   0.615   4.323   3.345  0.0481 -0.2939 -0.3637
16263TIP3    H170280   0.548   4.306   3.412 -0.3956  0.9949 -0.4512
16263TIP3    H270281   0.696   4.289   3.382 -0.4443 -0.8242  0.2455
16264TIP3   OH270282   0.994   1.955  13.725 -0.8088  1.0049 -0.0377
16264TIP3    H170283   0.976   1.863  13.702 -0.7513  0.8371  0.5697
16264TIP3    H270284   0.909   1.992  13.745 -0.5505  0.0572  3.4028
16265TIP3   OH270285   0.086   4.484   1.270 -0.0220  0.5889 -0.4880
16265TIP3    H170286   0.138   4.563   1.252  0.7201  0.2410  0.0662
16265TIP3    H270287  -0.002   4.506   1.240 -0.0017  1.9031  0.3207
16266TIP3   OH270288   3.760   5.967  15.015  0.0803  0.3984 -0.1716
16266TIP3    H170289   3.835   5.914  14.991  0.5458  0.4170  1.1317
16266TIP3    H270290   3.788   6.057  14.999 -0.0135  0.3592 -0.5712
16267TIP3   OH270291   4.895   5.774  14.815 -0.4597 -0.1222 -0.1597
16267TIP3    H170292   4.895   5.687  14.855  0.5970  0.1634  0.5241
16267TIP3    H270293   4.931   5.760  14.728 -2.3472 -0.6830 -0.8885
16268TIP3   OH270294   1.513   6.545  17.109 -0.2307  0.2918  0.8278
16268TIP3    H170295   1.531   6.620  17.166 -0.6663  0.5413  0.6404
16268TIP3    H270296   1.462   6.485  17.163 -2.0867  1.2481  0.2432
16269TIP3   OH270297   5.555   6.344   1.641  0.3881  0.2530 -0.4001
16269TIP3    H170298   5.610   6.316   1.568  1.5211  2.0006 -0.2634
16269TIP3    H270299   5.475   6.375   1.599  1.4041  2.1566 -1.0524
16270TIP3   OH270300   5.261   3.797  14.863 -0.2962  0.1213 -0.1352
16270TIP3    H170301   5.261   3.706  14.834  0.3568  0.5181 -1.4770
16270TIP3    H270302   5.346   3.831  14.836 -0.0218  0.8184  1.4620
16271TIP3   OH270303   0.805   1.165   5.768 -0.2038  0.4805 -0.0399
16271TIP3    H170304   0.873   1.223   5.800  0.6171 -0.1740 -0.5276
16271TIP3    H270305   0.847   1.078   5.766 -0.0389  0.5012 -3.0963
16272TIP3   OH270306   6.432   2.390  15.990  0.0065  0.0221  0.2787
16272TIP3    H170307   6.363   2.418  15.929  1.4211  1.2569 -0.8382
16272TIP3    H270308   6.452   2.300  15.964 -1.2037 -0.3791  0.6664
16273TIP3   OH270309   3.981   5.878   2.313 -0.5266 -0.1368 -0.1926
16273TIP3    H170310   4.007   5.944   2.378  0.0048 -0.7436  0.2241
16273TIP3    H270311   3.899   5.910   2.278 -0.3834  0.6439  0.1644
16274TIP3   OH270312   0.553   5.152  17.342 -0.2654 -0.2121 -0.6785
16274TIP3    H170313   0.567   5.197  17.259 -0.4615  0.4337 -0.3701
16274TIP3    H270314   0.465   5.177  17.368 -0.0976 -0.1745 -0.1374
16275TIP3   OH270315   0.268   2.979  16.442 -0.1248 -1.1564  0.0337
16275TIP3    H170316   0.239   3.020  16.523  0.7755  1.2163 -0.7593
16275TIP3    H270317   0.358   3.008  16.431 -0.6689 -0.1398 -2.5384
16276TIP3   OH270318   5.443   5.691  11.506  0.5487  0.4298  0.1315
16276TIP3    H170319   5.423   5.778  11.471  0.4417  0.0430 -0.8084
16276TIP3    H270320   5.537   5.680  11.491  0.8113  0.8626  1.3723
16277TIP3   OH270321   3.407   2.856   3.360  0.1440 -0.0757 -0.3406
16277TIP3    H170322   3.322   2.869   3.318  0.4339 -0.2976 -1.0175
16277TIP3    H270323   3.439   2.944   3.377 -1.1340  0.0271  1.8649
16278TIP3   OH270324   6.151   0.412   3.378 -0.3613 -0.2729  0.7070
16278TIP3    H170325   6.236   0.447   3.349 -0.1501 -2.5989 -1.8804
16278TIP3    H270326   6.089   0.444   3.311 -0.7895 -1.7687  0.3662
16279TIP3   OH270327   6.360   5.625  16.877  0.2895 -0.1468 -0.4599
16279TIP3    H170328   6.431   5.667  16.828  1.1988 -0.7127  0.3320
16279TIP3    H270329   6.359   5.669  16.961  0.3859 -0.8120 -0.1007
16280TIP3   OH270330   4.742   6.056   2.770 -0.3310 -0.0939 -0.9567
16280TIP3    H170331   4.795   6.026   2.696  1.1018  1.3559 -0.6050
16280TIP3    H270332   4.784   6.139   2.796 -2.3654  0.7398 -0.1654
16281TIP3   OH270333   3.593   4.175  14.538 -0.7028 -0.0242  0.0971
16281TIP3    H170334   3.587   4.124  14.457 -1.1022  0.6463 -0.3049
16281TIP3    H270335   3.626   4.261  14.510  0.0023 -0.0686  0.7714
16282TIP3   OH270336   4.950   4.276  13.871 -0.3407 -0.6547 -0.4860
16282TIP3    H170337   4.857   4.262  13.889 -0.2757 -1.4371 -0.7390
16282TIP3    H270338   4.950   4.345  13.804 -0.6980 -0.0388  0.1326
16283TIP3   OH270339   4.216   3.812  14.330 -0.1794 -0.3980 -0.1189
16283TIP3    H170340   4.209   3.855  14.245 -1.5837  0.3428  0.3456
16283TIP3    H270341   4.162   3.734  14.322  1.0081 -1.2246 -0.4091
16284TIP3   OH270342   5.508   4.666   0.117  0.1872 -0.1419 -0.0520
16284TIP3    H170343   5.494   4.582   0.073 -1.0893  0.3194 -0.5741
16284TIP3    H270344   5.530   4.727   0.046  0.6707  0.0619  0.2687
16285TIP3   OH270345   2.361   0.349   0.108 -0.5285 -0.3646 -0.1927
16285TIP3    H170346   2.432   0.334   0.045 -0.2644  0.7842 -0.1923
16285TIP3    H270347   2.349   0.264   0.151 -0.7661 -1.1946 -1.8197
16286TIP3   OH270348   6.159   1.938   2.469  0.2323 -0.2865 -0.0699
16286TIP3    H170349   6.158   1.987   2.552 -0.6044 -2.1397  1.0685
16286TIP3    H270350   6.252   1.933   2.446  0.5148 -0.0503  0.9356
16287TIP3   OH270351   5.312   6.318   1.117 -0.4106 -0.1164  0.1367
16287TIP3    H170352   5.293   6.303   1.209  0.5938 -0.3055  0.3298
16287TIP3    H270353   5.340   6.233   1.084 -1.2023 -0.1558 -0.4662
16288TIP3   OH270354   4.993   0.838   5.776  0.2755 -0.3011  0.1789
16288TIP3    H170355   4.957   0.824   5.864  0.9642  1.0783  0.7092
16288TIP3    H270356   5.022   0.929   5.776 -2.5595  0.7803 -2.5162
16289TIP3   OH270357   6.327   5.809   1.578 -0.0877 -0.1830 -0.0457
16289TIP3    H170358   6.351   5.899   1.555 -0.8741 -0.1099 -0.6406
16289TIP3    H270359   6.232   5.812   1.589 -0.0253 -0.7817  0.6982
16290TIP3   OH270360   4.926   4.176   5.879 -0.2697  0.1907  0.0330
16290TIP3    H170361   4.936   4.144   5.969  0.7449 -0.6896 -0.3763
16290TIP3    H270362   5.014   4.201   5.852 -0.4889 -0.0027 -0.8874
16291TIP3   OH270363   2.688   5.882  13.529 -0.4954 -0.0627 -0.4658
16291TIP3    H170364   2.721   5.889  13.439 -1.0917  0.3312 -0.6605
16291TIP3    H270365   2.658   5.970  13.550  0.2923  0.0132  0.3856
16292TIP3   OH270366   5.833   2.325  12.853 -0.1105 -0.3157  0.2281
16292TIP3    H170367   5.805   2.233  12.850  1.2179 -0.7678  0.7894
16292TIP3    H270368   5.926   2.321  12.876  0.0089  1.1731  0.1144
16293TIP3   OH270369   3.790   5.629  12.668  0.0154 -0.6216  0.2648
16293TIP3    H170370   3.729   5.555  12.671 -0.4859 -0.2319 -0.1571
16293TIP3    H270371   3.839   5.617  12.586  1.2832 -1.5236  1.1077
16294TIP3   OH270372   0.853   0.647   5.007 -0.2426 -0.5181 -0.2898
16294TIP3    H170373   0.940   0.626   5.042 -0.6211 -2.4281 -0.4008
16294TIP3    H270374   0.822   0.719   5.062  0.2323 -1.7500  1.7026
16295TIP3   OH270375   4.041   6.151  12.562 -0.0671 -0.5146 -0.4554
16295TIP3    H170376   3.968   6.111  12.611 -1.2841 -1.1557 -2.6710
16295TIP3    H270377   4.117   6.096  12.584 -0.6526 -1.0069  0.4180
16296TIP3   OH270378   4.394   6.328  16.297  0.1462 -0.7471  0.0406
16296TIP3    H170379   4.312   6.300  16.338 -0.5354 -0.3409 -0.9767
16296TIP3    H270380   4.454   6.255  16.309 -0.6331 -1.3941  0.0894
16297TIP3   OH270381   1.072   3.570   5.541  0.1913 -0.4350 -0.1929
16297TIP3    H170382   1.045   3.646   5.491 -0.7396  0.6844  1.8541
16297TIP3    H270383   1.160   3.551   5.511 -0.0625  0.6193 -1.6950
16298TIP3   OH270384   2.996   0.206   0.214  0.6135 -1.0996  0.1159
16298TIP3    H170385   2.987   0.273   0.282 -0.4756 -1.6485  0.5317
16298TIP3    H270386   3.089   0.211   0.188  0.7927 -0.1505  0.8625
16299TIP3   OH270387   5.539   5.337  14.977  0.0292 -0.5222 -0.9662
16299TIP3    H170388   5.447   5.329  15.000  0.8502 -4.0777  1.8516
16299TIP3    H270389   5.554   5.267  14.913  0.9659 -0.5404 -0.7355
16300TIP3   OH270390   3.956   0.017   2.038 -0.5431 -0.3814 -0.4544
16300TIP3    H170391   3.906  -0.055   2.079  0.8493 -0.9400  0.3294
16300TIP3    H270392   4.005  -0.025   1.968  1.4566 -0.5544  0.9664
16301TIP3   OH270393   6.624   4.895   1.929 -0.7755 -0.6279  0.1811
16301TIP3    H170394   6.643   4.960   1.996 -0.7220 -0.7543  0.2871
16301TIP3    H270395   6.678   4.819   1.952  0.7522  0.0210 -1.0988
16302TIP3   OH270396   3.102   6.173  14.314 -0.1241  0.2950 -0.2446
16302TIP3    H170397   3.071   6.086  14.289  2.3070 -2.0131  3.6806
16302TIP3    H270398   3.173   6.191  14.252  0.1699 -1.1758 -0.3903
16303TIP3   OH270399   1.583   1.420  12.282 -0.1984 -0.1128 -0.0042
16303TIP3    H170400   1.601   1.453  12.370  1.3273  2.7511 -1.2652
16303TIP3    H270401   1.657   1.363  12.263 -0.3339 -0.4290  0.3801
16304TIP3   OH270402   0.846   5.842   4.972 -0.1729 -0.6511  0.1832
16304TIP3    H170403   0.919   5.816   4.917  0.2533 -1.4311  1.0824
16304TIP3    H270404   0.779   5.872   4.911  0.9595  0.2723 -0.6455
16305TIP3   OH270405   1.945   3.818   2.570 -0.1834 -0.0594  0.6146
16305TIP3    H170406   2.020   3.835   2.628 -0.2318 -0.2287  0.7279
16305TIP3    H270407   1.974   3.848   2.484  0.7654 -1.9484  0.2250
16306TIP3   OH270408   4.801   6.655   4.863  0.2209  0.2324  0.5022
16306TIP3    H170409   4.712   6.635   4.834  0.6928 -1.2295 -0.0142
16306TIP3    H270410   4.789   6.700   4.947 -0.9721 -1.4756  1.3011
16307TIP3   OH270411   1.350   1.800  12.444 -0.4689 -0.5822 -0.3441
16307TIP3    H170412   1.338   1.726  12.505 -0.0133 -0.4221 -0.0555
16307TIP3    H270413   1.263   1.817  12.410 -1.0543  0.3665  1.4797
16308TIP3   OH270414   4.253   4.523   0.027 -0.6198 -1.0619 -0.4831
16308TIP3    H170415   4.258   4.440  -0.020 -0.4893 -0.4749 -1.5166
16308TIP3    H270416   4.199   4.579  -0.028  0.9503  0.1928 -0.8212
16309TIP3   OH270417   6.035   5.664   1.167  0.0684  0.3793  0.1744
16309TIP3    H170418   6.080   5.649   1.084 -0.2421  1.2975 -0.1633
16309TIP3    H270419   6.072   5.597   1.225  0.8314  0.2003 -0.4829
16310TIP3   OH270420   0.273   5.096  13.046 -0.9019  0.0107  0.5221
16310TIP3    H170421   0.280   5.175  12.992 -0.1770 -0.0529  0.5051
16310TIP3    H270422   0.316   5.028  12.994 -1.8892 -0.5053  0.3534
16311TIP3   OH270423   0.278   1.574  16.694  0.3973  0.0317  0.4545
16311TIP3    H170424   0.313   1.500  16.644  1.2827 -0.5307  1.8499
16311TIP3    H270425   0.288   1.548  16.785 -0.9725  1.1205  0.9563
16312TIP3   OH270426   2.633   5.569  14.702 -0.2354  0.2203 -0.0926
16312TIP3    H170427   2.590   5.562  14.617 -1.2509  0.8275  0.3486
16312TIP3    H270428   2.725   5.586  14.681 -0.6046  1.1077 -1.0762
16313TIP3   OH270429   3.579   1.980  11.606  0.4115 -1.0650  0.5588
16313TIP3    H170430   3.551   1.962  11.696  1.5569  0.1987  1.2105
16313TIP3    H270431   3.506   2.027  11.567  0.1697 -1.0239  1.0514
16314TIP3   OH270432   3.490   4.485   5.902 -0.5785  0.3040 -0.2875
16314TIP3    H170433   3.411   4.431   5.903  1.2018 -2.8437 -3.6043
16314TIP3    H270434   3.562   4.421   5.903  1.8157  2.7879 -1.1777
16315TIP3   OH270435   0.426   0.165   5.232  0.1253 -0.0294  0.0186
16315TIP3    H170436   0.445   0.253   5.266 -0.2128  0.1620 -0.2773
16315TIP3    H270437   0.489   0.108   5.277  1.4441  0.5884 -0.9583
16316TIP3   OH270438   4.287   3.794  16.863 -0.4387 -0.0625 -0.0228
16316TIP3    H170439   4.283   3.701  16.841  0.7558  0.1318 -1.1829
16316TIP3    H270440   4.350   3.799  16.935  1.0625  0.0251 -1.2897
16317TIP3   OH270441   6.512   3.947  12.128 -0.4332 -0.3287  0.3293
16317TIP3    H170442   6.506   3.881  12.060 -1.3945 -0.4930  0.5659
16317TIP3    H270443   6.601   3.983  12.119 -0.0606 -1.3246 -0.0874
16318TIP3   OH270444   4.645   3.906   2.938  0.3207  0.2351  0.1111
16318TIP3    H170445   4.713   3.881   2.875 -0.5940  0.0440 -0.8487
16318TIP3    H270446   4.581   3.834   2.933  0.1137  0.3453  1.0882
16319TIP3   OH270447   3.223   4.386  17.523  0.1892 -0.9438  0.3790
16319TIP3    H170448   3.185   4.299  17.508  1.7476 -1.6716  0.4515
16319TIP3    H270449   3.313   4.378  17.493  1.2557 -0.2312  3.1035
16320TIP3   OH270450   4.847   1.543   2.161  0.5482 -0.1747 -0.6356
16320TIP3    H170451   4.916   1.602   2.192 -0.0612  0.3115 -0.1621
16320TIP3    H270452   4.858   1.464   2.214  1.4692 -0.5685 -1.3853
16321TIP3   OH270453   0.469   2.949   0.348  0.2940  0.1482 -0.2591
16321TIP3    H170454   0.450   2.858   0.368  1.7268 -0.3714 -1.1384
16321TIP3    H270455   0.391   2.997   0.377  0.1897 -1.1269  1.7317
16322TIP3   OH270456   3.793   3.311  13.564 -0.2488  0.2215  0.2474
16322TIP3    H170457   3.705   3.321  13.527  0.3451  1.2958 -0.9933
16322TIP3    H270458   3.823   3.401  13.578  1.1163 -0.0715 -0.5676
16323TIP3   OH270459   5.260   0.399   0.714 -0.1844 -0.3806 -0.0541
16323TIP3    H170460   5.290   0.381   0.625 -2.5923 -2.3228 -0.5684
16323TIP3    H270461   5.185   0.458   0.703 -0.3762 -0.4671  0.6971
16324TIP3   OH270462   6.681   2.739   0.329 -0.4040  0.8049 -0.3791
16324TIP3    H170463   6.612   2.749   0.395 -2.1191  0.2120 -1.9998
16324TIP3    H270464   6.740   2.812   0.346 -1.8646  1.8347  0.5538
16325TIP3   OH270465   5.053   4.435   4.726  0.2120 -0.1216  0.5606
16325TIP3    H170466   5.023   4.347   4.748  2.9612 -1.4046 -0.3416
16325TIP3    H270467   5.003   4.458   4.647  1.1790 -2.0007 -0.6797
16326TIP3   OH270468   4.283   2.854  13.012  0.0778  0.1938  0.7728
16326TIP3    H170469   4.284   2.874  12.918 -1.7336 -0.8311  0.5048
16326TIP3    H270470   4.376   2.855  13.037  0.6762 -0.3807 -1.2164
16327TIP3   OH270471   4.493   4.560  13.404  0.0051 -0.0282 -0.2974
16327TIP3    H170472   4.471   4.551  13.497  2.6557  0.7539  0.5057
16327TIP3    H270473   4.521   4.651  13.395  1.6016 -0.5812 -1.4092
16328TIP3   OH270474   0.905   0.641   1.204  0.0555  0.2147 -0.4210
16328TIP3    H170475   0.868   0.568   1.253 -0.8482  0.4872 -0.6775
16328TIP3    H270476   0.881   0.624   1.113 -3.1406  2.4574 -0.1626
16329TIP3   OH270477   5.268   4.236  13.440  0.3711 -0.0868  1.0733
16329TIP3    H170478   5.238   4.296  13.508 -0.2872  0.6661  0.1397
16329TIP3    H270479   5.234   4.150  13.468 -0.7245  0.3763  1.2235
16330TIP3   OH270480   0.430   1.171  11.857 -0.0673  0.2980  0.3808
16330TIP3    H170481   0.458   1.101  11.917 -0.1987  0.1054  0.2196
16330TIP3    H270482   0.437   1.251  11.908 -0.1015  0.1433  0.6299
16331TIP3   OH270483   6.163   2.627   4.229  0.3834 -0.4114  0.4780
16331TIP3    H170484   6.194   2.715   4.206  1.5162 -0.2718  2.3241
16331TIP3    H270485   6.089   2.611   4.170 -0.4447  2.1560  0.7014
16332TIP3   OH270486   2.079   0.077   4.917  0.0350  0.5961  0.4306
16332TIP3    H170487   2.072   0.172   4.913  0.0827  0.6359  1.3086
16332TIP3    H270488   1.990   0.048   4.935  0.0588  0.4787  0.3611
16333TIP3   OH270489   5.840   1.082   3.683 -0.0444 -0.2341  0.2773
16333TIP3    H170490   5.803   1.113   3.600 -0.3695 -0.3825  0.3623
16333TIP3    H270491   5.864   1.161   3.730  1.0474 -0.1678 -0.3549
16334TIP3   OH270492   5.151   0.350  15.845 -0.2484  0.1991 -0.2569
16334TIP3    H170493   5.222   0.356  15.781 -0.4924  0.7731 -0.4867
16334TIP3    H270494   5.192   0.319  15.925  0.0145 -0.8336 -0.7712
16335TIP3   OH270495   2.996   3.747   2.247  0.6268  0.3311 -0.6714
16335TIP3    H170496   3.076   3.788   2.214  2.1351 -2.3636 -0.6250
16335TIP3    H270497   2.978   3.676   2.186  0.0929 -1.0648  1.0299
16336TIP3   OH270498   2.915   1.854  13.387 -0.4422  0.0998 -0.1718
16336TIP3    H170499   2.833   1.862  13.339 -0.6786  0.4549  0.2792
16336TIP3    H270500   2.894   1.885  13.475  0.3384  0.8569 -0.2353
16337TIP3   OH270501   2.709   4.870   0.021 -0.2287 -0.2675 -0.1888
16337TIP3    H170502   2.781   4.864  -0.042  0.9985  0.0218  1.1396
16337TIP3    H270503   2.752   4.881   0.106 -1.7603  5.1905  0.2391
16338TIP3   OH270504   0.711   2.985   2.119  0.5160 -0.0986  0.0294
16338TIP3    H170505   0.802   2.956   2.126  1.1264  1.6904 -0.0183
16338TIP3    H270506   0.704   3.024   2.032  0.2749  1.5240  0.7269
16339TIP3   OH270507   5.927   3.382   1.631 -0.0723 -0.2872  0.3534
16339TIP3    H170508   5.921   3.427   1.547 -0.6047 -0.9778  0.0037
16339TIP3    H270509   5.962   3.447   1.692  1.2530 -0.0653 -0.6102
16340TIP3   OH270510   2.518   6.593   2.318 -0.7777  0.6095 -0.4149
16340TIP3    H170511   2.585   6.620   2.255 -1.5802 -0.7239 -1.9519
16340TIP3    H270512   2.550   6.622   2.403  1.8354 -0.1260 -1.0635
16341TIP3   OH270513   3.151   4.962  15.896  0.5161  0.0495 -0.2022
16341TIP3    H170514   3.091   4.937  15.826  1.2059 -1.9489 -0.1586
16341TIP3    H270515   3.194   5.042  15.865 -1.8838  1.3594 -0.3577
16342TIP3   OH270516   0.541   0.294   3.071 -0.1730 -0.3783 -0.3670
16342TIP3    H170517   0.463   0.349   3.064  0.6927  0.7821 -1.3599
16342TIP3    H270518   0.569   0.280   2.981  1.3098  0.0670 -0.0052
16343TIP3   OH270519   3.886   0.077   3.908  0.0251  0.2336 -0.1885
16343TIP3    H170520   3.883  -0.012   3.945  1.1954  0.8197  1.4232
16343TIP3    H270521   3.837   0.070   3.826 -0.2871 -1.7967  0.1096
16344TIP3   OH270522   1.395   1.785   3.654  0.5589 -0.4360  0.0309
16344TIP3    H170523   1.400   1.748   3.742 -1.7417 -1.2428 -0.1079
16344TIP3    H270524   1.385   1.708   3.597 -1.2850  0.2144 -0.5775
16345TIP3   OH270525   0.881   5.093   5.404  0.3115  0.4985  0.0925
16345TIP3    H170526   0.934   5.136   5.471 -0.1211 -0.2598  0.9420
16345TIP3    H270527   0.794   5.133   5.413 -0.3889 -1.2121  1.6082
16346TIP3   OH270528   6.161   5.593   0.934 -0.4371 -0.4164 -0.5686
16346TIP3    H170529   6.105   5.522   0.900 -2.1487 -0.1026  1.3705
16346TIP3    H270530   6.154   5.662   0.869 -3.9929  0.3515  0.4036
16347TIP3   OH270531   0.653   3.690   1.605  0.5619 -0.1863 -0.6810
16347TIP3    H170532   0.741   3.728   1.607 -0.2087  1.6929  0.7569
16347TIP3    H270533   0.619   3.704   1.693 -1.0128 -1.3106 -1.0678
16348TIP3   OH270534   3.317   3.736  12.178  0.2310  0.6402  0.4478
16348TIP3    H170535   3.258   3.706  12.108  1.4381 -1.4967  0.2504
16348TIP3    H270536   3.376   3.797  12.135 -0.3293  0.9597  0.1090
16349TIP3   OH270537   6.615   1.358  11.973  0.5969 -0.7311  0.0048
16349TIP3    H170538   6.563   1.305  12.033 -0.1555 -0.5271 -0.4414
16349TIP3    H270539   6.556   1.429  11.947  1.4671  0.1325  0.3204
16350TIP3   OH270540   2.574   2.132  13.426  0.2365  0.0034  0.6609
16350TIP3    H170541   2.593   2.080  13.504 -0.0644 -1.2554 -0.0750
16350TIP3    H270542   2.568   2.222  13.458 -1.6308 -0.6588  2.4340
16351TIP3   OH270543   6.515   3.175   0.517 -0.2188 -0.3015 -0.3256
16351TIP3    H170544   6.593   3.219   0.551  0.1344 -0.6086 -0.7199
16351TIP3    H270545   6.538   3.152   0.427 -1.4710  1.4040 -1.1539
16352TIP3   OH270546   2.466   0.681   4.228 -0.0485  0.4533  0.0823
16352TIP3    H170547   2.503   0.748   4.287  1.5082 -1.1048  0.9663
16352TIP3    H270548   2.435   0.731   4.152  1.9230  2.1128  0.2701
16353TIP3   OH270549   5.651   2.252   0.291 -0.0569 -0.1741  0.6701
16353TIP3    H170550   5.609   2.205   0.219 -1.1473 -0.3268  1.3764
16353TIP3    H270551   5.672   2.184   0.355  1.0879 -0.0665  0.4334
16354TIP3   OH270552   3.726   2.840   1.342 -0.0905  0.1198 -0.4526
16354TIP3    H170553   3.662   2.904   1.311  1.1627  3.1683  2.5643
16354TIP3    H270554   3.794   2.839   1.275 -1.4681 -0.3479 -1.9136
16355TIP3   OH270555   0.382   0.551  12.332  0.1024  0.7039 -0.3286
16355TIP3    H170556   0.456   0.611  12.319  0.8449  0.0170  0.5680
16355TIP3    H270557   0.338   0.584  12.410  0.1136  0.4793 -0.2270
16356TIP3   OH270558   0.652   4.451  16.007 -0.2384  0.4311 -0.1509
16356TIP3    H170559   0.598   4.390  15.957 -1.2916  2.3199 -1.4034
16356TIP3    H270560   0.725   4.397  16.039 -0.8651 -1.3767 -1.5904
16357TIP3   OH270561   0.878   3.712  17.540  0.6462 -0.0982 -0.1419
16357TIP3    H170562   0.910   3.705  17.630  0.2659 -1.7842 -0.1011
16357TIP3    H270563   0.937   3.657  17.489  1.9095  2.1676 -1.2728
16358TIP3   OH270564   0.731   6.288   6.287  0.1470  0.5127 -0.8425
16358TIP3    H170565   0.736   6.379   6.316  0.3061  0.3337 -0.2888
16358TIP3    H270566   0.638   6.272   6.270 -0.0324  0.4567  0.1369
16359TIP3   OH270567   0.133   4.748  14.745  0.3241 -0.2304 -0.1882
16359TIP3    H170568   0.186   4.811  14.696 -0.3780  0.1921 -0.4166
16359TIP3    H270569   0.046   4.755  14.706 -0.6071  1.1115  1.9693
16360TIP3   OH270570   3.073   0.778   5.647 -0.1350  0.1939 -0.6636
16360TIP3    H170571   3.001   0.746   5.593 -1.9341  1.6353  0.7396
16360TIP3    H270572   3.034   0.791   5.733  1.9886  0.4549  0.3186
16361TIP3   OH270573   4.364   0.721  13.784 -0.3085 -0.2654  0.1943
16361TIP3    H170574   4.389   0.679  13.702  0.7579  1.3444 -0.3620
16361TIP3    H270575   4.365   0.815  13.764  0.8721  0.2225  2.2702
16362TIP3   OH270576   4.758   1.255  15.730 -0.1948  0.4718  0.0506
16362TIP3    H170577   4.666   1.229  15.719 -0.9232  1.2645  3.1824
16362TIP3    H270578   4.776   1.310  15.654 -1.8117 -0.8759 -1.4118
16363TIP3   OH270579   6.635   4.787   3.608  0.1727 -0.3152 -0.6699
16363TIP3    H170580   6.658   4.705   3.652 -1.6006 -1.2401 -1.3497
16363TIP3    H270581   6.650   4.855   3.674  1.3058 -1.2103  0.0397
16364TIP3   OH270582   4.417   0.487  13.605 -0.1467  0.1800 -0.2180
16364TIP3    H170583   4.420   0.461  13.697  0.1438  0.7658 -0.0575
16364TIP3    H270584   4.364   0.419  13.563 -2.8649  1.4738  0.8944
16365TIP3   OH270585   4.691   1.610  16.613  0.5163  0.1177 -0.9024
16365TIP3    H170586   4.662   1.632  16.524  1.9231  0.1221 -1.3730
16365TIP3    H270587   4.693   1.694  16.659 -0.5436  0.0751 -0.7388
16366TIP3   OH270588   4.957   1.739   5.286  0.0974  0.5922  0.1938
16366TIP3    H170589   4.881   1.780   5.327  1.1232 -0.3154  3.2535
16366TIP3    H270590   4.973   1.660   5.337  1.4132 -0.7878 -2.1727
16367TIP3   OH270591   0.248   3.481  16.484  0.5399  0.2055  0.3902
16367TIP3    H170592   0.256   3.471  16.579  1.6784  0.9626  0.3894
16367TIP3    H270593   0.179   3.419  16.459  1.2057 -1.0250  1.5162
16368TIP3   OH270594   6.115   0.949  15.781  0.4128  0.0873  0.2078
16368TIP3    H170595   6.031   0.904  15.788 -0.3794  1.5298  0.4951
16368TIP3    H270596   6.122   0.972  15.688  0.9390 -0.8092  0.0111
16369TIP3   OH270597   6.392   1.693   5.956  0.0258  0.7563 -0.5401
16369TIP3    H170598   6.449   1.694   6.032 -0.8594  0.1971  0.1531
16369TIP3    H270599   6.365   1.784   5.945  1.0562  1.0301 -0.8975
16370TIP3   OH270600   2.603   3.696   4.678  0.6926 -0.1142 -0.4856
16370TIP3    H170601   2.591   3.615   4.726 -0.5923  0.7613  0.7701
16370TIP3    H270602   2.542   3.689   4.604 -0.7953  0.3933  0.6245
16371TIP3   OH270603   2.360   1.999   5.819  0.2466 -0.0842 -0.5320
16371TIP3    H170604   2.338   2.077   5.769  0.7590  0.6559  0.3638
16371TIP3    H270605   2.320   2.012   5.905 -0.4267 -1.2277 -0.6555
16372TIP3   OH270606   4.465   5.938  12.941  0.6856 -1.0682  0.0011
16372TIP3    H170607   4.544   5.968  12.988  0.4602  1.9258 -1.2604
16372TIP3    H270608   4.399   5.928  13.009  1.2249 -0.0174  0.7162
16373TIP3   OH270609   6.524   2.271  14.013 -0.5718 -0.2387  0.1738
16373TIP3    H170610   6.597   2.330  14.035 -0.7174  0.0945 -0.2259
16373TIP3    H270611   6.469   2.272  14.091 -0.0310 -0.6799  0.5710
16374TIP3   OH270612   6.686   0.635   2.720  0.1202  0.0546 -0.1660
16374TIP3    H170613   6.661   0.684   2.642  0.6013 -1.6782 -1.4570
16374TIP3    H270614   6.767   0.676   2.750  1.7937 -1.3076 -2.5781
16375TIP3   OH270615   4.913   4.511  16.076  0.2557  0.1780  0.0050
16375TIP3    H170616   4.930   4.450  16.004 -0.3105 -1.5359  1.2683
16375TIP3    H270617   4.952   4.469  16.152  1.9413  2.5343  0.5456
16376TIP3   OH270618   0.211   2.272  14.161 -0.0197 -0.2688 -0.0889
16376TIP3    H170619   0.299   2.248  14.190  0.5986 -1.8252 -2.9252
16376TIP3    H270620   0.160   2.191  14.170 -0.1856 -0.3756 -1.7621
16377TIP3   OH270621   4.477   5.231  12.773 -0.3466 -0.1667 -0.2031
16377TIP3    H170622   4.524   5.212  12.692 -2.5218 -2.3720 -1.0797
16377TIP3    H270623   4.446   5.321  12.762 -0.1626 -0.2518 -1.5875
16378TIP3   OH270624   0.912   4.632  16.503  0.2810 -0.2202 -0.5974
16378TIP3    H170625   0.888   4.629  16.410  1.1900  1.6023 -0.9370
16378TIP3    H270626   0.928   4.541  16.527  1.4260 -0.6132 -2.6156
16379TIP3   OH270627   0.551   4.813  13.776 -0.0795  0.4238 -0.5186
16379TIP3    H170628   0.640   4.812  13.741  0.3137  1.0392  0.4133
16379TIP3    H270629   0.496   4.784  13.703  1.0290 -1.4880 -0.6423
16380TIP3   OH270630   2.110   5.286  14.764  0.0334  0.3818  0.1436
16380TIP3    H170631   2.085   5.353  14.827  1.4540 -0.6622  1.8985
16380TIP3    H270632   2.035   5.226  14.762 -0.1748  0.6236  0.5650
16381TIP3   OH270633   6.335   0.183  13.400  0.1138  0.0597 -0.4381
16381TIP3    H170634   6.417   0.234  13.407  1.3259 -1.6360 -1.4128
16381TIP3    H270635   6.285   0.229  13.333  1.2164 -0.0084 -1.3492
16382TIP3   OH270636   5.093   3.440   1.337 -0.2756 -0.4068  0.2871
16382TIP3    H170637   5.003   3.416   1.315 -0.6487 -0.5517  1.8318
16382TIP3    H270638   5.147   3.392   1.274 -1.3047  0.8069 -1.5897
16383TIP3   OH270639   3.842   2.021  13.852  0.1355  0.2219  0.2743
16383TIP3    H170640   3.766   2.077  13.867 -0.9386 -0.6560 -1.5546
16383TIP3    H270641   3.900   2.074  13.796  1.0435  0.9841  1.8674
16384TIP3   OH270642   0.646   3.085  16.089 -0.5122  0.2313 -0.0614
16384TIP3    H170643   0.630   3.004  16.042 -1.6852  1.0525 -1.1492
16384TIP3    H270644   0.613   3.154  16.031 -0.6692  1.3978  1.3338
16385TIP3   OH270645   4.580   3.324  17.242  0.4943  0.4896  0.6759
16385TIP3    H170646   4.507   3.310  17.303 -0.3766  1.0077 -0.2035
16385TIP3    H270647   4.611   3.236  17.222 -1.2238  0.0867 -0.4638
16386TIP3   OH270648   2.711   6.615   2.129  0.4409  0.8858 -0.3629
16386TIP3    H170649   2.672   6.599   2.043  0.9595  0.8691 -0.6001
16386TIP3    H270650   2.781   6.678   2.113  0.2055  1.2763  0.1335
16387TIP3   OH270651   4.584   5.763  12.332  0.0221  0.2855  0.1458
16387TIP3    H170652   4.616   5.764  12.241 -0.4029 -0.0810 -0.0058
16387TIP3    H270653   4.657   5.727  12.382 -0.3270 -1.0248 -0.2691
16388TIP3   OH270654   1.760   3.665  17.324  0.3025  0.2241 -0.0784
16388TIP3    H170655   1.805   3.581  17.315  0.3613  0.3859 -1.5923
16388TIP3    H270656   1.728   3.666  17.414  2.9523 -0.0717  0.9545
16389TIP3   OH270657   5.920   6.442  12.429  0.0419  0.3790  0.0070
16389TIP3    H170658   5.945   6.526  12.468 -1.1850  2.1298 -2.7249
16389TIP3    H270659   5.968   6.437  12.347  0.4593 -1.9076  0.2938
16390TIP3   OH270660   2.016   4.064  12.463 -0.0488  0.4050  0.8250
16390TIP3    H170661   2.076   4.022  12.402 -1.7248 -1.6166  0.4507
16390TIP3    H270662   2.020   4.009  12.541 -1.3209  0.2921  0.8216
16391TIP3   OH270663   1.117   0.703   6.034 -0.2066 -0.0415 -0.2717
16391TIP3    H170664   1.084   0.775   6.088 -1.9538 -1.7670  1.1343
16391TIP3    H270665   1.040   0.672   5.987  0.8752  0.0801 -2.1944
16392TIP3   OH270666   0.972   3.062   5.625  0.5013  0.2779 -0.2522
16392TIP3    H170667   0.931   3.101   5.549 -0.4507 -1.8784 -0.9366
16392TIP3    H270668   1.062   3.044   5.597 -0.2751 -2.0127 -1.5642
16393TIP3   OH270669   2.861   1.415   3.393  0.8899 -0.0406  0.6092
16393TIP3    H170670   2.768   1.392   3.386  0.9456 -0.3699  0.9152
16393TIP3    H270671   2.870   1.494   3.340  0.8273 -1.1307 -1.0988
16394TIP3   OH270672   3.024   2.695   5.376  0.2321  0.3083  0.2955
16394TIP3    H170673   3.046   2.717   5.466  1.9602 -1.4105  0.3386
16394TIP3    H270674   2.928   2.694   5.374  0.1710  0.5641  2.0316
16395TIP3   OH270675   1.246   3.489  13.670 -0.3290  0.2170 -0.0607
16395TIP3    H170676   1.190   3.436  13.614  0.3840  0.8361 -1.4244
16395TIP3    H270677   1.322   3.509  13.615  1.0387 -0.2624  1.5992
16396TIP3   OH270678   3.573   2.586  13.976 -0.2533 -0.2137  0.6192
16396TIP3    H170679   3.522   2.586  13.895  0.4958 -0.4642  0.1357
16396TIP3    H270680   3.510   2.608  14.045 -0.9235 -0.1337 -0.0146
16397TIP3   OH270681   4.022   6.569   0.825  0.4610 -0.3052 -0.4680
16397TIP3    H170682   4.077   6.575   0.747  0.3842 -1.9063 -0.6754
16397TIP3    H270683   4.036   6.481   0.858 -0.9941 -0.3077  0.2302
16398TIP3   OH270684   1.199   4.319  12.483 -0.6335 -0.2601  0.3442
16398TIP3    H170685   1.291   4.344  12.497 -0.6603  0.2087 -0.2836
16398TIP3    H270686   1.175   4.273  12.563  0.4944 -1.4303  0.0483
16399TIP3   OH270687   1.528   0.749   1.079  0.1526 -0.3760 -0.2603
16399TIP3    H170688   1.536   0.798   0.998 -0.8688  0.3612  0.0621
16399TIP3    H270689   1.446   0.700   1.070 -1.3785  1.7098  1.3035
16400TIP3   OH270690   3.892   2.707  13.896  0.0765  0.6225  0.6372
16400TIP3    H170691   3.927   2.663  13.974 -2.1623 -0.9366  0.8519
16400TIP3    H270692   3.797   2.696  13.903 -0.1981  0.4325 -2.2839
16401TIP3   OH270693   3.551   0.975   4.368 -0.0675  0.3326 -0.2325
16401TIP3    H170694   3.636   1.015   4.350  0.4163  1.3345  3.5214
16401TIP3    H270695   3.573   0.890   4.406 -0.6945  0.6081  0.7841
16402TIP3   OH270696   6.514   4.634  11.610 -0.5301 -0.2228  0.0669
16402TIP3    H170697   6.438   4.669  11.564 -0.0923  1.7637  0.7132
16402TIP3    H270698   6.581   4.703  11.600  0.0697 -0.3941  2.3130
16403TIP3   OH270699   2.080   6.300  12.984  0.3536  0.7711 -0.0171
16403TIP3    H170700   2.067   6.234  13.052  4.9040  0.1157  0.5468
16403TIP3    H270701   2.045   6.260  12.905 -0.8910 -0.4147  1.0684
16404TIP3   OH270702   2.860   2.719   2.664  0.3873  0.0741  0.3773
16404TIP3    H170703   2.944   2.762   2.652  0.8919 -0.9644  0.0923
16404TIP3    H270704   2.798   2.772   2.615  0.9387  0.6370  0.2823
16405TIP3   OH270705   2.135   2.727   5.353  0.4819 -0.0953 -0.3568
16405TIP3    H170706   2.148   2.797   5.289  1.6268 -0.9328 -1.0727
16405TIP3    H270707   2.223   2.699   5.378  0.0494 -0.3851  0.9371
16406TIP3   OH270708   5.913   4.802  13.190  0.1494  0.0102 -0.6321
16406TIP3    H170709   5.911   4.783  13.284  0.2790  0.5373 -0.5255
16406TIP3    H270710   5.969   4.879  13.181  0.1773 -0.0646 -1.1485
16407TIP3   OH270711   3.352   1.580   0.393 -0.0579  0.4870 -0.7001
16407TIP3    H170712   3.281   1.531   0.353 -0.4561 -0.3357  0.9523
16407TIP3    H270713   3.395   1.518   0.451  0.8109  1.5000 -0.2267
16408TIP3   OH270714   0.410   0.372  17.626 -0.0213  0.1892  0.0149
16408TIP3    H170715   0.336   0.361  17.566 -0.7973  0.3770  0.9127
16408TIP3    H270716   0.442   0.283  17.641 -0.3706  0.0568 -0.0124
16409TIP3   OH270717   0.261   0.093  12.913  0.1227 -0.5388  0.4285
16409TIP3    H170718   0.336   0.152  12.923  0.2429 -0.5462 -0.3374
16409TIP3    H270719   0.221   0.089  13.000  0.2275  0.5080  0.5318
16410TIP3   OH270720   0.175   4.395  16.693 -0.3594  0.0375  0.5029
16410TIP3    H170721   0.259   4.355  16.716 -0.2031  0.4740  0.6876
16410TIP3    H270722   0.117   4.320  16.677  0.6896 -0.3520 -2.0988
16411TIP3   OH270723   3.952   2.027   0.038  0.1391  0.5661 -0.3145
16411TIP3    H170724   3.956   1.935   0.010 -1.2943  0.6170 -0.7599
16411TIP3    H270725   3.908   2.024   0.123  0.6087  0.8030 -0.0598
16412TIP3   OH270726   3.751   5.590   0.750  0.2379  0.2440  0.4259
16412TIP3    H170727   3.823   5.612   0.690  1.4977  0.2309  1.8620
16412TIP3    H270728   3.764   5.648   0.825 -1.6013  0.6188  0.4986
16413TIP3   OH270729   6.368   1.404   3.320  0.3933 -0.5800 -0.0586
16413TIP3    H170730   6.297   1.438   3.376  0.9998 -0.7322  0.8165
16413TIP3    H270731   6.448   1.424   3.369  1.1055  1.0573 -1.7623
16414TIP3   OH270732   5.321   0.874  17.484  0.3874  0.3326 -0.4338
16414TIP3    H170733   5.387   0.898  17.420  3.9648 -0.1456  2.6680
16414TIP3    H270734   5.339   0.782  17.503 -1.1478  0.2044  0.6075
16415TIP3   OH270735   0.256   2.299   5.781  0.0825  0.4584 -0.2953
16415TIP3    H170736   0.283   2.391   5.784 -2.4934  1.2280  1.6762
16415TIP3    H270737   0.186   2.297   5.716 -0.2619 -0.0269  0.0938
16416TIP3   OH270738   1.884   3.362   0.342 -0.3937 -0.2347  0.3258
16416TIP3    H170739   1.849   3.419   0.274  1.3182 -0.7278 -1.0601
16416TIP3    H270740   1.808   3.312   0.373 -1.4440  0.9064 -0.3131
16417TIP3   OH270741   3.517   5.159  15.310 -0.2091  0.6502 -0.5398
16417TIP3    H170742   3.503   5.064  15.314 -1.2241  0.7879 -0.4065
16417TIP3    H270743   3.566   5.179  15.389  0.2639  0.1968 -0.7139
16418TIP3   OH270744   3.954   5.688  16.068 -0.3519 -0.1271 -0.6529
16418TIP3    H170745   3.869   5.732  16.076 -1.2676 -1.7109 -1.1804
16418TIP3    H270746   4.012   5.755  16.032 -0.9560  1.4390  1.1034
16419TIP3   OH270747   1.025   5.411  15.587  0.3549 -0.7052  0.0538
16419TIP3    H170748   1.117   5.419  15.563  0.7406  0.7535  1.7538
16419TIP3    H270749   0.999   5.500  15.611 -1.1319 -1.3188  0.8404
16420TIP3   OH270750   4.283   4.393  14.069  0.9252 -0.3634  0.1170
16420TIP3    H170751   4.310   4.335  14.140 -0.2720 -1.6434 -0.4373
16420TIP3    H270752   4.313   4.349  13.989  1.4788  0.6275 -0.2420
16421TIP3   OH270753   5.660   3.831  14.150  0.4027 -0.1004  0.4357
16421TIP3    H170754   5.755   3.826  14.136  0.3051 -1.7094  0.1178
16421TIP3    H270755   5.624   3.771  14.085 -0.8295  0.3578  0.6831
16422TIP3   OH270756   6.552   5.204  13.858 -0.4624  0.2564 -0.1576
16422TIP3    H170757   6.479   5.145  13.839 -0.2186 -0.4163  0.8989
16422TIP3    H270758   6.537   5.281  13.803 -1.1093 -0.5444 -1.1176
16423TIP3   OH270759   5.667   4.617   4.741 -0.5470 -0.1266  0.0106
16423TIP3    H170760   5.652   4.593   4.650 -0.3835 -0.6386  0.1172
16423TIP3    H270761   5.696   4.536   4.783 -1.3435 -0.0740  0.6834
16424TIP3   OH270762   0.587   5.858  13.839 -0.2332  0.0530  0.7669
16424TIP3    H170763   0.508   5.884  13.793  0.7243  0.0775 -0.9436
16424TIP3    H270764   0.599   5.925  13.907 -1.6108  0.0797  1.0086
16425TIP3   OH270765   4.424   3.932   5.955  0.6545 -0.0754  0.7056
16425TIP3    H170766   4.414   4.001   6.022  3.3096  0.0828  1.0546
16425TIP3    H270767   4.489   3.967   5.894 -0.3544 -0.9925 -0.9651
16426TIP3   OH270768   0.686   3.747  16.898 -0.3798  0.2095 -0.1557
16426TIP3    H170769   0.711   3.829  16.939  1.0636 -1.4690  2.6667
16426TIP3    H270770   0.596   3.732  16.929 -0.5605  0.5894 -0.4868
16427TIP3   OH270771   0.198   3.590  13.638  0.1673 -0.3707 -0.9405
16427TIP3    H170772   0.137   3.549  13.577  0.3723  0.2437 -1.5609
16427TIP3    H270773   0.280   3.596  13.589  1.3169 -2.8723  0.4511
16428TIP3   OH270774   5.196   3.085   2.327  0.3960 -0.1323  0.1998
16428TIP3    H170775   5.109   3.069   2.290  0.3413 -0.9491  0.6500
16428TIP3    H270776   5.189   3.055   2.418  1.0837  0.0000  0.3013
16429TIP3   OH270777   3.155   4.437   6.318  0.8892  0.2030 -0.0817
16429TIP3    H170778   3.217   4.365   6.327  0.8322 -0.2924 -2.8861
16429TIP3    H270779   3.196   4.496   6.254 -1.0989  0.3269 -1.3168
16430TIP3   OH270780   1.157   3.790   1.859 -0.4749 -0.5449  0.0335
16430TIP3    H170781   1.094   3.836   1.914 -0.0923  0.0060  0.0194
16430TIP3    H270782   1.169   3.847   1.783  3.0974  1.4678  1.8559
16431TIP3   OH270783   2.646   6.620  16.393  0.0599 -0.3732  0.0879
16431TIP3    H170784   2.617   6.642  16.481 -0.2985  2.3101 -0.6031
16431TIP3    H270785   2.719   6.679  16.376 -1.9303  1.6213 -2.4845
16432TIP3   OH270786   1.328   4.372   6.060  0.7089 -0.4381  0.4996
16432TIP3    H170787   1.347   4.431   5.987 -0.7070 -0.7897 -0.1737
16432TIP3    H270788   1.387   4.402   6.130  0.4022  1.4427  0.0035
16433TIP3   OH270789   0.514   3.237   6.088  0.2985 -0.4947 -0.2580
16433TIP3    H170790   0.590   3.192   6.126  0.1293 -0.0673  0.5926
16433TIP3    H270791   0.439   3.196   6.130  0.1556  1.0636  1.0963
16434TIP3   OH270792   4.945   1.568   1.327 -0.0151  0.2851 -0.2233
16434TIP3    H170793   5.035   1.571   1.359 -0.0958 -0.2310  0.0746
16434TIP3    H270794   4.910   1.487   1.364 -0.3991  0.1444 -0.8744
16435TIP3   OH270795   6.440   3.937  15.935 -0.5172 -0.2030  0.1930
16435TIP3    H170796   6.407   3.949  15.846  0.5128 -0.6080 -0.2487
16435TIP3    H270797   6.426   4.022  15.977 -0.2840  0.2285 -0.5872
16436TIP3   OH270798   0.063   5.863   4.812  0.2552  0.0751 -0.0409
16436TIP3    H170799   0.080   5.898   4.900  0.3815 -0.5438  0.1871
16436TIP3    H270800   0.147   5.827   4.784  0.2017  0.2229 -0.4007
16437TIP3   OH270801   4.569   6.650  12.346  0.5181  0.1903  0.0423
16437TIP3    H170802   4.649   6.637  12.295  2.0278 -0.6349  2.4434
16437TIP3    H270803   4.598   6.645  12.438 -2.2907 -0.0853  1.0075
16438TIP3   OH270804   4.637   2.200   1.982 -0.2644 -0.6192  0.3680
16438TIP3    H170805   4.572   2.247   2.034 -0.5476  0.7517 -1.1499
16438TIP3    H270806   4.669   2.265   1.919  0.2247 -2.1528 -1.0251
16439TIP3   OH270807   0.080   6.298  12.789  0.5972  0.1193 -0.3225
16439TIP3    H170808   0.133   6.344  12.855 -0.0225  1.0882 -0.4727
16439TIP3    H270809   0.128   6.310  12.707  1.1308 -0.6836 -0.1317
16440TIP3   OH270810   1.264   6.594  16.110  0.2536 -0.0795 -0.6334
16440TIP3    H170811   1.179   6.575  16.070  0.4423  0.9663 -1.5589
16440TIP3    H270812   1.244   6.613  16.202 -0.5804  0.6357 -0.9557
16441TIP3   OH270813   2.331   4.209   3.469 -0.3121  0.2529 -0.3341
16441TIP3    H170814   2.352   4.289   3.516 -0.6980 -0.6422  1.4362
16441TIP3    H270815   2.342   4.139   3.533 -2.4497 -0.8674 -1.0822
16442TIP3   OH270816   0.015   4.247   2.243 -0.2149  0.6551 -0.1511
16442TIP3    H170817  -0.059   4.265   2.184  0.1712  0.6725 -0.6392
16442TIP3    H270818  -0.025   4.234   2.329 -0.8028  0.4937 -0.4430
16443TIP3   OH270819   0.323   5.294  17.278 -0.5823 -0.4435  0.0672
16443TIP3    H170820   0.282   5.355  17.339  1.3374  0.0791  0.9063
16443TIP3    H270821   0.249   5.250  17.235 -2.0294 -1.0969  2.9891
16444TIP3   OH270822   2.972   2.745   5.875  0.4530 -0.0335 -0.5436
16444TIP3    H170823   3.026   2.796   5.934  0.6974 -1.2208  0.2909
16444TIP3    H270824   2.882   2.768   5.898  0.5072 -1.2445  1.0489
16445TIP3   OH270825   2.203   1.591  13.489  0.7256  0.6556  0.1372
16445TIP3    H170826   2.195   1.508  13.441  0.2264  0.9136 -0.2294
16445TIP3    H270827   2.248   1.567  13.570 -1.5445 -0.4232  1.1767
16446TIP3   OH270828   5.551   4.097  12.183 -0.2419 -0.4754  0.3032
16446TIP3    H170829   5.523   4.126  12.270 -1.1907 -1.6195  0.4068
16446TIP3    H270830   5.601   4.171  12.148  0.0956  0.0348  1.7822
16447TIP3   OH270831   3.901   5.827   2.691 -0.1278 -0.1631 -0.6353
16447TIP3    H170832   3.850   5.843   2.770  0.2618 -1.4396 -0.0976
16447TIP3    H270833   3.895   5.732   2.678  2.5405 -0.4672 -0.2310
16448TIP3   OH270834   3.019   4.683   4.699  0.0855  0.5547 -0.0240
16448TIP3    H170835   3.054   4.771   4.685  0.6687  0.3038 -0.1810
16448TIP3    H270836   3.097   4.628   4.708 -0.2352 -0.2502 -1.7989
16449TIP3   OH270837   3.158   1.623  16.144 -0.1371 -0.3367 -0.4663
16449TIP3    H170838   3.239   1.672  16.156  0.0406 -0.3483 -1.4689
16449TIP3    H270839   3.161   1.595  16.052 -0.6828 -1.4037 -0.1751
16450TIP3   OH270840   3.490   5.579  15.635  0.3193 -0.2139 -0.4823
16450TIP3    H170841   3.582   5.596  15.654 -0.1922  0.9966  1.0993
16450TIP3    H270842   3.489   5.491  15.596  2.2498  0.2670 -1.7128
16451TIP3   OH270843   5.181   6.411  12.821 -0.1445 -0.6844 -0.3750
16451TIP3    H170844   5.160   6.318  12.830 -2.6576 -0.6261 -3.6055
16451TIP3    H270845   5.115   6.456  12.875  0.6599 -0.7329  0.6667
16452TIP3   OH270846   5.105   1.686   2.325 -0.1126 -0.1464  0.2622
16452TIP3    H170847   5.128   1.640   2.407  0.5405 -0.6107 -0.1712
16452TIP3    H270848   5.042   1.753   2.352 -0.1932 -0.5411  1.0920
16453TIP3   OH270849   0.086   1.191   1.412  0.1223 -0.7968 -0.3537
16453TIP3    H170850   0.118   1.213   1.324 -1.3794 -1.8084 -1.2004
16453TIP3    H270851   0.150   1.129   1.446  0.2772 -1.0461 -1.0802
16454TIP3   OH270852   3.376   6.479  16.628 -0.0438 -0.3575 -0.4373
16454TIP3    H170853   3.396   6.572  16.630 -1.1193 -0.1131 -0.4902
16454TIP3    H270854   3.459   6.437  16.604  0.6230  0.5212  0.2847
16455TIP3   OH270855   3.938   4.984   4.338  0.4575 -0.1885  0.3571
16455TIP3    H170856   3.899   5.066   4.370 -0.2337 -0.7171  0.8877
16455TIP3    H270857   3.931   4.990   4.243 -1.9926 -0.7667  0.4531
16456TIP3   OH270858   1.493   1.920  14.959  0.0412  0.1377 -0.0080
16456TIP3    H170859   1.465   1.920  15.051  3.4418  0.5411  1.1915
16456TIP3    H270860   1.530   2.007  14.946  2.0323 -0.7807 -0.8638
16457TIP3   OH270861   6.350   0.091   3.159 -0.4148 -0.7604 -0.3167
16457TIP3    H170862   6.275   0.151   3.162 -0.3754 -0.7391  0.5828
16457TIP3    H270863   6.414   0.137   3.104  0.2644  0.8476  1.6610
16458TIP3   OH270864   2.728   1.745  15.222  0.2013 -0.3435 -0.4239
16458TIP3    H170865   2.794   1.730  15.289  0.2599 -0.0090 -0.4021
16458TIP3    H270866   2.762   1.700  15.144  1.1518  0.9784 -0.8144
16459TIP3   OH270867   3.517   3.589  16.084 -0.3725  0.2109  0.5296
16459TIP3    H170868   3.611   3.602  16.071 -0.4970  0.5261 -0.0771
16459TIP3    H270869   3.476   3.626  16.006 -1.0734  1.0928  1.2825
16460TIP3   OH270870   4.667   3.057  14.790 -0.7587 -0.4616 -0.1528
16460TIP3    H170871   4.620   2.990  14.742  1.7683 -1.7883 -0.9396
16460TIP3    H270872   4.626   3.140  14.764 -2.5377 -1.5130 -0.8134
16461TIP3   OH270873   6.565   2.218   0.733 -0.5467 -0.8766  0.1637
16461TIP3    H170874   6.476   2.185   0.717 -1.4010  1.2393  0.2399
16461TIP3    H270875   6.604   2.222   0.646 -0.7381 -1.2157  0.0585
16462TIP3   OH270876   1.801   5.991   6.646  0.0721  0.5821 -0.6095
16462TIP3    H170877   1.855   5.917   6.675  1.0046  0.2642 -2.8869
16462TIP3    H270878   1.716   5.977   6.687  1.0608 -0.1452  1.3025
16463TIP3   OH270879   5.946   3.308   3.822 -0.0121  0.2061  0.0663
16463TIP3    H170880   5.884   3.255   3.872  0.2751 -0.9495 -0.7588
16463TIP3    H270881   5.955   3.389   3.873 -0.2985 -0.6102  1.4839
16464TIP3   OH270882   1.649   3.367  12.762 -0.1015 -0.3586  0.1622
16464TIP3    H170883   1.615   3.304  12.698 -1.0313 -1.2498  1.4817
16464TIP3    H270884   1.644   3.452  12.717 -0.5649 -0.9835 -1.0096
16465TIP3   OH270885   6.314   4.491  17.388 -0.1200 -0.8823  0.1313
16465TIP3    H170886   6.267   4.567  17.424  2.3673 -0.4030  2.7218
16465TIP3    H270887   6.397   4.527  17.356  1.8525 -2.5523  2.9396
16466TIP3   OH270888   2.326   3.199  17.305  0.2068  0.4106  0.2828
16466TIP3    H170889   2.357   3.257  17.236  1.4205 -0.1247  0.3502
16466TIP3    H270890   2.398   3.138  17.320 -0.4753 -0.2048  1.2236
16467TIP3   OH270891   5.082   5.261   1.793  0.2781 -0.1412  0.5061
16467TIP3    H170892   5.105   5.222   1.709  1.2544  0.6296  0.4016
16467TIP3    H270893   4.987   5.267   1.792  0.2380 -0.8623 -0.2165
16468TIP3   OH270894   2.227   5.006   5.607 -0.6106  0.1162 -0.3084
16468TIP3    H170895   2.158   5.031   5.545 -0.4637  0.6143 -0.2699
16468TIP3    H270896   2.234   4.911   5.597 -1.1625  0.0864 -0.4612
16469TIP3   OH270897   4.171   3.739   4.668 -0.1352 -0.0748  0.0441
16469TIP3    H170898   4.139   3.656   4.631 -0.5315  0.6575 -1.3101
16469TIP3    H270899   4.241   3.712   4.728 -1.5836 -1.5228  1.1814
16470TIP3   OH270900   1.290   2.579  13.385  0.3704  0.2003  0.5201
16470TIP3    H170901   1.240   2.646  13.432 -0.3177 -1.9342  3.1271
16470TIP3    H270902   1.271   2.498  13.433 -0.2834 -2.2539 -3.4503
16471TIP3   OH270903   0.780   4.829   2.742 -0.4390  0.0877  0.9331
16471TIP3    H170904   0.791   4.741   2.778  0.5635 -0.5401 -0.7747
16471TIP3    H270905   0.776   4.816   2.647 -1.8568  1.7508  0.7099
16472TIP3   OH270906   4.025   4.334   3.038  0.5510 -0.1511 -0.2239
16472TIP3    H170907   4.098   4.277   3.064  0.7825  0.1094 -0.2974
16472TIP3    H270908   4.013   4.393   3.112  0.7876  0.1738 -0.4439
16473TIP3   OH270909   0.873   3.278   4.186  0.6910 -0.7181 -0.1845
16473TIP3    H170910   0.887   3.372   4.177 -0.5104 -0.5347 -0.2721
16473TIP3    H270911   0.864   3.264   4.281 -1.0126 -0.4317 -0.2732
16474TIP3   OH270912   0.528   0.304  12.820 -0.5134 -0.6493 -0.2708
16474TIP3    H170913   0.463   0.288  12.752  0.7589 -0.4761 -1.5804
16474TIP3    H270914   0.574   0.221  12.830  0.7900 -0.0812 -1.2870
16475TIP3   OH270915   3.455   3.299  14.344 -0.2163  0.2623  0.4740
16475TIP3    H170916   3.512   3.223  14.337 -0.0555  0.3077  1.2200
16475TIP3    H270917   3.438   3.325  14.253  0.1616 -0.3354  0.2288
16476TIP3   OH270918   2.793   5.564   4.887 -0.2704 -0.3352  0.0044
16476TIP3    H170919   2.705   5.528   4.893  0.5217 -2.2376  1.2508
16476TIP3    H270920   2.780   5.657   4.872 -2.4889 -0.5355  0.3658
16477TIP3   OH270921   0.793   4.736   5.471  0.1577 -0.2009 -0.4276
16477TIP3    H170922   0.884   4.742   5.440 -0.4279  1.6662 -1.9764
16477TIP3    H270923   0.799   4.751   5.565  1.4132  0.2259 -0.5539
16478TIP3   OH270924   3.902   1.123   6.215  0.1438  0.2036  0.5265
16478TIP3    H170925   3.959   1.130   6.292  1.1184  0.3277 -0.1802
16478TIP3    H270926   3.813   1.119   6.251  0.5273  0.9402  1.6276
16479TIP3   OH270927   3.834   0.345   0.014  0.2938  0.6400 -0.2140
16479TIP3    H170928   3.802   0.361  -0.075  0.0196  2.8950  0.2321
16479TIP3    H270929   3.925   0.319   0.001  0.3964  1.3912 -1.1421
16480TIP3   OH270930   0.404   2.207  16.847  0.2441 -0.2175 -0.2573
16480TIP3    H170931   0.341   2.279  16.850 -0.0973 -0.5076 -0.3611
16480TIP3    H270932   0.354   2.130  16.873  0.6282 -0.4035 -0.0599
16481TIP3   OH270933   0.704   0.654  14.522 -0.4085  0.6001  0.4270
16481TIP3    H170934   0.768   0.721  14.547 -1.8315  1.3365  2.3221
16481TIP3    H270935   0.650   0.642  14.600 -0.2797 -2.7542  0.1161
16482TIP3   OH270936   2.462   2.919  16.865  0.3512  0.0874 -0.3393
16482TIP3    H170937   2.555   2.896  16.858  0.6949  1.1655  0.5319
16482TIP3    H270938   2.444   2.918  16.958 -0.5755 -0.3077 -0.5192
16483TIP3   OH270939   3.575   4.155  15.622 -0.1108  0.0994 -0.2430
16483TIP3    H170940   3.505   4.213  15.651 -1.2400 -0.8997 -0.8470
16483TIP3    H270941   3.554   4.137  15.530 -0.3625 -1.9916  0.1762
16484TIP3   OH270942   0.454   4.552  15.694  0.4435  0.7199  0.6128
16484TIP3    H170943   0.512   4.482  15.723  1.1067  1.3670  0.8968
16484TIP3    H270944   0.464   4.553  15.598  0.5500  0.5346  0.6221
16485TIP3   OH270945   3.240   5.049  13.344 -0.4129  0.1850 -0.0482
16485TIP3    H170946   3.319   5.011  13.383  0.6809  0.7014 -1.6685
16485TIP3    H270947   3.170   5.027  13.406  1.0211 -0.0601  1.5672
16486TIP3   OH270948   3.641   1.624  13.389 -0.2908 -0.0186  0.2091
16486TIP3    H170949   3.643   1.711  13.430 -1.6128  0.4218 -0.5921
16486TIP3    H270950   3.552   1.592  13.403  0.0980 -1.1242  0.2362
16487TIP3   OH270951   1.346   1.895  13.251  0.2599 -0.0902  0.3619
16487TIP3    H170952   1.257   1.861  13.264  0.0967 -0.4698 -1.4343
16487TIP3    H270953   1.391   1.827  13.201  1.5984  0.0684  1.3098
16488TIP3   OH270954   1.111   3.074   3.713  0.2986 -0.2375  0.2953
16488TIP3    H170955   1.097   3.136   3.784 -0.2696 -0.7390  0.6309
16488TIP3    H270956   1.114   3.128   3.634  2.4937  0.5088  0.8259
16489TIP3   OH270957   5.917   2.964   5.011 -0.1774 -0.2120  0.1226
16489TIP3    H170958   5.960   3.044   5.041  0.4368 -1.2241  2.1208
16489TIP3    H270959   5.945   2.955   4.920  2.1259  0.3177  0.6983
16490TIP3   OH270960   2.795   4.019  15.440 -0.0082 -0.1651  0.6879
16490TIP3    H170961   2.756   4.050  15.522 -2.3190 -1.9565  0.3586
16490TIP3    H270962   2.876   3.975  15.467 -0.7505 -0.7566  2.0387
16491TIP3   OH270963   3.947   0.504   4.962 -0.4689  0.3883  0.4395
16491TIP3    H170964   3.965   0.501   4.868  0.5467 -0.5771  0.6391
16491TIP3    H270965   3.957   0.596   4.986  0.9182  0.4190 -0.1222
16492TIP3   OH270966   1.724   0.375  16.318 -0.5884 -0.4663  0.3335
16492TIP3    H170967   1.668   0.453  16.314  0.8372  0.5924 -0.0433
16492TIP3    H270968   1.813   0.410  16.320  0.0654 -2.0215  2.7451
16493TIP3   OH270969   1.145   5.417   3.474  0.4254  0.0771 -0.4018
16493TIP3    H170970   1.202   5.434   3.549  1.6557 -0.6402 -1.1355
16493TIP3    H270971   1.203   5.423   3.398 -0.1468 -2.0368 -1.0843
16494TIP3   OH270972   5.187   4.020   6.964  0.4734  0.3710  0.6693
16494TIP3    H170973   5.138   3.979   7.036 -1.0350 -2.2570 -1.6512
16494TIP3    H270974   5.241   3.949   6.929  0.0746  1.1471 -1.6625
16495TIP3   OH270975   4.693   5.080   2.844  0.0380 -0.2069 -0.3313
16495TIP3    H170976   4.779   5.106   2.878  0.0985  1.3652 -1.5619
16495TIP3    H270977   4.692   4.984   2.850  0.5183 -0.1081  2.8310
16496TIP3   OH270978   0.096   6.483  15.190  0.0929 -0.4695 -0.3648
16496TIP3    H170979   0.043   6.563  15.189  0.7840  0.0024 -0.6413
16496TIP3    H270980   0.186   6.515  15.198  0.2379 -1.3159  1.9796
16497TIP3   OH270981   3.314   3.158   1.177 -0.4801  0.0979 -0.0047
16497TIP3    H170982   3.298   3.202   1.260 -0.1857  0.9433 -0.3874
16497TIP3    H270983   3.251   3.196   1.117  0.4045  0.6987 -0.5765
16498TIP3   OH270984   4.278   6.563  12.480  0.2655 -0.0580  0.0042
16498TIP3    H170985   4.211   6.504  12.514 -0.4195  0.5139 -0.3216
16498TIP3    H270986   4.352   6.553  12.540 -0.4252 -0.0666  0.8591
16499TIP3   OH270987   3.522   0.782   1.442 -0.1713 -0.0418  0.4343
16499TIP3    H170988   3.526   0.794   1.348 -0.0090 -0.6905  0.3573
16499TIP3    H270989   3.436   0.817   1.467 -0.4763 -0.4473 -0.0365
16500TIP3   OH270990   5.328   3.672   0.859 -0.5589  0.8566 -0.3168
16500TIP3    H170991   5.420   3.698   0.856  1.1978 -4.2238 -0.1277
16500TIP3    H270992   5.298   3.702   0.945  1.7924  0.3818  0.7398
16501TIP3   OH270993   6.552   4.419   1.382 -0.0288  0.2961 -0.0542
16501TIP3    H170994   6.565   4.400   1.289 -0.8779 -1.0122  0.0609
16501TIP3    H270995   6.513   4.506   1.384 -1.5914 -0.3259 -1.0714
16502TIP3   OH270996   1.494   2.386   4.317 -0.0270 -0.4687 -0.0889
16502TIP3    H170997   1.582   2.375   4.281 -0.2314 -0.2128 -0.6834
16502TIP3    H270998   1.436   2.375   4.242 -0.4319  0.7795  0.0200
16503TIP3   OH270999   5.676   3.427  14.198  0.2253  0.4581  0.4490
16503TIP3    H171000   5.638   3.432  14.286  0.5877 -0.9211  0.7041
16503TIP3    H271001   5.600   3.426  14.140 -0.2064 -2.0800  0.9434
16504TIP3   OH271002   1.772   3.677  14.362  0.1486 -0.2041  0.5715
16504TIP3    H171003   1.680   3.668  14.338  0.0351 -1.4049  1.3580
16504TIP3    H271004   1.771   3.717  14.449  0.3739 -0.1802  0.5653
16505TIP3   OH271005   5.294   5.946  14.646 -0.0553 -0.2004  0.0303
16505TIP3    H171006   5.236   5.912  14.578  1.0798 -0.9518 -0.6036
16505TIP3    H271007   5.253   5.920  14.728 -0.9179 -0.1881 -0.3884
16506TIP3   OH271008   3.213   2.546  16.729  0.1783  0.2514 -0.2326
16506TIP3    H171009   3.306   2.539  16.748  0.5541  1.6391 -1.3510
16506TIP3    H271010   3.192   2.466  16.680  1.1943  0.6668 -1.4142
16507TIP3   OH271011   2.016   0.229   5.235  0.0319 -0.4079  0.3481
16507TIP3    H171012   2.077   0.250   5.306  0.1694  0.1672  0.0654
16507TIP3    H271013   2.053   0.271   5.158 -0.9944  0.4201  0.2834
16508TIP3   OH271014   1.244   5.809   1.170 -0.3064 -0.0165  0.0421
16508TIP3    H171015   1.224   5.871   1.100 -0.2778  0.0950  0.1319
16508TIP3    H271016   1.227   5.857   1.250  0.0913  0.0047  0.1172
16509TIP3   OH271017   2.371   0.077   1.594  0.3840 -0.4738  0.3973
16509TIP3    H171018   2.362   0.094   1.500 -0.5918 -1.6637  0.2620
16509TIP3    H271019   2.434   0.143   1.623 -1.5294  1.9102 -0.4953
16510TIP3   OH271020   3.567   6.199   1.689 -0.0795 -0.0251  0.4354
16510TIP3    H171021   3.636   6.133   1.696  0.1267  0.1406 -0.0411
16510TIP3    H271022   3.609   6.275   1.650 -0.8890 -0.4802 -1.4125
16511TIP3   OH271023   2.936   1.477  16.718  0.2190 -0.0297  0.4055
16511TIP3    H171024   2.884   1.496  16.640  0.8430  0.7126  0.1461
16511TIP3    H271025   2.947   1.563  16.760  0.6439 -0.2813  0.8158
16512TIP3   OH271026   1.709   5.605  13.279 -0.5152 -0.3755  0.2793
16512TIP3    H171027   1.755   5.642  13.354  0.2929 -0.2923 -0.2407
16512TIP3    H271028   1.639   5.667  13.259 -0.6295 -0.3186  0.8571
16513TIP3   OH271029   4.486   6.704   3.356  0.4349 -0.3801 -0.4945
16513TIP3    H171030   4.523   6.718   3.443 -1.9914 -2.1510  0.9524
16513TIP3    H271031   4.556   6.731   3.295  2.6338 -0.1591  1.9635
16514TIP3   OH271032   2.310   3.293  13.595  0.0762 -0.4896  0.4483
16514TIP3    H171033   2.280   3.293  13.504  0.2779  0.1094  0.3781
16514TIP3    H271034   2.405   3.290  13.590  0.1765  1.4487  0.5867
16515TIP3   OH271035   5.862   4.406   0.706 -0.0303 -0.4027 -0.0592
16515TIP3    H171036   5.877   4.318   0.672  0.7123 -0.4917  0.4944
16515TIP3    H271037   5.948   4.437   0.731 -0.4977 -0.1161  1.2332
16516TIP3   OH271038   6.031   5.993   5.989 -0.2957  0.6966 -0.2764
16516TIP3    H171039   6.118   5.982   5.949 -0.4743  2.3953 -1.2373
16516TIP3    H271040   6.048   6.046   6.068 -0.0131 -2.2063  1.7486
16517TIP3   OH271041   1.297   3.167  11.781  1.0152 -0.3548 -0.6178
16517TIP3    H171042   1.226   3.226  11.754 -0.5183 -1.9661 -0.2757
16517TIP3    H271043   1.347   3.153  11.701 -1.6181 -2.5669 -2.0436
16518TIP3   OH271044   3.582   0.673   0.535 -0.1747  0.0549 -0.0907
16518TIP3    H171045   3.547   0.762   0.543  0.0088  0.0619  0.6780
16518TIP3    H271046   3.643   0.678   0.461 -0.2540  0.5357 -0.1278
16519TIP3   OH271047   3.922   1.262  16.839  0.2941  0.5185 -0.1205
16519TIP3    H171048   3.849   1.311  16.801  0.0371  0.3641  0.1644
16519TIP3    H271049   3.946   1.199  16.770 -0.9083 -0.5215  0.3625
16520TIP3   OH271050   4.791   0.163  14.357  0.0115 -0.1845  0.0183
16520TIP3    H171051   4.755   0.083  14.317 -0.0974 -0.0248 -0.2052
16520TIP3    H271052   4.746   0.234  14.311 -0.2983 -0.0014  0.5990
16521TIP3   OH271053   3.622   3.551  16.524  0.0390 -0.3372  0.0880
16521TIP3    H171054   3.586   3.482  16.467 -1.4396  0.7514 -0.3609
16521TIP3    H271055   3.704   3.515  16.556  0.0672 -1.6827 -1.3730
16522TIP3   OH271056   1.124   0.664  17.425  0.1242  0.1587  0.4785
16522TIP3    H171057   1.138   0.571  17.441 -0.0941  0.0687  0.1678
16522TIP3    H271058   1.211   0.700  17.410  0.1233 -0.1890 -0.3969
16523TIP3   OH271059   0.412   0.190  15.661  0.0966 -0.3257 -0.5209
16523TIP3    H171060   0.437   0.100  15.682  0.1779 -0.7060 -2.0940
16523TIP3    H271061   0.495   0.239  15.663  0.4650 -0.8221 -2.0769
16524TIP3   OH271062   1.763   2.673   2.509  0.1637  0.0846  0.3473
16524TIP3    H171063   1.796   2.713   2.589 -1.8375  0.2772  1.1036
16524TIP3    H271064   1.835   2.616   2.480  1.5329  1.2300  1.3672
16525TIP3   OH271065   3.612   2.531  13.099 -0.3457 -0.2449 -0.3241
16525TIP3    H171066   3.549   2.542  13.170 -0.3014 -4.5553  0.6962
16525TIP3    H271067   3.583   2.592  13.032 -2.0523  2.0849  2.2918
16526TIP3   OH271068   0.085   1.035   2.479 -0.3745  0.4622  0.4740
16526TIP3    H171069   0.086   0.945   2.448 -1.0274  0.4008  0.5997
16526TIP3    H271070   0.006   1.073   2.440  0.5087  1.3332 -0.5344
16527TIP3   OH271071   3.853   2.290   3.218  0.0346 -0.2000 -0.3184
16527TIP3    H171072   3.814   2.334   3.142 -0.5459 -0.0331  0.0678
16527TIP3    H271073   3.922   2.236   3.181  0.6340  0.8754 -0.8343
16528TIP3   OH271074   4.601   4.503   6.235 -0.0988  0.2102 -0.1810
16528TIP3    H171075   4.577   4.447   6.162 -1.5042  0.5185  0.0104
16528TIP3    H271076   4.693   4.485   6.251 -0.5951 -2.3218  0.1354
16529TIP3   OH271077   6.038   5.479   2.684  0.2684 -0.2444 -0.3914
16529TIP3    H171078   6.062   5.536   2.757  0.4177  0.7588 -1.2106
16529TIP3    H271079   5.943   5.469   2.692  0.2174  0.2461 -0.3302
16530TIP3   OH271080   2.394   2.088  11.666  0.0274 -0.1301  0.4433
16530TIP3    H171081   2.377   2.020  11.600  0.3423 -0.4728  0.7085
16530TIP3    H271082   2.363   2.169  11.626 -1.2886 -0.5769  0.5154
16531TIP3   OH271083   4.621   1.587  14.095 -0.6564  0.0003 -0.5135
16531TIP3    H171084   4.668   1.510  14.125  1.4461  1.4595  0.2242
16531TIP3    H271085   4.553   1.554  14.037  1.3848 -2.2783 -1.7676
16532TIP3   OH271086   2.373   4.764  15.654  0.4546  0.4737  0.1126
16532TIP3    H171087   2.388   4.765  15.559 -0.4561  0.0175 -0.0464
16532TIP3    H271088   2.415   4.844  15.686 -0.4553  1.3777 -0.8775
16533TIP3   OH271089   1.045   2.406  16.811 -0.1260  0.1804 -0.9126
16533TIP3    H171090   0.971   2.346  16.803 -0.1817  0.0559  0.3538
16533TIP3    H271091   1.011   2.491  16.783 -1.4787  0.6413  1.8675
16534TIP3   OH271092   2.994   1.958   2.704  0.0061 -0.2736  0.5671
16534TIP3    H171093   2.965   1.996   2.621 -1.7817 -0.4367  1.0838
16534TIP3    H271094   3.002   1.864   2.686 -1.9699 -0.5473  0.9658
16535TIP3   OH271095   3.858   4.770   4.558 -0.2643 -0.0775  0.0697
16535TIP3    H171096   3.947   4.804   4.559  0.0847 -0.9549  0.1084
16535TIP3    H271097   3.813   4.816   4.628 -0.0801  0.9778 -0.4955
16536TIP3   OH271098   5.713   6.293   2.513  0.4164  0.1318 -0.1022
16536TIP3    H171099   5.689   6.215   2.464  0.0554 -1.3085  2.2160
16536TIP3    H271100   5.808   6.291   2.516  0.3916 -1.0970  1.1510
16537TIP3   OH271101   0.975   0.789   0.558 -0.3802  0.0434  1.1277
16537TIP3    H171102   0.902   0.730   0.574  0.6488 -1.9790 -0.9327
16537TIP3    H271103   0.964   0.818   0.467  0.8585  0.4515  1.0796
16538TIP3   OH271104   2.017   0.269   2.318 -0.4488 -0.3890 -0.0415
16538TIP3    H171105   2.052   0.346   2.272  0.6878 -0.3488  0.8399
16538TIP3    H271106   2.019   0.199   2.253  0.1657 -0.0863 -0.3605
16539TIP3   OH271107   1.442   1.540  15.684  0.1836 -0.2209  0.6987
16539TIP3    H171108   1.478   1.479  15.620  1.1907 -0.2698  1.2958
16539TIP3    H271109   1.499   1.616  15.680 -0.4154  0.2416  0.7442
16540TIP3   OH271110   1.991   2.040   0.468 -0.1118 -0.4353 -0.1452
16540TIP3    H171111   1.909   2.020   0.513 -1.2031  3.0079 -0.2953
16540TIP3    H271112   1.971   2.118   0.416  2.9912 -0.1325 -1.0655
16541TIP3   OH271113   2.536   0.715   6.492  0.0510  0.1462  0.4693
16541TIP3    H171114   2.489   0.759   6.562 -1.8671  0.1738 -0.7503
16541TIP3    H271115   2.554   0.784   6.428  1.6867  0.1031  0.8378
16542TIP3   OH271116   3.194   5.438   5.247  0.3128  0.4303  0.0912
16542TIP3    H171117   3.128   5.485   5.195  1.3159  1.3988 -0.3574
16542TIP3    H271118   3.148   5.362   5.282 -0.3832 -0.3418 -2.3289
16543TIP3   OH271119   5.418   2.929   4.769 -0.3402  0.3156  0.1448
16543TIP3    H171120   5.413   3.019   4.736  2.0110  0.2828 -0.4186
16543TIP3    H271121   5.329   2.912   4.803 -1.5157  1.9933 -1.8414
16544TIP3   OH271122   2.199   5.393   6.810 -0.1963  0.2181  0.9625
16544TIP3    H171123   2.118   5.431   6.844 -0.8287 -0.4803  0.2602
16544TIP3    H271124   2.177   5.365   6.721  1.0126  0.6401  0.5154
16545TIP3   OH271125   0.700   4.566   3.919 -1.2479 -1.1235  0.4843
16545TIP3    H171126   0.612   4.530   3.908 -1.1448 -1.2231 -0.0518
16545TIP3    H271127   0.714   4.619   3.840 -0.1427 -2.5557 -0.3279
16546TIP3   OH271128   1.987   5.514  12.835 -0.1116 -0.2903  0.2706
16546TIP3    H171129   1.936   5.436  12.816 -1.8940  0.8771  0.0539
16546TIP3    H271130   1.985   5.522  12.931 -3.4597  1.6217  0.1963
16547TIP3   OH271131   0.079   4.977  16.375  0.0020  0.4522 -0.1671
16547TIP3    H171132   0.126   5.009  16.298 -0.5119 -0.5803 -0.9336
16547TIP3    H271133   0.064   4.884  16.357  0.9957 -0.1281  1.7440
16548TIP3   OH271134   1.210   4.524  16.755 -0.3202 -0.0194 -0.4868
16548TIP3    H171135   1.205   4.509  16.660 -0.0245  0.3473 -0.5633
16548TIP3    H271136   1.131   4.574  16.775  0.3976  1.3178 -0.8229
16549TIP3   OH271137   3.360   4.684  15.250 -0.1718  0.2132 -0.0008
16549TIP3    H171138   3.420   4.630  15.198 -0.3376  0.4169 -0.4069
16549TIP3    H271139   3.330   4.626  15.320  0.4754  0.1027  0.1859
16550TIP3   OH271140   2.640   4.492   0.770 -0.2549 -0.0204  0.0874
16550TIP3    H171141   2.589   4.552   0.716 -1.0022 -1.2397 -0.5915
16550TIP3    H271142   2.585   4.414   0.779 -0.1522  0.1025  2.5666
16551TIP3   OH271143   1.806   2.792   5.240  0.4236  0.1561 -0.1837
16551TIP3    H171144   1.794   2.876   5.194 -0.3737  0.5077  0.6288
16551TIP3    H271145   1.813   2.816   5.332  2.3964 -0.5122 -0.1250
16552TIP3   OH271146   0.050   6.171   5.381  0.2240  0.5053 -0.7339
16552TIP3    H171147  -0.029   6.215   5.348  0.5930  1.1319 -0.7995
16552TIP3    H271148   0.035   6.078   5.363 -0.3199  0.6599 -1.1169
16553TIP3   OH271149   0.768   6.195   5.017 -0.1520  0.1110 -0.4591
16553TIP3    H171150   0.786   6.198   4.923  1.8477  1.2891 -0.1066
16553TIP3    H271151   0.710   6.270   5.032  1.1774  1.2002 -0.5083
16554TIP3   OH271152   5.932   3.059   0.361  0.1279 -0.3614  0.1742
16554TIP3    H171153   5.995   2.987   0.358 -0.2498 -0.6701 -1.3658
16554TIP3    H271154   5.848   3.016   0.378 -0.1956 -0.3904 -1.3742
16555TIP3   OH271155   5.128   3.341  17.505 -0.1465  0.7108 -0.0126
16555TIP3    H171156   5.218   3.343  17.472 -0.0502 -0.7887  0.0967
16555TIP3    H271157   5.074   3.349  17.426  0.0474  2.6535  0.0108
16556TIP3   OH271158   1.700   1.236  16.416  0.3004 -0.2867 -0.0557
16556TIP3    H171159   1.689   1.150  16.458  2.5557 -0.0316  1.2282
16556TIP3    H271160   1.759   1.219  16.342 -1.8019 -0.3254 -1.8125
16557TIP3   OH271161   2.759   2.530   5.839 -0.3971  0.2861  0.3042
16557TIP3    H171162   2.807   2.612   5.852 -0.9721  1.1367 -2.3152
16557TIP3    H271163   2.668   2.551   5.860 -0.5602  0.3678 -0.4573
16558TIP3   OH271164   5.514   3.704  14.390  0.4048  0.1919 -0.2692
16558TIP3    H171165   5.435   3.758  14.384  0.6219  0.6141  0.5595
16558TIP3    H271166   5.560   3.721  14.308 -0.0705  0.4104 -0.4944
16559TIP3   OH271167   6.483   1.521   4.066 -0.1362 -0.0789 -0.3485
16559TIP3    H171168   6.545   1.590   4.043  0.8274 -0.8943 -0.2697
16559TIP3    H271169   6.537   1.454   4.108 -1.1953 -0.4873  0.3868
16560TIP3   OH271170   1.845   1.726  13.152 -0.3648 -0.1763  0.1031
16560TIP3    H171171   1.777   1.786  13.119 -0.4252  0.0094  0.5551
16560TIP3    H271172   1.851   1.658  13.085  0.2666  0.7545 -0.8225
16561TIP3   OH271173   6.533   5.873   0.885 -0.2912 -0.2027 -0.0433
16561TIP3    H171174   6.471   5.934   0.844 -0.0490 -1.5086 -2.5285
16561TIP3    H271175   6.477   5.808   0.928 -0.6701 -0.6927 -1.2330
16562TIP3   OH271176   4.818   6.615   4.447  0.2834  0.6779 -0.0479
16562TIP3    H171177   4.746   6.551   4.451  1.5880 -0.8288  0.1304
16562TIP3    H271178   4.776   6.699   4.467 -1.3424 -0.2221  0.5071
16563TIP3   OH271179   4.832   4.402   6.330 -0.3677 -0.3858 -0.5179
16563TIP3    H171180   4.813   4.308   6.324  1.8186 -0.9277  0.1997
16563TIP3    H271181   4.887   4.411   6.408 -1.3717  1.6787  0.0395
16564TIP3   OH271182   1.350   3.149  12.448 -0.2176  0.3612 -0.3430
16564TIP3    H171183   1.287   3.078  12.461  0.2197  0.0726  0.2683
16564TIP3    H271184   1.419   3.110  12.393 -0.0737  0.3612 -0.1663
16565TIP3   OH271185   4.299   6.682   4.303 -0.5927 -0.2458 -0.1350
16565TIP3    H171186   4.338   6.684   4.390 -1.1777  0.3890  0.1286
16565TIP3    H271187   4.212   6.720   4.316 -0.7768 -0.3796 -0.9514
16566TIP3   OH271188   0.979   3.974   6.693 -0.6190 -0.0726 -0.3216
16566TIP3    H171189   0.999   4.006   6.781  0.9101 -0.6672 -0.4190
16566TIP3    H271190   0.927   3.895   6.707 -1.8274  0.7591 -0.0093
16567TIP3   OH271191   1.732   5.737  12.515 -0.0298 -0.2193 -0.2339
16567TIP3    H171192   1.637   5.745  12.510  0.0886  0.5235 -1.9928
16567TIP3    H271193   1.755   5.773  12.600 -1.3487 -0.8565  0.4242
16568TIP3   OH271194   0.003   5.149   3.517 -0.3947  0.0878 -0.2534
16568TIP3    H171195   0.075   5.202   3.552  0.9708 -1.3350 -0.7885
16568TIP3    H271196  -0.024   5.094   3.591  0.6816 -1.0196 -0.6461
16569TIP3   OH271197   3.276   3.698   5.843 -0.1107  0.8880 -0.2707
16569TIP3    H171198   3.253   3.711   5.751  1.4941 -0.3367 -0.9044
16569TIP3    H271199   3.362   3.738   5.852  0.0080  0.4690  0.5414
16570TIP3   OH271200   4.020   2.733   0.922  0.2100 -0.1142 -0.2678
16570TIP3    H171201   4.080   2.658   0.918 -0.8042 -0.9046 -1.8879
16570TIP3    H271202   4.057   2.797   0.861 -0.4550 -0.5489 -1.1674
16571TIP3   OH271203   5.836   6.357  11.043 -0.2603  0.1134  0.3237
16571TIP3    H171204   5.888   6.406  10.980  2.1587 -1.0576  1.2924
16571TIP3    H271205   5.769   6.313  10.990  0.7681  0.3409 -1.2160
16572TIP3   OH271206   0.532   6.462  17.300  0.5858  0.2123  0.0010
16572TIP3    H171207   0.474   6.526  17.341 -0.6461 -0.3430 -0.8241
16572TIP3    H271208   0.615   6.510  17.288  0.4659  0.8743  1.5831
16573TIP3   OH271209   6.152   3.356   0.228 -0.0074  0.1757 -0.2910
16573TIP3    H171210   6.160   3.276   0.177  2.2319 -0.1083  0.4037
16573TIP3    H271211   6.061   3.356   0.259 -0.7118 -0.8734 -2.1997
16574TIP3   OH271212   5.374   2.825   1.383 -0.0500  0.0955 -0.7457
16574TIP3    H171213   5.438   2.836   1.453 -0.4763 -2.4279  0.1351
16574TIP3    H271214   5.421   2.778   1.314 -0.8062 -1.6414 -0.1545
16575TIP3   OH271215   5.417   2.909   4.153  0.9878  0.3140  0.3142
16575TIP3    H171216   5.420   2.970   4.080 -1.9560  0.2474  0.0100
16575TIP3    H271217   5.328   2.916   4.186  1.6503 -1.1272  2.6637
16576TIP3   OH271218   3.655   4.364  16.344 -0.1307 -0.1916 -0.3130
16576TIP3    H171219   3.621   4.277  16.364  1.3988 -0.3996  1.6553
16576TIP3    H271220   3.699   4.393  16.424  1.5556  1.3438 -1.6773
16577TIP3   OH271221   1.794   3.058  15.371 -0.1399 -0.3020  0.0847
16577TIP3    H171222   1.735   3.030  15.442 -0.7009  1.8436  0.5409
16577TIP3    H271223   1.862   3.109  15.415  2.4202 -3.0291 -0.3796
16578TIP3   OH271224   3.950   6.141  13.640 -0.7236 -0.0535 -0.2088
16578TIP3    H171225   3.923   6.049  13.642 -1.9704  0.2942  0.3019
16578TIP3    H271226   3.917   6.174  13.556 -0.4324 -0.0300 -0.3140
16579TIP3   OH271227   3.524   5.837  15.465 -0.3551  0.6922 -0.3485
16579TIP3    H171228   3.584   5.881  15.405 -0.1323  1.6355  0.5313
16579TIP3    H271229   3.574   5.763  15.499  0.1484  1.1941  0.0193
16580TIP3   OH271230   0.466   5.776   1.235 -0.1501 -0.3134  0.1325
16580TIP3    H171231   0.492   5.855   1.282 -0.1977  0.6797 -1.4266
16580TIP3    H271232   0.401   5.807   1.171 -1.7585 -1.9730  0.8873
16581TIP3   OH271233   0.807   4.090  14.674  0.7198 -0.6491 -0.3759
16581TIP3    H171234   0.770   4.040  14.601  0.3121  2.0705 -2.1423
16581TIP3    H271235   0.877   4.142  14.635  0.7525  0.6160  1.2524
16582TIP3   OH271236   2.782   4.788  13.628  0.2512 -0.1308 -0.0339
16582TIP3    H171237   2.774   4.883  13.634  1.5016 -0.0994  2.5866
16582TIP3    H271238   2.744   4.765  13.543 -2.1703  2.4332  0.2552
16583TIP3   OH271239   3.975   3.743   3.535 -0.1001  0.3205 -0.2595
16583TIP3    H171240   3.998   3.654   3.561  0.6825  0.8158  0.8218
16583TIP3    H271241   4.042   3.768   3.472  0.3474  0.5548  0.3105
16584TIP3   OH271242   1.538   0.188   1.471 -0.3465  0.1810 -0.1914
16584TIP3    H171243   1.483   0.264   1.452  1.8369  1.6997 -0.9486
16584TIP3    H271244   1.534   0.179   1.566 -0.9147  1.0286 -0.1258
16585TIP3   OH271245   4.447   1.148   0.629  0.0546 -0.6503 -0.3737
16585TIP3    H171246   4.481   1.102   0.706 -2.3737  0.4766  1.4868
16585TIP3    H271247   4.515   1.212   0.608 -0.1659  0.5919  2.3207
16586TIP3   OH271248   5.984   4.471  17.324 -0.1314  0.1851  0.9189
16586TIP3    H171249   6.031   4.508  17.249 -1.2567 -0.0534  0.0785
16586TIP3    H271250   6.020   4.517  17.399  0.7269  0.7297  0.1937
16587TIP3   OH271251   1.903   1.054  13.527 -0.2481  0.6338  0.5091
16587TIP3    H171252   1.817   1.094  13.535 -1.0779 -0.7236 -1.1523
16587TIP3    H271253   1.891   0.981  13.467  1.9549  0.0654  0.6607
16588TIP3   OH271254   1.275   2.633  13.692 -0.8733 -0.6760  0.0675
16588TIP3    H171255   1.184   2.614  13.714 -1.4131  0.3940 -1.1407
16588TIP3    H271256   1.313   2.548  13.671 -2.0969 -0.9339 -1.1875
16589TIP3   OH271257   2.047   3.511  12.925 -0.4035  0.2803  0.5513
16589TIP3    H171258   2.118   3.528  12.863 -1.7253  2.5917 -0.4917
16589TIP3    H271259   1.998   3.439  12.885 -0.5743  0.9756 -0.5412
16590TIP3   OH271260   4.709   5.045   4.764  0.2757  0.3415 -0.3190
16590TIP3    H171261   4.683   5.046   4.672 -1.2439  1.8783  0.0651
16590TIP3    H271262   4.735   5.135   4.782  2.3951 -0.3438  0.3176
16591TIP3   OH271263   6.083   2.967   2.394 -0.3141  0.4768  0.0397
16591TIP3    H171264   6.107   3.013   2.313 -0.7258  0.5763 -0.0296
16591TIP3    H271265   6.108   2.876   2.378  0.4548  0.6628  0.1550
16592TIP3   OH271266   4.431   3.358  16.957  0.0608  0.1677  0.0023
16592TIP3    H171267   4.384   3.382  17.037 -0.6003  1.7900 -0.8309
16592TIP3    H271268   4.476   3.276  16.979  0.7221  1.0866  2.3486
16593TIP3   OH271269   3.736   4.505  17.613  0.6195 -0.0255  0.4301
16593TIP3    H171270   3.798   4.576  17.630 -0.9624  2.3652 -2.7090
16593TIP3    H271271   3.656   4.531  17.659  0.0858  0.1374 -0.5760
16594TIP3   OH271272   2.104   6.103   3.544  0.2605 -0.3721 -0.3024
16594TIP3    H171273   2.028   6.090   3.487 -0.5638  0.0815  0.6659
16594TIP3    H271274   2.135   6.191   3.522 -2.0565  1.2280  2.1283
16595TIP3   OH271275   4.503   4.126   0.584 -0.1848 -0.1356 -0.4305
16595TIP3    H171276   4.487   4.113   0.491  0.2919 -1.3359 -0.3637
16595TIP3    H271277   4.545   4.211   0.590 -2.2351  0.9876 -1.0754
16596TIP3   OH271278   1.416   4.194   5.705 -0.0677  0.1047 -0.3213
16596TIP3    H171279   1.411   4.215   5.611  3.2179  1.6265 -0.3080
16596TIP3    H271280   1.420   4.098   5.707  1.0890  0.0647 -1.8995
16597TIP3   OH271281   2.616   2.159  14.206 -0.7157  0.0465 -0.5472
16597TIP3    H171282   2.594   2.242  14.247  0.1121  0.3164 -0.6398
16597TIP3    H271283   2.673   2.115  14.270 -2.2783 -1.0915  0.1431
16598TIP3   OH271284   1.552   0.033  11.844 -0.0300  0.4275 -0.4277
16598TIP3    H171285   1.488   0.102  11.860  1.6643  2.0715 -0.3173
16598TIP3    H271286   1.502  -0.048  11.845 -1.8615  1.5030  1.1626
16599TIP3   OH271287   1.580   6.026   4.924  0.2548  0.1627 -0.4604
16599TIP3    H171288   1.580   6.115   4.888 -1.1675  0.0242 -0.8585
16599TIP3    H271289   1.513   6.028   4.992  0.0015 -0.6875 -0.6766
16600TIP3   OH271290   0.334   2.037   1.766 -0.0190  0.1176  0.1660
16600TIP3    H171291   0.257   2.038   1.708  0.1785  3.6019 -0.2137
16600TIP3    H271292   0.299   2.013   1.851 -1.3344  0.5015 -0.2367
16601TIP3   OH271293   5.643   4.626   1.632 -0.1068  0.3855 -0.6066
16601TIP3    H171294   5.679   4.580   1.556 -0.5056 -1.4481  0.2552
16601TIP3    H271295   5.559   4.583   1.649 -0.0536  0.7952  0.8239
16602TIP3   OH271296   4.680   4.406   1.815 -0.1330 -0.6003 -0.1438
16602TIP3    H171297   4.768   4.436   1.841 -0.9613  0.1871  1.9690
16602TIP3    H271298   4.650   4.354   1.889 -1.5376 -0.6877 -0.7522
16603TIP3   OH271299   5.584   1.023  12.546  0.0154  0.0372  0.4281
16603TIP3    H171300   5.551   0.986  12.627  0.9173  0.2508  0.9084
16603TIP3    H271301   5.670   0.982  12.534  1.8353  3.0784  1.8785
16604TIP3   OH271302   1.269   2.866   1.439 -0.0015 -0.6257  0.4401
16604TIP3    H171303   1.351   2.915   1.436 -0.4612  0.3373  2.1610
16604TIP3    H271304   1.263   2.833   1.528 -1.6884 -0.2656  0.5034
16605TIP3   OH271305   4.075   1.593   4.393  0.0726 -0.9402  0.0696
16605TIP3    H171306   4.010   1.533   4.356  0.8068 -1.9323  0.3906
16605TIP3    H271307   4.157   1.571   4.349  0.4585 -0.5272  0.5673
16606TIP3   OH271308   5.885   0.705  15.912 -0.2949  0.5275  0.0362
16606TIP3    H171309   5.806   0.688  15.861 -0.6460  1.2399  0.3315
16606TIP3    H271310   5.943   0.632  15.892 -0.3302  0.9190 -1.5668
16607TIP3   OH271311   1.494   1.042  15.514  0.9290  0.3175 -0.7129
16607TIP3    H171312   1.411   1.063  15.558  0.9608 -1.9728  0.5773
16607TIP3    H271313   1.561   1.084  15.567  0.6821  1.4548 -1.2717
16608TIP3   OH271314   0.677   0.565   3.008 -0.5330 -0.0421  0.8681
16608TIP3    H171315   0.612   0.521   2.953  1.5456 -1.7958 -0.3521
16608TIP3    H271316   0.732   0.612   2.946  2.8818 -3.3849  1.0514
16609TIP3   OH271317   0.357   5.471  13.689  0.4681  0.0832 -0.4897
16609TIP3    H171318   0.310   5.484  13.772 -0.6970 -0.9463 -0.9775
16609TIP3    H271319   0.448   5.457  13.716 -0.2244 -2.4501  0.8109
16610TIP3   OH271320   3.102   4.856   5.333 -0.3039  0.2078 -0.0577
16610TIP3    H171321   3.077   4.946   5.355  0.5346  0.7822 -1.3132
16610TIP3    H271322   3.019   4.808   5.332 -0.8234  1.0761  0.1804
16611TIP3   OH271323   3.849   3.466   1.454  0.1893 -0.0160  0.1790
16611TIP3    H171324   3.939   3.492   1.468  0.7933 -1.1931 -1.2763
16611TIP3    H271325   3.845   3.375   1.486 -0.7408  0.3163  1.0974
16612TIP3   OH271326   2.741   4.371  14.269  0.0918 -0.1687  0.3123
16612TIP3    H171327   2.747   4.320  14.349  0.8488 -0.1350  0.2886
16612TIP3    H271328   2.793   4.450  14.287 -0.5335  0.2986  0.1244
16613TIP3   OH271329   3.608   4.945   4.428  0.2653 -0.4092  0.2432
16613TIP3    H171330   3.534   4.908   4.475  0.3080 -0.3654  0.3436
16613TIP3    H271331   3.683   4.931   4.485  0.1052  0.8169  0.7805
16614TIP3   OH271332   6.404   3.686   0.449 -0.0164 -0.3250 -0.3325
16614TIP3    H171333   6.342   3.627   0.492 -1.5713  1.3570 -0.0981
16614TIP3    H271334   6.351   3.730   0.382  0.9504  1.0908 -0.2088
16615TIP3   OH271335   5.081   3.249   2.651  0.2846 -0.1468 -0.6198
16615TIP3    H171336   5.088   3.160   2.617  0.7714 -0.5899  0.5891
16615TIP3    H271337   4.988   3.270   2.646  0.1685 -0.7135 -0.9335
16616TIP3   OH271338   0.490   3.561  17.599  0.0798  0.1374 -0.6755
16616TIP3    H171339   0.461   3.470  17.592  2.3235 -1.0516  2.9409
16616TIP3    H271340   0.409   3.610  17.611 -1.0704 -2.0711  1.8042
16617TIP3   OH271341   2.762   4.655  11.700 -0.3099 -0.2102  0.4677
16617TIP3    H171342   2.766   4.749  11.717 -1.2509 -0.0797  0.0512
16617TIP3    H271343   2.845   4.635  11.657  0.1744  0.2984  1.1498
16618TIP3   OH271344   4.967   5.795   4.157 -0.1970 -0.6418 -0.6748
16618TIP3    H171345   4.899   5.728   4.159  0.4111 -1.2716 -0.7498
16618TIP3    H271346   4.988   5.805   4.064  0.2534 -0.9031 -0.6018
16619TIP3   OH271347   6.468   5.711  14.389 -0.6164 -0.2462  0.4609
16619TIP3    H171348   6.404   5.782  14.380  1.0876  1.1160 -1.8892
16619TIP3    H271349   6.415   5.634  14.409 -2.9331  0.9190 -0.7869
16620TIP3   OH271350   3.080   1.081   2.041  0.1947 -0.2702 -0.3845
16620TIP3    H171351   2.993   1.073   2.080 -0.1289  0.5553 -0.8963
16620TIP3    H271352   3.111   1.166   2.069  1.0157 -0.7206  0.1060
16621TIP3   OH271353   5.075   5.333   5.614  0.4923  0.3140 -0.3430
16621TIP3    H171354   4.985   5.362   5.602  0.7181  0.9144 -0.6189
16621TIP3    H271355   5.081   5.312   5.707  0.0899  0.3485 -0.3073
16622TIP3   OH271356   3.685   4.218  13.581 -0.3278 -0.3481 -0.7386
16622TIP3    H171357   3.593   4.193  13.573 -0.6442  0.7174 -0.6643
16622TIP3    H271358   3.685   4.312  13.560  0.5422 -0.0534  0.5246
16623TIP3   OH271359   5.038   3.649   2.264 -0.3687  0.5005 -0.6591
16623TIP3    H171360   4.999   3.601   2.191 -1.9882  1.2510 -0.3186
16623TIP3    H271361   4.976   3.718   2.283  0.5228  0.9345  0.7966
16624TIP3   OH271362   6.173   2.193   1.528  0.4572 -0.0878  0.1481
16624TIP3    H171363   6.094   2.198   1.581 -0.1673 -0.6632 -0.6867
16624TIP3    H271364   6.154   2.123   1.465  1.1420  0.6059 -0.8510
16625TIP3   OH271365   0.550   2.449   4.794  0.7992  0.1095 -0.1721
16625TIP3    H171366   0.456   2.438   4.780  1.0820  0.2031 -2.4448
16625TIP3    H271367   0.590   2.371   4.756  1.6842  0.3048  0.3141
16626TIP3   OH271368   6.253   1.129  11.869  0.5503  0.1168 -0.1391
16626TIP3    H171369   6.207   1.046  11.879  1.0677 -0.1569 -0.0201
16626TIP3    H271370   6.318   1.130  11.939  0.4438  0.6903 -0.0430
16627TIP3   OH271371   4.069   0.875   5.785 -0.0332 -0.1376 -0.0466
16627TIP3    H171372   4.130   0.910   5.850 -0.2725 -0.9425  0.6210
16627TIP3    H271373   4.070   0.781   5.798 -2.0103 -0.1405  0.5459
16628TIP3   OH271374   5.317   5.223  13.028 -0.5681  1.0703 -0.0023
16628TIP3    H171375   5.238   5.173  13.048  0.0590  0.2190  0.3883
16628TIP3    H271376   5.329   5.214  12.934 -1.6189  2.2402 -0.2725
16629TIP3   OH271377   4.406   2.036  17.161 -0.6047  0.1608  0.4347
16629TIP3    H171378   4.370   2.121  17.133  0.0546  1.2236  2.5370
16629TIP3    H271379   4.346   1.971  17.125 -1.2002  1.5305 -1.1551
16630TIP3   OH271380   5.481   0.623   0.512 -0.1559  0.0207  0.1309
16630TIP3    H171381   5.397   0.661   0.488 -0.4974 -0.6959  0.1482
16630TIP3    H271382   5.542   0.697   0.515 -0.6429  0.4554 -0.5173
16631TIP3   OH271383   5.568   0.234   0.311  0.0964 -0.4232  0.3563
16631TIP3    H171384   5.572   0.243   0.216  0.2157  2.2945  0.5351
16631TIP3    H271385   5.659   0.242   0.340 -0.1348  0.9874  0.7857
16632TIP3   OH271386   5.031   6.535   1.213 -0.5154 -0.3605  0.2681
16632TIP3    H171387   5.021   6.476   1.137  1.0242  0.8764 -0.9693
16632TIP3    H271388   5.097   6.599   1.185  0.7278 -0.3268  2.9655
16633TIP3   OH271389   0.444   1.834   0.213  0.0290 -0.3120  0.0078
16633TIP3    H171390   0.539   1.825   0.226 -0.0829 -0.1756  0.9752
16633TIP3    H271391   0.436   1.878   0.129  0.9232  1.8487  0.9798
16634TIP3   OH271392   3.321   6.278   4.882  0.4377  0.2729 -0.1987
16634TIP3    H171393   3.369   6.218   4.938 -1.6167  0.1290  1.5108
16634TIP3    H271394   3.358   6.264   4.795  1.5035 -1.8697  0.5343
16635TIP3   OH271395   5.299   5.959   0.350 -0.0831 -0.4090 -0.0047
16635TIP3    H171396   5.296   5.871   0.386 -1.2935 -0.2750  0.2661
16635TIP3    H271397   5.284   6.017   0.425  0.7767  0.0332 -0.1636
16636TIP3   OH271398   2.264   4.212  16.138  0.1010 -0.5238  0.7153
16636TIP3    H171399   2.192   4.233  16.197  1.2877 -1.7835  2.7011
16636TIP3    H271400   2.240   4.254  16.055 -1.4554  1.6317  2.1647
16637TIP3   OH271401   6.434   4.672   4.078  0.2361 -0.1054 -0.3922
16637TIP3    H171402   6.374   4.611   4.035 -0.3488  0.3750 -0.2709
16637TIP3    H271403   6.423   4.655   4.171  0.4733 -0.1908 -0.3808
16638TIP3   OH271404   2.227   4.262  16.600  0.3428 -0.3351 -0.1718
16638TIP3    H171405   2.302   4.261  16.659  0.2934 -0.5038 -0.1119
16638TIP3    H271406   2.151   4.251  16.658  0.2855 -0.3645 -0.2518
16639TIP3   OH271407   0.730   6.543   1.508  0.6814 -0.0385  0.0361
16639TIP3    H171408   0.802   6.479   1.506  0.1071 -0.6923 -0.0843
16639TIP3    H271409   0.674   6.517   1.435 -1.0697 -1.2019  1.7129
16640TIP3   OH271410   6.032   5.083   2.437  0.0921  0.4418  0.7087
16640TIP3    H171411   6.024   5.022   2.365  1.3673  0.1675  0.7678
16640TIP3    H271412   6.017   5.169   2.398 -1.6009  0.1182  0.6064
16641TIP3   OH271413   6.369   5.553   1.469 -0.0983  0.2727  0.1458
16641TIP3    H171414   6.410   5.610   1.404  1.8468  0.3151  1.3156
16641TIP3    H271415   6.358   5.609   1.546  0.0758 -0.4158  0.6865
16642TIP3   OH271416   3.441   6.635   2.983  0.4313 -0.4060 -0.8514
16642TIP3    H171417   3.373   6.662   3.044 -0.6624  0.0560 -2.2071
16642TIP3    H271418   3.423   6.685   2.903  2.7133  0.1595 -1.0928
16643TIP3   OH271419   3.557   3.656  12.304  0.3048 -0.1232  0.0008
16643TIP3    H171420   3.462   3.673  12.304  0.2136 -0.5997 -0.8442
16643TIP3    H271421   3.596   3.742  12.292 -0.1112 -0.2159 -2.4609
16644TIP3   OH271422   4.270   1.128   5.593 -0.0552 -0.0548 -0.0585
16644TIP3    H171423   4.203   1.174   5.644 -1.4133 -2.7892  0.8231
16644TIP3    H271424   4.350   1.139   5.644 -0.4012  0.9828  0.3065
16645TIP3   OH271425   2.372   6.577   5.865 -0.2823  0.8070 -0.0232
16645TIP3    H171426   2.397   6.621   5.946  0.2552 -0.1708  0.3560
16645TIP3    H271427   2.385   6.484   5.883 -3.0258  0.3070 -0.2154
16646TIP3   OH271428   2.622   2.957  11.957 -0.4977  0.4249 -0.3932
16646TIP3    H171429   2.646   2.968  11.864 -0.8087  0.4808 -0.4675
16646TIP3    H271430   2.593   2.866  11.963  1.7902 -0.3418  0.1577
16647TIP3   OH271431   2.873   5.180  12.517 -0.4046 -0.0491  0.2789
16647TIP3    H171432   2.940   5.210  12.456 -0.1188  1.0388  1.1001
16647TIP3    H271433   2.815   5.256  12.528 -0.3683 -0.1760  1.4675
16648TIP3   OH271434   5.775   5.708   5.788 -0.2873 -0.0620  0.1090
16648TIP3    H171435   5.847   5.662   5.745  1.1342  0.6425  1.6062
16648TIP3    H271436   5.702   5.702   5.726  1.1277 -0.5530 -1.6059
16649TIP3   OH271437   3.300   5.967  17.095 -0.4894 -0.2725  0.1352
16649TIP3    H171438   3.217   5.949  17.050 -0.3040  0.7950 -0.6730
16649TIP3    H271439   3.290   6.057  17.127  0.3381 -0.1521  0.0748
16650TIP3   OH271440   6.622   0.538  16.647 -0.2835  0.3926 -0.2144
16650TIP3    H171441   6.547   0.597  16.657  0.2852  1.1475 -0.3191
16650TIP3    H271442   6.685   0.568  16.712  0.8117  1.1778 -1.5787
16651TIP3   OH271443   1.333   1.146   6.112 -0.1702 -0.1431 -0.3631
16651TIP3    H171444   1.308   1.179   6.198  1.0452 -0.2172  0.0482
16651TIP3    H271445   1.368   1.059   6.129  2.1197  0.6689 -0.5863
16652TIP3   OH271446   5.317   3.168  15.049 -0.0909 -0.2684  0.3957
16652TIP3    H171447   5.316   3.219  14.968 -0.9516 -2.5740 -1.1373
16652TIP3    H271448   5.224   3.159  15.073  0.1566  0.5258  1.7953
16653TIP3   OH271449   1.026   3.931  16.309 -0.0575  0.0524 -0.1842
16653TIP3    H171450   1.121   3.934  16.323 -0.1570 -1.5681  1.2413
16653TIP3    H271451   0.999   3.849  16.351 -2.1432  0.6498 -0.2785
16654TIP3   OH271452   3.726   6.441   3.623  0.1901 -0.1914 -0.1451
16654TIP3    H171453   3.679   6.463   3.703 -1.5169  0.6395 -1.3232
16654TIP3    H271454   3.749   6.349   3.633 -1.0690 -0.4233  0.7700
16655TIP3   OH271455   3.021   2.403  14.554  0.5156  0.0956 -0.1736
16655TIP3    H171456   3.059   2.447  14.629  2.0516 -0.0295 -0.8382
16655TIP3    H271457   2.934   2.442  14.544  0.8635  1.1454  0.7596
16656TIP3   OH271458   0.745   0.029  16.779 -0.1082 -0.3963  0.2992
16656TIP3    H171459   0.657   0.003  16.754 -0.1229  1.6183 -2.1200
16656TIP3    H271460   0.800  -0.047  16.758 -1.0069 -0.9629 -0.0415
16657TIP3   OH271461   5.857   6.307   5.500 -0.3949 -0.3284  0.6476
16657TIP3    H171462   5.822   6.250   5.431  0.9273  0.0967 -0.4087
16657TIP3    H271463   5.893   6.382   5.453  2.7653 -1.1616  1.5191
16658TIP3   OH271464   6.675   4.246  13.747 -0.0926 -0.2535  0.6255
16658TIP3    H171465   6.745   4.263  13.684  0.6899  0.8796  1.7413
16658TIP3    H271466   6.594   4.250  13.696  0.5776 -0.3289 -0.4568
16659TIP3   OH271467   3.648   0.718   2.844  0.3067 -0.5151  0.0750
16659TIP3    H171468   3.663   0.631   2.880 -2.0352 -1.7354 -1.6117
16659TIP3    H271469   3.612   0.702   2.757 -2.9540  2.0153  0.7468
16660TIP3   OH271470   3.094   2.510  12.967  0.0352  0.0989  0.5674
16660TIP3    H171471   3.145   2.488  12.889 -2.3226  0.4560 -1.1767
16660TIP3    H271472   3.159   2.519  13.037  2.5676  2.3363 -1.8476
16661TIP3   OH271473   2.134   0.379  13.845  0.3396  0.0885  0.7404
16661TIP3    H171474   2.152   0.461  13.800  0.9672 -0.3279  0.2273
16661TIP3    H271475   2.041   0.385  13.868  0.0377  0.3650 -0.4869
16662TIP3   OH271476   3.119   0.398  17.657  0.1892 -0.1399  0.4602
16662TIP3    H171477   3.139   0.455  17.582 -1.0660 -1.1581 -0.7053
16662TIP3    H271478   3.040   0.435  17.695 -0.1572 -0.6130  0.2101
16663TIP3   OH271479   3.064   5.115  12.736  0.0010 -1.0164  0.2360
16663TIP3    H171480   2.995   5.113  12.670 -1.0376 -1.7345  1.3115
16663TIP3    H271481   3.064   5.204  12.769  2.0488  0.0288 -2.2228
16664TIP3   OH271482   4.799   4.421  15.783 -0.2331  0.0728  0.5166
16664TIP3    H171483   4.707   4.395  15.776 -0.0934 -0.0466 -1.3051
16664TIP3    H271484   4.804   4.505  15.737  0.7058 -0.3239 -0.1461
16665TIP3   OH271485   5.527   6.279   6.061 -0.1287  0.2887  0.0600
16665TIP3    H171486   5.616   6.245   6.063  0.4473  1.7725  1.4023
16665TIP3    H271487   5.503   6.278   5.968  0.1561 -2.8410 -0.0909
16666TIP3   OH271488   5.175   4.960  15.760  0.1687  0.3882  0.6507
16666TIP3    H171489   5.135   5.012  15.689 -0.0809 -0.8362 -0.1338
16666TIP3    H271490   5.101   4.928  15.811  0.2497 -0.2374  0.3799
16667TIP3   OH271491   5.595   5.481  16.410 -0.3182 -0.6443  0.1446
16667TIP3    H171492   5.634   5.567  16.390  1.1845 -1.5914 -1.2971
16667TIP3    H271493   5.671   5.424  16.424 -1.2199 -2.2006 -1.0783
16668TIP3   OH271494   3.443   1.735  16.871  0.3629  0.1800  0.6014
16668TIP3    H171495   3.362   1.763  16.914  0.4953  1.5027  0.0473
16668TIP3    H271496   3.452   1.643  16.894 -1.0462  0.1362  1.0760
16669TIP3   OH271497   6.142   2.578   2.839 -0.2542 -0.1600  0.3170
16669TIP3    H171498   6.109   2.523   2.768  0.9220 -2.0129  1.1203
16669TIP3    H271499   6.213   2.526   2.878  0.2357  1.5215  1.7816
16670TIP3   OH271500   5.822   0.889  11.774 -0.5681  0.1621  0.0393
16670TIP3    H171501   5.851   0.976  11.802  0.4234  0.1135 -0.7639
16670TIP3    H271502   5.850   0.831  11.845  0.8238  0.2059 -0.4362
16671TIP3   OH271503   1.112   5.297   4.367  0.1372 -0.4288  0.0957
16671TIP3    H171504   1.180   5.240   4.332 -0.1322 -1.1582  0.7202
16671TIP3    H271505   1.041   5.237   4.390 -0.3253  0.2130  0.3675
16672TIP3   OH271506   6.028   5.351  12.256  0.6765 -0.0078 -0.0573
16672TIP3    H171507   5.938   5.379  12.242  0.8755  1.2391  0.9955
16672TIP3    H271508   6.045   5.369  12.348  2.1789  0.3043 -0.3678
16673TIP3   OH271509   3.024   6.717   0.417 -0.2261 -0.0706 -0.2535
16673TIP3    H171510   3.051   6.792   0.364  1.5685 -0.6243 -0.1631
16673TIP3    H271511   3.026   6.750   0.507 -1.6333  0.3788 -0.3526
16674TIP3   OH271512   4.087   0.795   4.470  0.1160 -0.4213 -0.0958
16674TIP3    H171513   4.124   0.835   4.548 -2.2605  0.1508  0.8207
16674TIP3    H271514   4.138   0.832   4.398  1.7838 -0.2952  1.1050
16675TIP3   OH271515   4.201   2.188   2.577  0.0954 -0.2933 -0.0738
16675TIP3    H171516   4.118   2.205   2.532  0.5095  0.2851 -0.6266
16675TIP3    H271517   4.225   2.272   2.616  0.3955 -0.4734  0.1318
16676TIP3   OH271518   6.554   6.038   1.978 -0.1652 -0.4528 -0.0598
16676TIP3    H171519   6.537   6.041   1.884  1.9533 -0.8133 -0.5106
16676TIP3    H271520   6.561   6.130   2.004 -1.4768 -0.3260 -0.0663
16677TIP3   OH271521   6.314   5.214   0.646  0.2856  0.1678 -0.3018
16677TIP3    H171522   6.354   5.127   0.640  1.0420  0.3339  1.6298
16677TIP3    H271523   6.265   5.211   0.729  1.7151  2.1158  0.6644
16678TIP3   OH271524   0.198   3.375  15.019  0.5001  0.0442 -0.7344
16678TIP3    H171525   0.135   3.387  15.090  0.1339 -0.2639 -0.9949
16678TIP3    H271526   0.145   3.339  14.947  1.1488 -1.1331 -0.6473
16679TIP3   OH271527   5.631   3.132  13.120  0.1929 -0.1772 -0.5040
16679TIP3    H171528   5.681   3.182  13.185  0.7197 -2.4569  0.9714
16679TIP3    H271529   5.622   3.192  13.046  0.7359  2.0732  1.1335
16680TIP3   OH271530   1.445   6.724  14.037  0.4888  0.2353 -0.2363
16680TIP3    H171531   1.430   6.661  13.966 -0.4707  0.1261  0.0411
16680TIP3    H271532   1.367   6.779  14.037  0.0200 -0.3479  1.2989
16681TIP3   OH271533   3.150   1.998   5.263  0.2089 -0.4045  0.2631
16681TIP3    H171534   3.126   1.909   5.237 -3.4575  0.6361 -0.3719
16681TIP3    H271535   3.244   1.992   5.282  0.4236 -4.0576 -1.0990
16682TIP3   OH271536   0.476   5.386   4.462  0.0542 -0.1833 -0.0270
16682TIP3    H171537   0.475   5.359   4.370 -1.4435 -0.0785 -0.0685
16682TIP3    H271538   0.514   5.312   4.509  0.0504 -0.5764 -0.6387
16683TIP3   OH271539   2.286   3.396   1.695  0.0966 -0.1235 -0.6380
16683TIP3    H171540   2.334   3.390   1.612 -1.0460  1.4458 -1.4669
16683TIP3    H271541   2.251   3.485   1.696 -1.8226 -0.8250  0.4673
16684TIP3   OH271542   1.350   2.700  14.874 -0.4101 -0.1403  0.1097
16684TIP3    H171543   1.273   2.649  14.902 -0.0932 -2.2844 -2.5731
16684TIP3    H271544   1.422   2.665  14.925 -0.1098 -2.9301 -2.0133
16685TIP3   OH271545   5.064   2.562  16.468 -0.1399  0.5798  0.1081
16685TIP3    H171546   5.128   2.500  16.502  1.7561  1.5166 -1.5650
16685TIP3    H271547   5.024   2.517  16.393 -2.1526 -0.3248  1.6222
16686TIP3   OH271548   5.974   2.070   2.087 -0.3701 -0.0866  0.0186
16686TIP3    H171549   5.900   2.127   2.069 -1.1075 -0.6340  1.2005
16686TIP3    H271550   6.048   2.130   2.099 -0.7805  0.5124 -0.3978
16687TIP3   OH271551   3.365   4.876   5.223 -0.2708  0.1771  0.4745
16687TIP3    H171552   3.321   4.792   5.207  0.8318 -0.3589  0.1967
16687TIP3    H271553   3.445   4.853   5.268  1.0677  0.8642 -1.4185
16688TIP3   OH271554   0.365   6.024  13.414 -0.5639 -0.2659 -0.2996
16688TIP3    H171555   0.303   5.961  13.377 -1.1504  0.0914  0.0693
16688TIP3    H271556   0.410   6.061  13.338 -0.5323 -0.7910 -0.5470
16689TIP3   OH271557   0.760   2.322  15.989 -0.6282  0.5024  0.0226
16689TIP3    H171558   0.740   2.257  15.921  0.8187 -0.6102  0.5954
16689TIP3    H271559   0.801   2.271  16.059  1.8396  2.1990 -0.0579
16690TIP3   OH271560   3.076   4.434  17.045 -0.0259 -0.0982  0.1968
16690TIP3    H171561   3.113   4.392  16.967  0.1981 -2.0627  1.3073
16690TIP3    H271562   3.131   4.512  17.057  0.3581 -0.1114 -1.2107
16691TIP3   OH271563   2.461   6.727  12.849 -0.1269  0.0949  0.0769
16691TIP3    H171564   2.402   6.803  12.844 -1.3034 -0.8179 -0.2222
16691TIP3    H271565   2.403   6.651  12.845  1.1431 -0.8592 -1.4751
16692TIP3   OH271566   2.119   5.395   2.502 -0.0079  0.2117  0.7781
16692TIP3    H171567   2.195   5.416   2.557  1.8017  0.3242 -1.5794
16692TIP3    H271568   2.098   5.304   2.525  0.6656  0.2709  1.6857
16693TIP3   OH271569   4.660   0.735  13.513  0.7415  0.4706  0.0545
16693TIP3    H171570   4.626   0.824  13.507  1.2735  0.6858  0.1541
16693TIP3    H271571   4.681   0.712  13.422 -0.0100  0.1924 -0.0589
16694TIP3   OH271572   5.257   2.714   0.018  0.6662  0.2609 -0.1600
16694TIP3    H171573   5.351   2.729   0.017  0.4701  1.8990  1.1060
16694TIP3    H271574   5.234   2.711   0.111 -0.6254  0.7130 -0.4451
16695TIP3   OH271575   4.403   3.840  11.968 -0.0385 -0.2340 -0.4582
16695TIP3    H171576   4.467   3.823  11.899  0.9060 -1.8627  0.7390
16695TIP3    H271577   4.454   3.872  12.042 -0.7310 -0.5469  0.1742
16696TIP3   OH271578   1.769   5.059   4.230 -0.1576  0.4345 -0.2182
16696TIP3    H171579   1.838   5.069   4.296  0.3381 -0.1130 -0.6470
16696TIP3    H271580   1.700   5.010   4.275  0.3325 -0.2597 -0.2048
16697TIP3   OH271581   1.152   4.987   6.131  0.0328  0.2387  0.4681
16697TIP3    H171582   1.204   5.004   6.210  0.0900  0.5055  0.3736
16697TIP3    H271583   1.075   4.939   6.163  2.0038 -3.4683  0.1988
16698TIP3   OH271584   0.871   4.558  16.252  0.2230  0.1221  0.5802
16698TIP3    H171585   0.959   4.587  16.229  1.9030 -3.5019  1.5510
16698TIP3    H271586   0.841   4.510  16.175  0.7704 -1.7336  1.4341
16699TIP3   OH271587   2.669   5.341   2.805 -0.1116 -0.6620 -0.5368
16699TIP3    H171588   2.592   5.335   2.749 -1.9636  0.0540  1.8182
16699TIP3    H271589   2.681   5.434   2.821  0.6447 -0.8278 -0.0639
16700TIP3   OH271590   1.019   5.696  14.849 -0.2890 -0.1404 -0.0660
16700TIP3    H171591   1.001   5.783  14.885 -0.8056  0.0568 -0.7736
16700TIP3    H271592   0.937   5.648  14.862 -1.3532  0.6586 -3.0345
16701TIP3   OH271593   0.607   3.425  14.870 -0.2925  0.0785  0.0228
16701TIP3    H171594   0.601   3.351  14.931  1.7518 -1.4937 -1.5464
16701TIP3    H271595   0.526   3.422  14.820 -0.3117 -1.0299  0.0993
16702TIP3   OH271596   5.206   0.962  12.117 -0.1642  0.3673  0.1795
16702TIP3    H171597   5.177   1.031  12.176 -2.1608  0.7090 -1.1011
16702TIP3    H271598   5.250   1.008  12.046  0.5928  0.1170  0.4823
16703TIP3   OH271599   2.069   6.046   0.460 -0.3888  0.1657  0.7705
16703TIP3    H171600   2.148   6.061   0.512 -1.3393 -0.0580  2.3754
16703TIP3    H271601   2.089   5.967   0.409  0.6252  0.4627  0.6843
16704TIP3   OH271602   0.826   0.964  15.040  0.2583  0.0212 -0.6229
16704TIP3    H171603   0.752   0.935  15.094 -0.2188 -0.5676 -1.5590
16704TIP3    H271604   0.801   1.052  15.010  0.1957  0.0585 -0.4599
16705TIP3   OH271605   6.011   6.054  14.252 -0.7924  0.2757  0.8349
16705TIP3    H171606   5.935   6.019  14.206 -2.0262  1.6718  1.6799
16705TIP3    H271607   6.014   6.146  14.226  2.6588 -0.3509 -1.7565
16706TIP3   OH271608   1.516   5.916  14.035  0.1996  0.3918  0.9119
16706TIP3    H171609   1.434   5.888  14.075  0.3885 -2.4115 -0.4281
16706TIP3    H271610   1.493   5.937  13.945  0.6481  1.6335  1.0649
16707TIP3   OH271611   2.483   5.220  16.842 -0.4920  0.5445 -0.0880
16707TIP3    H171612   2.395   5.250  16.820 -0.4114  1.1727  0.4222
16707TIP3    H271613   2.485   5.221  16.938  0.2251  0.9973 -0.1023
16708TIP3   OH271614   2.543   5.949  17.029 -0.0895 -0.4958  0.2341
16708TIP3    H171615   2.555   5.868  17.079 -1.8663 -1.0728 -0.2011
16708TIP3    H271616   2.544   5.921  16.937 -1.1191 -0.1123  0.0897
16709TIP3   OH271617   4.293   0.698  17.415 -0.3761 -0.2016  0.1661
16709TIP3    H171618   4.349   0.774  17.397 -0.4624  0.1187  1.1990
16709TIP3    H271619   4.293   0.649  17.333  1.3175 -0.1519  0.1009
16710TIP3   OH271620   0.112   0.956  12.740 -0.2050 -0.2296 -0.7648
16710TIP3    H171621   0.102   0.861  12.748 -0.2860 -0.2534 -1.1090
16710TIP3    H271622   0.105   0.989  12.829 -1.6028 -0.4122 -0.7845
16711TIP3   OH271623   0.477   1.343   1.142 -0.3759 -0.2624  0.3649
16711TIP3    H171624   0.456   1.418   1.198  0.0759 -1.2197  1.8778
16711TIP3    H271625   0.398   1.288   1.146  0.5253 -1.5496  2.1893
16712TIP3   OH271626   0.136   0.536  13.717  0.2215  0.0575  0.3014
16712TIP3    H171627   0.194   0.578  13.781  1.3949  0.2664 -0.8688
16712TIP3    H271628   0.073   0.487  13.771  2.2560 -1.2319  1.6215
16713TIP3   OH271629   4.486   0.456   3.947 -0.7205  0.6483  0.3106
16713TIP3    H171630   4.390   0.457   3.949 -0.8125 -1.9728  0.4595
16713TIP3    H271631   4.511   0.445   4.039 -0.2753  1.0128  0.2352
16714TIP3   OH271632   5.364   5.593   2.612 -0.0808  0.0260 -0.3009
16714TIP3    H171633   5.305   5.519   2.595 -1.5612  0.5538  2.0927
16714TIP3    H271634   5.308   5.670   2.602  0.6542  0.6397  0.2616
16715TIP3   OH271635   3.456   6.013  13.953  0.2841 -0.0048 -0.1400
16715TIP3    H171636   3.540   6.041  13.990  0.6516 -0.2602 -0.7738
16715TIP3    H271637   3.478   5.937  13.900 -0.6727 -1.4331  1.4181
16716TIP3   OH271638   2.269   0.306   3.543 -0.0430 -0.1408 -0.2489
16716TIP3    H171639   2.189   0.299   3.490 -0.3004  0.5716  0.0391
16716TIP3    H271640   2.261   0.234   3.606 -0.8201  0.3585  0.2451
16717TIP3   OH271641   2.711   6.414  17.650  0.0994 -0.0865  0.0352
16717TIP3    H171642   2.780   6.357  17.682  0.2137 -1.2828 -2.1472
16717TIP3    H271643   2.674   6.454  17.729  2.2661 -0.5516  1.3528
16718TIP3   OH271644   1.540   1.065   4.208  0.1885 -0.6059  0.0586
16718TIP3    H171645   1.584   0.980   4.201  0.3340 -0.5939  0.7499
16718TIP3    H271646   1.467   1.048   4.268  0.3168 -0.2034  0.3309
16719TIP3   OH271647   4.712   4.908  14.730  0.0358  0.0450 -0.0954
16719TIP3    H171648   4.721   4.884  14.638  1.5866  0.9855 -0.2311
16719TIP3    H271649   4.679   4.829  14.773 -0.0200 -0.6268 -1.3479
16720TIP3   OH271650   0.660   2.722   1.866 -0.0222 -0.3521 -0.2041
16720TIP3    H171651   0.593   2.729   1.934  0.3605 -1.8709  0.3643
16720TIP3    H271652   0.638   2.791   1.804 -2.6204 -1.2591 -0.4352
16721TIP3   OH271653   1.295   2.988  17.682 -0.3551 -0.1411 -0.3274
16721TIP3    H171654   1.301   3.045  17.759  0.7883 -2.2125  1.2084
16721TIP3    H271655   1.361   3.022  17.622 -1.3625  1.5950 -0.5224
16722TIP3   OH271656   2.268   5.599  12.783  1.4459 -0.1201  0.4873
16722TIP3    H171657   2.228   5.530  12.730  2.2993  0.2072 -0.6248
16722TIP3    H271658   2.216   5.601  12.863 -0.8983  0.4329 -0.9603
16723TIP3   OH271659   1.037   5.783   3.192  0.0883 -0.0345 -0.1875
16723TIP3    H171660   1.023   5.867   3.236 -0.2087 -0.6953  1.0097
16723TIP3    H271661   1.115   5.797   3.139 -1.5067  1.8789 -2.2652
16724TIP3   OH271662   6.595   4.357   3.471  0.1280 -0.0791 -0.2714
16724TIP3    H171663   6.587   4.424   3.402 -1.0425 -3.2345 -3.5092
16724TIP3    H271664   6.506   4.345   3.503  0.5898  0.9914  1.5749
16725TIP3   OH271665   3.366   1.015  11.781 -0.3135 -0.3559  0.5000
16725TIP3    H171666   3.394   0.936  11.735 -0.3459 -1.7483  2.6845
16725TIP3    H271667   3.299   0.983  11.843  0.4279  1.1568  2.1766
16726TIP3   OH271668   4.555   3.938   6.452  0.2394 -0.5859  0.6289
16726TIP3    H171669   4.594   3.902   6.532 -0.5638 -1.3520  0.6828
16726TIP3    H271670   4.494   3.871   6.422 -0.6636  0.3665  0.2692
16727TIP3   OH271671   1.343   4.880  17.605 -0.5298  0.0166 -0.7849
16727TIP3    H171672   1.341   4.956  17.547 -1.0589  1.5367  1.1331
16727TIP3    H271673   1.328   4.916  17.692  3.7966 -1.6083  0.9200
16728TIP3   OH271674   3.885   4.194   0.553  0.2619  0.0892  0.6962
16728TIP3    H171675   3.908   4.232   0.638  0.2366 -1.1115  1.2760
16728TIP3    H271676   3.790   4.209   0.545 -0.2292 -1.8519  2.0411
16729TIP3   OH271677   6.336   1.372   1.021  0.4821 -0.4843 -0.7462
16729TIP3    H171678   6.372   1.461   1.022 -0.0620 -0.2392  1.3893
16729TIP3    H271679   6.385   1.325   1.088 -1.0317 -1.0273  0.0195
16730TIP3   OH271680   2.986   4.997   2.557  0.4502  0.1012  0.1858
16730TIP3    H171681   2.947   4.986   2.470 -1.0291  1.5560  0.6019
16730TIP3    H271682   3.075   5.026   2.540  0.2399  0.1965 -0.8436
16731TIP3   OH271683   1.667   5.797   4.835 -0.7442  0.2180  0.2818
16731TIP3    H171684   1.622   5.877   4.861 -1.0565 -0.4012  1.7278
16731TIP3    H271685   1.661   5.796   4.739  1.0351  2.9155  0.0646
16732TIP3   OH271686   0.597   5.664   4.819 -0.1669  0.4656  0.1272
16732TIP3    H171687   0.646   5.654   4.901  0.2241 -0.2339 -0.1767
16732TIP3    H271688   0.614   5.753   4.791  0.3282  0.4627  0.4132
16733TIP3   OH271689   3.921   0.536  14.921 -0.0163  0.2286  0.7097
16733TIP3    H171690   3.892   0.619  14.958 -0.1019  0.1870  0.7387
16733TIP3    H271691   3.912   0.547  14.826  0.0008  0.2628  0.7116
16734TIP3   OH271692   0.092   0.334  14.514 -0.0873 -0.0791 -1.0704
16734TIP3    H171693   0.087   0.269  14.444  0.8843  0.9767 -2.1608
16734TIP3    H271694   0.055   0.290  14.591  1.0957 -2.1313 -1.6212
16735TIP3   OH271695   0.595   3.649  14.180 -0.2483  0.1490 -0.1351
16735TIP3    H171696   0.584   3.630  14.273 -0.4715 -0.9015 -0.3737
16735TIP3    H271697   0.668   3.712  14.177 -1.7561  2.0564  0.9263
16736TIP3   OH271698   5.502   3.336  13.572 -0.2224 -0.3110 -0.0597
16736TIP3    H171699   5.591   3.349  13.538  0.1862 -0.8271  0.7727
16736TIP3    H271700   5.480   3.246  13.549 -0.5587 -0.1649 -0.3160
16737TIP3   OH271701   6.189   0.904  14.256  0.1487 -0.4052  0.1368
16737TIP3    H171702   6.176   0.973  14.191  1.2521  0.1472  0.4847
16737TIP3    H271703   6.255   0.846  14.216  2.5193  1.1260  1.6107
16738TIP3   OH271704   5.692   6.491  12.535  0.1471 -0.7117  0.8671
16738TIP3    H171705   5.651   6.565  12.491  1.4505 -0.3203  0.2530
16738TIP3    H271706   5.773   6.475  12.486  0.5175 -1.7356  1.7529
16739TIP3   OH271707   0.492   1.818   3.233 -0.5264  0.2535 -0.6905
16739TIP3    H171708   0.476   1.858   3.148 -0.8729 -0.8240 -1.1486
16739TIP3    H271709   0.587   1.823   3.245 -0.1323 -1.9484 -2.3712
16740TIP3   OH271710   0.844   0.032  10.681 -0.4969 -0.6211 -0.2136
16740TIP3    H171711   0.932   0.061  10.707 -0.7078 -1.0347  0.9992
16740TIP3    H271712   0.796   0.114  10.667 -0.0733 -0.3923 -0.3611
16741TIP3   OH271713   5.831   0.954  14.332 -0.2791 -0.3838 -0.0082
16741TIP3    H171714   5.736   0.950  14.346 -0.2975  0.7436  0.2751
16741TIP3    H271715   5.861   1.021  14.392  0.4263  0.6933 -1.5057
16742TIP3   OH271716   5.432   2.880  13.966 -0.2044  0.1152 -0.5938
16742TIP3    H171717   5.493   2.939  13.921  1.2229  0.5336  1.7650
16742TIP3    H271718   5.455   2.886  14.058 -2.8128 -0.9460  0.2308
16743TIP3   OH271719   4.413   0.253   1.654 -0.3755 -0.3148 -0.7141
16743TIP3    H171720   4.476   0.324   1.639  1.5896 -2.0209 -0.9822
16743TIP3    H271721   4.335   0.297   1.687  0.9590  1.9189 -0.3296
16744TIP3   OH271722   5.892   3.414  13.814  0.1528  0.2563 -0.0748
16744TIP3    H171723   5.887   3.507  13.795  0.0369  0.1167 -0.7311
16744TIP3    H271724   5.802   3.383  13.809  0.1994  0.0937  0.0642
16745TIP3   OH271725   0.409   2.239  13.196  0.0806  0.4521 -0.8127
16745TIP3    H171726   0.483   2.299  13.188  0.3247  0.1963 -0.4943
16745TIP3    H271727   0.431   2.165  13.140  0.7819 -0.3277  0.4459
16746TIP3   OH271728   2.436   2.731   5.614 -0.1272  0.0503 -0.0690
16746TIP3    H171729   2.449   2.791   5.687 -1.5994 -0.2503  0.4684
16746TIP3    H271730   2.362   2.676   5.640 -0.2732 -0.4895 -1.5106
16747TIP3   OH271731   1.020   1.974   3.434  0.0963 -0.3744 -0.0479
16747TIP3    H171732   0.957   1.916   3.391 -1.1028  0.6935  0.1854
16747TIP3    H271733   1.075   2.007   3.362  1.2434 -2.2764 -0.0940
16748TIP3   OH271734   2.623   2.217  15.351 -0.0792  0.1202 -0.0335
16748TIP3    H171735   2.593   2.306  15.372 -1.7501 -0.5295  0.4786
16748TIP3    H271736   2.655   2.182  15.434 -0.9678 -0.3094  0.1434
16749TIP3   OH271737   5.402   4.164   0.495 -0.0387  0.5138 -0.4125
16749TIP3    H171738   5.345   4.193   0.567 -0.1258 -0.2644 -0.1654
16749TIP3    H271739   5.342   4.120   0.434  0.0140  1.2668 -1.0291
16750TIP3   OH271740   1.615   0.616   3.558  0.2633 -0.1008  0.3202
16750TIP3    H171741   1.616   0.667   3.639 -0.0186 -1.6913  1.3830
16750TIP3    H271742   1.575   0.674   3.493  0.6582  1.2790  1.2737
16751TIP3   OH271743   6.597   1.088   3.340 -0.1835 -0.7038 -0.1714
16751TIP3    H171744   6.583   1.073   3.247 -0.8166 -0.6173 -0.0985
16751TIP3    H271745   6.602   1.183   3.348 -0.1209 -0.7116 -0.1232
16752TIP3   OH271746   6.323   3.888   1.199  0.0896 -0.3444  0.1030
16752TIP3    H171747   6.386   3.909   1.130 -0.0609  0.4727  0.2074
16752TIP3    H271748   6.239   3.919   1.165 -0.0547 -0.3191  0.4768
16753TIP3   OH271749   2.981   1.970  15.434  0.0472  0.4252  0.1534
16753TIP3    H171750   3.037   1.991  15.360 -1.3000  0.2223 -0.9602
16753TIP3    H271751   2.959   1.878  15.422  1.0915 -0.0658  1.7114
16754TIP3   OH271752   3.905   2.280  15.353 -0.0779  0.5735  0.4280
16754TIP3    H171753   3.843   2.218  15.391 -1.5470  1.8262  0.1463
16754TIP3    H271754   3.880   2.287  15.261  0.6238  0.9505  0.2546
16755TIP3   OH271755   0.043   1.430   0.602 -0.2745  0.6032  0.9886
16755TIP3    H171756   0.040   1.335   0.608 -0.0013  0.3526 -1.7310
16755TIP3    H271757   0.131   1.449   0.568 -0.4069  1.8263  1.2774
16756TIP3   OH271758   2.234   5.486  12.444 -0.1030  0.2468 -0.2936
16756TIP3    H171759   2.328   5.503  12.432  0.0458 -0.4075 -0.0824
16756TIP3    H271760   2.229   5.395  12.471 -0.9329 -0.3760 -2.3147
16757TIP3   OH271761   0.937   4.226   4.461 -0.4764  0.3222  0.1481
16757TIP3    H171762   0.910   4.236   4.553  2.6453 -0.5498  1.3014
16757TIP3    H271763   0.919   4.135   4.440 -0.4501  0.3100  0.1780
16758TIP3   OH271764   2.649   1.468   5.057  0.2368 -0.8175 -1.0182
16758TIP3    H171765   2.631   1.375   5.046 -0.0522 -0.7386 -1.2396
16758TIP3    H271766   2.712   1.473   5.128 -1.2670 -1.0405  0.3788
16759TIP3   OH271767   6.036   2.314   4.876 -0.3496 -0.0040  0.5446
16759TIP3    H171768   6.040   2.253   4.950 -2.7648 -2.0882 -0.8941
16759TIP3    H271769   5.944   2.314   4.850  0.6920 -1.1610 -3.8688
16760TIP3   OH271770   0.339   3.428  11.141 -0.3037  0.7447 -0.5958
16760TIP3    H171771   0.280   3.502  11.154 -1.0875 -0.2867  2.5081
16760TIP3    H271772   0.287   3.351  11.162  1.1062 -0.5375 -1.5731
16761TIP3   OH271773   4.319   1.167  12.382 -0.5223 -0.2061  0.1851
16761TIP3    H171774   4.227   1.180  12.361 -0.1652  3.4036  0.1030
16761TIP3    H271775   4.319   1.116  12.463 -2.4877 -1.5859 -0.6276
16762TIP3   OH271776   2.123   6.135   6.401  0.0275  0.0635  0.1694
16762TIP3    H171777   2.163   6.212   6.442 -0.9941  0.0836  1.2208
16762TIP3    H271778   2.156   6.061   6.452  1.5973 -0.3099 -1.3131
16763TIP3   OH271779   1.008   5.664  17.363  0.6242  0.3372 -0.0651
16763TIP3    H171780   0.924   5.631  17.334  1.1217 -0.4169 -0.6809
16763TIP3    H271781   1.014   5.752  17.326  0.8891 -0.2917 -1.5815
16764TIP3   OH271782   2.872   5.277  14.886 -0.0135  0.6983 -0.8845
16764TIP3    H171783   2.916   5.334  14.949 -0.4882  0.0294  0.1026
16764TIP3    H271784   2.800   5.238  14.937 -0.1603 -0.1800 -1.7389
16765TIP3   OH271785   6.463   3.403   5.072 -0.5314 -0.1863  0.3587
16765TIP3    H171786   6.379   3.446   5.083 -1.3927 -1.6630 -0.1695
16765TIP3    H271787   6.497   3.437   4.989 -0.9107 -0.0885  0.2438
16766TIP3   OH271788   0.232   6.022  14.892 -0.7606 -0.0515 -0.1620
16766TIP3    H171789   0.213   5.968  14.815  0.8118  1.0997 -1.4229
16766TIP3    H271790   0.193   6.107  14.872 -1.0449  0.0245  0.6885
16767TIP3   OH271791   4.009   1.804   5.581 -0.3298 -0.3528  0.2007
16767TIP3    H171792   3.987   1.722   5.626  0.4204 -0.4917  0.3173
16767TIP3    H271793   4.103   1.800   5.567 -0.3766  0.2231 -0.3381
16768TIP3   OH271794   6.176   4.406  16.762  0.3862 -0.6951  0.1604
16768TIP3    H171795   6.130   4.388  16.680 -0.3726 -0.2037  0.4651
16768TIP3    H271796   6.266   4.423  16.736 -0.0763  0.5694 -0.7001
16769TIP3   OH271797   4.728   1.042  11.877  0.5873  0.1590  0.4038
16769TIP3    H171798   4.673   0.965  11.860  2.3840 -1.3208  1.0178
16769TIP3    H271799   4.691   1.080  11.956 -0.2862 -0.0964  0.1320
16770TIP3   OH271800   2.144   5.050  14.390  0.1910  0.5909  0.4876
16770TIP3    H171801   2.076   5.026  14.328  0.4189 -0.8448  0.7765
16770TIP3    H271802   2.161   5.143  14.372  1.8603 -0.2407 -3.2387
16771TIP3   OH271803   1.857   6.450  12.102 -0.1789  0.0797  0.0895
16771TIP3    H171804   1.828   6.540  12.085  0.6034  0.2383 -0.4335
16771TIP3    H271805   1.951   6.457  12.119 -0.1723 -0.5991  0.3852
16772TIP3   OH271806   0.437   1.244   2.907  0.0049  0.3782 -0.0153
16772TIP3    H171807   0.432   1.154   2.938  1.2865 -0.2784 -1.6132
16772TIP3    H271808   0.498   1.242   2.833  0.9079  2.7280  0.5502
16773TIP3   OH271809   5.034   4.903  11.742  0.7233  0.0949  0.3590
16773TIP3    H171810   5.034   4.812  11.713 -0.8437  0.3433 -0.4821
16773TIP3    H271811   5.108   4.943  11.697  0.6788 -0.4719 -0.2242
16774TIP3   OH271812   4.775   4.284   0.261 -0.1332 -0.0369 -0.2303
16774TIP3    H171813   4.773   4.352   0.194  0.1595 -0.0637 -0.2654
16774TIP3    H271814   4.817   4.209   0.219 -0.9028 -0.4111 -0.3464
16775TIP3   OH271815   1.298   3.174   6.026 -0.3409  0.0601 -0.0025
16775TIP3    H171816   1.300   3.096   6.082 -1.3904 -1.2089 -1.6252
16775TIP3    H271817   1.251   3.239   6.077 -3.4544 -1.8235 -0.1809
16776TIP3   OH271818   0.821   1.987   6.521 -0.4054  0.5349 -0.4794
16776TIP3    H171819   0.820   1.895   6.549  1.0722  0.6885  0.1916
16776TIP3    H271820   0.841   2.036   6.601  0.9846  1.2475 -1.2271
16777TIP3   OH271821   2.336   5.920  10.746 -0.8388  0.1514 -0.4440
16777TIP3    H171822   2.358   5.963  10.828  1.5836 -1.1024 -0.3394
16777TIP3    H271823   2.259   5.867  10.766 -2.5488  2.5857 -0.0268
16778TIP3   OH271824   4.749   1.783  13.656  0.1375 -0.1979 -0.0105
16778TIP3    H171825   4.817   1.715  13.648  0.9151  0.4105  1.2123
16778TIP3    H271826   4.710   1.767  13.742  0.5621  1.0862  0.4488
16779TIP3   OH271827   5.298   5.739  13.165 -0.0927  0.6217 -0.2969
16779TIP3    H171828   5.338   5.691  13.092  0.5550  0.7059 -0.0001
16779TIP3    H271829   5.258   5.671  13.219 -1.3570  0.6247 -1.1865
16780TIP3   OH271830   1.318   2.034  11.669  0.3887  0.7144 -0.4369
16780TIP3    H171831   1.258   2.037  11.595 -1.0363  0.7175  0.6696
16780TIP3    H271832   1.269   1.991  11.738  1.3413  1.5450  0.8153
16781TIP3   OH271833   2.562   5.469  12.769 -0.1421  0.0714 -0.5756
16781TIP3    H171834   2.490   5.527  12.794  1.2156  0.6211  2.5691
16781TIP3    H271835   2.523   5.382  12.766 -1.4942  0.6821 -1.8798
16782TIP3   OH271836   2.814   0.860  12.822 -0.2755  0.2940 -0.3335
16782TIP3    H171837   2.773   0.775  12.837 -1.7378  1.1397  0.7180
16782TIP3    H271838   2.899   0.839  12.781 -0.8105 -1.6152 -0.5574
16783TIP3   OH271839   5.851   4.391  13.964  0.0974  0.0389  0.0775
16783TIP3    H171840   5.794   4.315  13.977  0.3283 -0.2546 -0.5904
16783TIP3    H271841   5.940   4.357  13.973  0.1963  0.2626 -0.0446
16784TIP3   OH271842   5.343   5.791  15.136 -0.1096 -0.1563 -0.0774
16784TIP3    H171843   5.264   5.741  15.160 -0.1178  0.1121  0.4743
16784TIP3    H271844   5.352   5.856  15.206  0.8227 -0.4354  0.0863
16785TIP3   OH271845   2.944   5.792   3.944  0.1850 -0.1848  0.0661
16785TIP3    H171846   2.947   5.728   3.873  0.0606  0.4717 -0.5488
16785TIP3    H271847   3.021   5.772   3.998  0.4282 -0.5381 -0.4000
16786TIP3   OH271848   0.644   1.054  13.280 -0.2639  0.1163  0.0718
16786TIP3    H171849   0.728   1.008  13.283 -1.8776 -3.2081 -1.1216
16786TIP3    H271850   0.637   1.087  13.191  0.8033  2.8576  0.8688
16787TIP3   OH271851   6.356   6.672  12.862  0.1442  0.6340 -0.4885
16787TIP3    H171852   6.451   6.675  12.868  0.1950 -0.9114 -0.1032
16787TIP3    H271853   6.326   6.698  12.950  0.1761  1.7539 -0.7964
16788TIP3   OH271854   2.589   2.206   5.513 -0.1029 -0.2006  0.0698
16788TIP3    H171855   2.577   2.300   5.527  0.9406  0.0279 -0.4518
16788TIP3    H271856   2.684   2.193   5.515 -0.1182 -0.9179 -1.7991
16789TIP3   OH271857   4.883   1.769   3.616 -0.1048  0.1267 -0.3154
16789TIP3    H171858   4.938   1.705   3.571 -1.3465 -1.1548 -0.1038
16789TIP3    H271859   4.939   1.808   3.682  0.0062 -2.8067  1.4869
16790TIP3   OH271860   3.255   0.431   1.391  0.2675  0.0574  0.3955
16790TIP3    H171861   3.203   0.465   1.318 -1.8716 -3.1537  0.2244
16790TIP3    H271862   3.338   0.405   1.351 -0.6549 -1.1238 -0.8663
16791TIP3   OH271863   0.266   3.902  17.382  0.2714 -0.9619 -0.8403
16791TIP3    H171864   0.206   3.976  17.369 -1.0237 -1.6382  0.8214
16791TIP3    H271865   0.334   3.937  17.439 -0.0421 -0.8784 -0.5059
16792TIP3   OH271866   3.166   5.639   0.988 -0.1409 -0.2964 -0.3909
16792TIP3    H171867   3.098   5.687   0.941  0.2473 -0.4739 -1.1558
16792TIP3    H271868   3.122   5.560   1.020 -0.8157  0.6185  0.9992
16793TIP3   OH271869   2.356   2.499   1.006 -0.1937 -0.6610 -0.2996
16793TIP3    H171870   2.382   2.591   1.000  0.3568 -0.7185  0.8951
16793TIP3    H271871   2.275   2.494   0.956 -1.4227  0.9728  1.3645
16794TIP3   OH271872   4.998   2.023   6.492 -0.0407 -0.4468 -0.7976
16794TIP3    H171873   4.986   2.017   6.397  0.8719  0.1874 -0.9580
16794TIP3    H271874   5.039   1.940   6.516  1.4481  0.1361 -1.2428
16795TIP3   OH271875   5.116   4.490   1.308  0.7966  0.0342  0.5621
16795TIP3    H171876   5.108   4.396   1.328 -2.5928 -0.1181 -0.8700
16795TIP3    H271877   5.152   4.493   1.220  0.1439  0.0362  0.2934
16796TIP3   OH271878   2.642   0.130  16.998  0.2012 -0.4250  0.1557
16796TIP3    H171879   2.605   0.105  16.914  2.5298  1.3545 -1.5422
16796TIP3    H271880   2.658   0.046  17.042 -1.2530 -1.3952 -1.0581
16797TIP3   OH271881   1.915   2.378  17.566 -0.3463  0.2465 -0.2726
16797TIP3    H171882   1.973   2.343  17.633 -0.0960  0.5659 -0.3235
16797TIP3    H271883   1.853   2.307  17.549 -0.0186 -0.0658 -0.1647
16798TIP3   OH271884   2.386   4.767  17.301 -0.2130  0.0425 -0.4552
16798TIP3    H171885   2.326   4.783  17.228  1.7532  4.0707 -1.4751
16798TIP3    H271886   2.449   4.704  17.268 -1.7295 -1.4894 -0.5923
16799TIP3   OH271887   0.664   4.366   2.191  0.4937  0.2633 -0.8021
16799TIP3    H171888   0.742   4.390   2.141  2.1306  1.1495  1.9660
16799TIP3    H271889   0.621   4.450   2.209 -0.4881 -0.1121 -1.2993
16800TIP3   OH271890   2.849   1.537  16.071 -0.8698  0.2053  0.1037
16800TIP3    H171891   2.926   1.590  16.088 -0.1956 -1.1291  1.3972
16800TIP3    H271892   2.781   1.575  16.127 -1.1284  1.2288 -0.8579
16801TIP3   OH271893   2.846   4.589   4.023 -0.4929 -0.4495  0.0038
16801TIP3    H171894   2.899   4.636   3.958  1.2690 -1.4811  0.6255
16801TIP3    H271895   2.807   4.659   4.076  1.7418  0.3811  0.6676
16802TIP3   OH271896   3.190   0.829  14.522 -0.1211  0.1167 -0.7268
16802TIP3    H171897   3.177   0.910  14.474 -0.0636  0.6424  0.1279
16802TIP3    H271898   3.166   0.760  14.460 -2.5911  0.8460 -0.6863
16803TIP3   OH271899   1.223   4.108   6.052  0.4022  0.2894 -0.3795
16803TIP3    H171900   1.254   4.195   6.077  0.0532 -0.0062  1.2307
16803TIP3    H271901   1.292   4.049   6.082  0.6682  0.0021 -1.5228
16804TIP3   OH271902   3.029   2.485   1.613 -0.5975 -0.3992 -0.0986
16804TIP3    H171903   3.021   2.576   1.640 -1.3004 -0.1932 -0.9424
16804TIP3    H271904   3.038   2.436   1.695 -1.0843  0.3484  0.4164
16805TIP3   OH271905   2.552   5.342  17.370  0.0503 -0.3209 -0.1569
16805TIP3    H171906   2.458   5.331  17.358  0.2937 -0.6522 -1.9822
16805TIP3    H271907   2.584   5.253  17.386  0.2398 -0.4399 -1.1351
16806TIP3   OH271908   3.362   1.894   4.153 -0.1977  0.0736 -0.1098
16806TIP3    H171909   3.456   1.880   4.146 -0.1330  0.3970  0.0941
16806TIP3    H271910   3.326   1.807   4.175 -0.0775 -0.2875 -1.2754
16807TIP3   OH271911   4.834   2.767   4.860  0.4818 -0.4688 -0.6382
16807TIP3    H171912   4.832   2.862   4.867 -0.4985 -0.4315 -1.1865
16807TIP3    H271913   4.742   2.741   4.862  0.6716 -1.3026 -1.6837
16808TIP3   OH271914   6.235   4.003   5.808 -0.5482 -0.3962  0.2403
16808TIP3    H171915   6.143   4.028   5.806 -0.4610  0.1780  1.9106
16808TIP3    H271916   6.272   4.041   5.727 -1.9088 -1.3333 -0.8662
16809TIP3   OH271917   5.917   6.355  17.301 -0.3931 -0.0670  0.3514
16809TIP3    H171918   5.997   6.395  17.268 -0.6454  0.5496  0.4773
16809TIP3    H271919   5.884   6.304  17.228  0.1782 -0.4288  0.3387
16810TIP3   OH271920   5.384   3.747   0.522  0.0221  0.1725 -0.2394
16810TIP3    H171921   5.395   3.786   0.609  1.4101 -1.0409  0.1797
16810TIP3    H271922   5.387   3.652   0.538  2.0301 -0.0821 -1.7729
16811TIP3   OH271923   0.337   1.114   5.201  0.3225 -0.6578  0.4225
16811TIP3    H171924   0.306   1.041   5.148  0.7766 -0.6214  0.1068
16811TIP3    H271925   0.270   1.182   5.189  1.8042  0.4604 -2.4814
16812TIP3   OH271926   2.729   6.123   5.196  0.2747  0.2438 -0.2732
16812TIP3    H171927   2.698   6.155   5.280 -0.5953 -0.3121 -0.3730
16812TIP3    H271928   2.821   6.151   5.193  0.7419 -0.9044  1.4690
16813TIP3   OH271929   1.004   1.402  14.784 -0.6276 -0.0561 -0.2707
16813TIP3    H171930   0.996   1.340  14.711 -2.2331  1.1887 -1.2074
16813TIP3    H271931   1.081   1.455  14.762 -0.5059 -0.3388 -0.5330
16814TIP3   OH271932   5.324   6.630  13.400  0.6756  0.3239 -0.2555
16814TIP3    H171933   5.307   6.558  13.462  1.3929  1.7236  1.6746
16814TIP3    H271934   5.251   6.691  13.414  1.8385  1.5684  0.7026
16815TIP3   OH271935   2.552   4.279   1.051  0.4441 -0.0893  0.4111
16815TIP3    H171936   2.485   4.302   1.115  0.9220  0.9848  0.5312
16815TIP3    H271937   2.504   4.270   0.968  0.2584  1.4542  0.3381
16816TIP3   OH271938   4.679   3.470   3.353  0.0110  0.2440 -0.1546
16816TIP3    H171939   4.594   3.492   3.391 -0.5536 -0.8094 -0.7508
16816TIP3    H271940   4.659   3.404   3.287  1.4095 -0.7490  0.3732
16817TIP3   OH271941   2.440   2.297   0.385  0.4546  0.0746 -0.0020
16817TIP3    H171942   2.416   2.389   0.400  2.3441  0.6687 -0.3464
16817TIP3    H271943   2.434   2.257   0.472  1.3698  0.9887  0.5090
16818TIP3   OH271944   4.873   1.446   2.457 -0.8004 -0.2655 -0.0015
16818TIP3    H171945   4.927   1.379   2.497  0.1694  0.6048  0.1930
16818TIP3    H271946   4.900   1.527   2.500 -0.5128  0.5366 -1.6044
16819TIP3   OH271947   6.163   0.847  12.635 -0.6518 -0.0926 -0.3242
16819TIP3    H171948   6.111   0.816  12.561 -1.6306  1.8360 -0.5078
16819TIP3    H271949   6.108   0.913  12.677 -0.1954 -1.2347  2.2667
16820TIP3   OH271950   5.696   2.838   5.175  0.1497  0.0870 -0.0941
16820TIP3    H171951   5.759   2.898   5.136 -1.9739  1.7286 -1.2110
16820TIP3    H271952   5.689   2.866   5.266  2.1342 -1.1462  0.4884
16821TIP3   OH271953   0.940   4.314   3.791 -0.2331  0.2156 -0.3891
16821TIP3    H171954   0.965   4.343   3.703 -0.0324  1.3477  0.0166
16821TIP3    H271955   0.909   4.394   3.835  0.2917 -0.1897  0.7781
16822TIP3   OH271956   5.549   3.062  16.364  0.4820 -0.3669  0.4045
16822TIP3    H171957   5.551   3.115  16.285 -0.8268 -0.9847 -0.0836
16822TIP3    H271958   5.541   3.124  16.435 -0.2068  0.1264 -0.0958
16823TIP3   OH271959   5.179   5.418  14.006  0.2161  0.3135 -0.6399
16823TIP3    H171960   5.248   5.387  13.947  1.3750 -0.6112  1.1262
16823TIP3    H271961   5.208   5.506  14.031  0.0327  0.4681 -0.9622
16824TIP3   OH271962   1.932   2.355   3.334 -0.1174  0.3899  0.3222
16824TIP3    H171963   1.950   2.406   3.413  1.4654 -1.1011  0.9899
16824TIP3    H271964   1.999   2.384   3.272 -0.9263  1.0616 -0.2493
16825TIP3   OH271965   2.497   0.931  12.864  0.7773  0.5691 -0.1462
16825TIP3    H171966   2.528   1.012  12.904 -0.8805  1.8793 -1.3690
16825TIP3    H271967   2.575   0.894  12.822  1.5123  1.6594  0.2197
16826TIP3   OH271968   5.033   6.708  14.273  0.4175 -0.0509 -0.1390
16826TIP3    H171969   4.939   6.691  14.285  0.5921 -1.2362 -0.3027
16826TIP3    H271970   5.054   6.666  14.190  1.5006 -1.5697  0.8565
16827TIP3   OH271971   5.482   1.644  15.963  0.3549  0.1979  0.1286
16827TIP3    H171972   5.537   1.603  15.896  2.3079  1.5408  0.8016
16827TIP3    H271973   5.392   1.632  15.933  1.0855 -0.8663 -1.7507
16828TIP3   OH271974   2.548   4.174  15.104  0.0107  0.2829  0.2637
16828TIP3    H171975   2.496   4.127  15.169  1.5253 -0.0793  1.2685
16828TIP3    H271976   2.555   4.114  15.030 -1.5149  0.5992 -0.1702
16829TIP3   OH271977   4.700   3.241   3.944  0.6808 -0.2691  0.2525
16829TIP3    H171978   4.711   3.157   3.990 -0.1928  0.9133  2.7903
16829TIP3    H271979   4.782   3.253   3.897  1.0932 -2.2097  0.3896
16830TIP3   OH271980   1.121   2.175  11.505  0.1967 -0.3053 -0.1420
16830TIP3    H171981   1.173   2.247  11.539 -1.3619  1.1569 -0.7211
16830TIP3    H271982   1.176   2.137  11.436  0.5812  1.1146 -0.6559
16831TIP3   OH271983   2.089   6.579  12.704  0.1195  0.2117  0.1337
16831TIP3    H171984   2.106   6.493  12.667  0.3394  0.2733  0.0896
16831TIP3    H271985   2.154   6.589  12.774  1.1145  0.9719 -0.8740
16832TIP3   OH271986   6.719   4.642  14.473 -0.5339 -0.3583  0.1399
16832TIP3    H171987   6.669   4.702  14.530  1.7381  0.3297  1.5434
16832TIP3    H271988   6.689   4.555  14.499 -0.1798 -0.0162  1.8361
16833TIP3   OH271989   3.608   4.622   4.822 -0.3489 -0.1367 -0.2195
16833TIP3    H171990   3.694   4.605   4.862 -1.0364 -0.4648  1.1813
16833TIP3    H271991   3.622   4.606   4.729  0.7249 -1.8046  0.1696
16834TIP3   OH271992   6.631   2.817  16.912 -0.8405  0.1553  0.5319
16834TIP3    H171993   6.574   2.806  16.988 -0.8979 -2.1177  0.2269
16834TIP3    H271994   6.627   2.733  16.867  2.0547  0.2024 -0.0032
16835TIP3   OH271995   6.554   3.156   1.771 -0.8607 -0.3261 -0.3035
16835TIP3    H171996   6.503   3.237   1.764 -0.0946  0.4078  1.7902
16835TIP3    H271997   6.634   3.181   1.816  1.0578 -1.6275 -2.7371
16836TIP3   OH271998   1.016   1.395   3.104  0.2143  0.0678  0.4513
16836TIP3    H171999   0.991   1.478   3.063  2.3386 -0.1774 -1.5404
16836TIP3    H272000   0.933   1.351   3.122 -0.9237  2.1398  0.6146
16837TIP3   OH272001   1.032   2.967  17.179 -0.0756 -0.6407 -0.2835
16837TIP3    H172002   1.079   3.049  17.199 -0.9087 -0.2655  0.1885
16837TIP3    H272003   0.966   2.960  17.248 -1.3202 -0.6804 -1.4405
16838TIP3   OH272004   3.972   0.472  14.146  0.0343 -0.0700  0.2036
16838TIP3    H172005   3.968   0.377  14.140 -2.5454 -0.0811  0.6175
16838TIP3    H272006   3.983   0.490  14.239  2.4627  0.0815 -0.0684
16839TIP3   OH272007   2.056   5.210  13.250  0.0374  0.1691  0.3323
16839TIP3    H172008   2.000   5.203  13.327  0.0910  0.4681  0.4025
16839TIP3    H272009   2.090   5.122  13.236 -0.9939 -0.1724 -0.1229
16840TIP3   OH272010   3.873   4.057   1.649  0.0598 -0.6817 -0.2349
16840TIP3    H172011   3.879   4.037   1.742 -0.6851 -0.3999 -0.1240
16840TIP3    H272012   3.818   4.136   1.644  0.9840 -0.0451 -0.8340
16841TIP3   OH272013   1.362   1.712   1.314 -0.5080 -0.5952  0.7033
16841TIP3    H172014   1.376   1.633   1.367 -2.2912 -0.6903  1.0885
16841TIP3    H272015   1.322   1.680   1.234 -0.1440 -0.1899  0.3579
16842TIP3   OH272016   5.153   1.454   1.772 -0.3326  0.5719 -0.6355
16842TIP3    H172017   5.220   1.485   1.712  2.2252 -1.7336  0.8209
16842TIP3    H272018   5.197   1.448   1.857 -1.6873 -2.9925 -0.0083
16843TIP3   OH272019   1.752   2.518   3.201 -0.0048  0.4204  0.1395
16843TIP3    H172020   1.793   2.449   3.253 -0.6704  0.9690  1.4291
16843TIP3    H272021   1.688   2.472   3.147 -0.2876 -0.0140  0.8282
16844TIP3   OH272022   3.851   0.154  12.586 -0.0410  0.2732 -0.5617
16844TIP3    H172023   3.903   0.076  12.565  1.1826  1.2610 -1.2838
16844TIP3    H272024   3.774   0.119  12.633  0.6264 -1.3298 -0.5960
16845TIP3   OH272025   5.856   5.190  11.707  0.1546 -0.3549 -0.4623
16845TIP3    H172026   5.852   5.280  11.673 -0.6281 -0.2190 -0.0352
16845TIP3    H272027   5.769   5.154  11.688  0.5194 -1.0839 -0.7808
16846TIP3   OH272028   5.151   2.211   6.628  0.3998 -0.2501 -0.2558
16846TIP3    H172029   5.095   2.167   6.564  1.3338  0.6698 -1.7715
16846TIP3    H272030   5.111   2.296   6.642  0.0380 -0.5581  0.6343
16847TIP3   OH272031   4.871   0.260  15.319  0.5321 -0.0447  0.4162
16847TIP3    H172032   4.890   0.167  15.316  0.6616 -0.1019  2.1086
16847TIP3    H272033   4.779   0.266  15.346 -0.3633  0.3158 -2.4296
16848TIP3   OH272034   2.632   0.889   6.303  0.3996  0.2111 -0.1504
16848TIP3    H172035   2.630   0.974   6.347  1.9235  1.3051 -2.0385
16848TIP3    H272036   2.587   0.904   6.220 -0.0461 -1.0614 -0.1518
16849TIP3   OH272037   2.217   1.708  14.439 -0.0259  0.0348 -0.4899
16849TIP3    H172038   2.269   1.729  14.361 -0.3682  0.2843 -0.6524
16849TIP3    H272039   2.136   1.756  14.427  0.4731  1.2268  0.7184
16850TIP3   OH272040   1.929   4.887  11.665  0.1302 -0.2569  0.2367
16850TIP3    H172041   1.944   4.910  11.573  0.0281  0.6970  0.4580
16850TIP3    H272042   1.834   4.885  11.674  0.1406  0.3842  0.5026
16851TIP3   OH272043   6.030   1.268  13.574  0.2140 -0.2886  0.6946
16851TIP3    H172044   6.084   1.246  13.497  1.5179  2.0081  0.8540
16851TIP3    H272045   6.034   1.190  13.629  3.0292 -0.4304  0.4535
16852TIP3   OH272046   4.271   2.635   1.572 -0.1475  0.3773  0.1209
16852TIP3    H172047   4.184   2.668   1.551 -0.2156 -0.2213 -0.5735
16852TIP3    H272048   4.312   2.617   1.488  0.9258  1.3169  0.4205
16853TIP3   OH272049   1.022   4.742  13.443 -0.2587  0.3112  0.0697
16853TIP3    H172050   1.076   4.750  13.521  0.7330 -1.1188 -0.4120
16853TIP3    H272051   1.072   4.685  13.385 -1.5946  0.2010 -1.0462
16854TIP3   OH272052   5.745   6.714  16.404  0.2803  0.4524 -0.0709
16854TIP3    H172053   5.832   6.710  16.444 -0.3680  0.9666  1.4878
16854TIP3    H272054   5.741   6.799  16.362 -0.5586  1.9378  2.7200
16855TIP3   OH272055   5.099   1.835   4.543  0.3068 -0.2088  0.0517
16855TIP3    H172056   5.012   1.875   4.534  0.1410 -0.7897 -1.1164
16855TIP3    H272057   5.160   1.909   4.538 -0.0204  0.0033 -1.5223
16856TIP3   OH272058   4.501   2.441   0.479  0.7338  0.3835 -0.0962
16856TIP3    H172059   4.552   2.415   0.555  1.6000 -0.2321 -0.8578
16856TIP3    H272060   4.481   2.534   0.494  0.8655  0.2634  0.8771
16857TIP3   OH272061   1.392   3.945   1.352 -0.4811 -0.1411  0.4081
16857TIP3    H172062   1.423   3.911   1.268 -0.1426 -1.7412  1.1523
16857TIP3    H272063   1.318   4.001   1.329 -0.2492 -0.3515 -0.9682
16858TIP3   OH272064   4.090   1.058  16.673  0.4055  0.3901  0.5977
16858TIP3    H172065   4.168   1.089  16.719 -0.5773  2.7211  0.8326
16858TIP3    H272066   4.068   1.129  16.613 -2.1528  0.2866  1.3034
16859TIP3   OH272067   2.780   4.182  17.383 -0.0333  0.4771 -0.5162
16859TIP3    H172068   2.863   4.191  17.336  0.4466  0.4845  0.3098
16859TIP3    H272069   2.784   4.248  17.452  0.4265 -1.1891  1.1504
16860TIP3   OH272070   6.627   1.531   5.555 -0.3892 -0.1517  0.3579
16860TIP3    H172071   6.703   1.585   5.533 -0.0942 -1.0505 -0.9891
16860TIP3    H272072   6.657   1.475   5.626 -0.4463  0.8750  1.2160
16861TIP3   OH272073   4.456   1.191  11.755 -0.3492  0.1396 -0.0850
16861TIP3    H172074   4.449   1.273  11.804  0.7765  0.2718 -0.1057
16861TIP3    H272075   4.516   1.211  11.683  0.1890 -0.7711  0.0896
16862TIP3   OH272076   6.502   3.038   2.277  0.8809 -0.2015 -0.0328
16862TIP3    H172077   6.456   3.076   2.203 -1.3833 -2.4617  0.0702
16862TIP3    H272078   6.498   2.944   2.262 -0.7509 -0.8624  3.4700
16863TIP3   OH272079   1.466   1.395  16.377  0.2350  0.3467 -0.3566
16863TIP3    H172080   1.417   1.336  16.321  1.5049 -1.0293 -0.0924
16863TIP3    H272081   1.552   1.353  16.387  1.3248  2.4134 -0.4292
16864TIP3   OH272082   6.162   3.493  13.219 -0.0596 -0.4817 -0.0406
16864TIP3    H172083   6.157   3.456  13.130  0.0856  0.3566 -0.4025
16864TIP3    H272084   6.252   3.524  13.227 -0.7965  2.1040 -0.7113
16865TIP3   OH272085   2.035   5.024  12.636 -0.9028 -0.2884  0.6089
16865TIP3    H172086   1.999   5.000  12.550 -0.6773 -0.5304  0.5824
16865TIP3    H272087   2.009   4.953  12.694 -2.8749  0.8527  1.2393
16866TIP3   OH272088   1.962   1.229  12.156  0.2663 -0.3631 -0.3337
16866TIP3    H172089   1.928   1.167  12.090  1.0690 -2.0966  0.8127
16866TIP3    H272090   1.994   1.173  12.226 -0.4717  1.4386  1.5198
16867TIP3   OH272091   3.084   6.694   4.954 -0.3949  0.1286  0.4687
16867TIP3    H172092   3.131   6.752   5.015 -2.2670 -1.1027  3.2854
16867TIP3    H272093   3.098   6.606   4.990 -3.2308 -0.4461  0.3443
16868TIP3   OH272094   6.085   4.416  12.254  1.3266 -0.3110 -0.2946
16868TIP3    H172095   6.089   4.509  12.277  2.8902  0.3185 -2.8383
16868TIP3    H272096   6.050   4.414  12.165  0.9154 -2.2162 -0.1389
16869TIP3   OH272097   6.054   5.145  14.021  0.1494 -0.4679 -0.0919
16869TIP3    H172098   6.001   5.146  13.941 -0.3228  0.9703  0.2093
16869TIP3    H272099   6.006   5.089  14.081 -0.0219 -0.7384 -0.4809
16870TIP3   OH272100   1.505   4.729   3.133 -0.5273  0.1622  0.8719
16870TIP3    H172101   1.550   4.769   3.208 -0.4172  1.0805  0.3307
16870TIP3    H272102   1.466   4.803   3.086 -0.4447 -0.3797 -0.0766
16871TIP3   OH272103   5.430   1.058   3.129  0.5258  0.5527  0.2864
16871TIP3    H172104   5.423   0.962   3.135  1.5386  0.5472  1.7146
16871TIP3    H272105   5.412   1.089   3.218 -1.6163  1.8547 -0.5187
16872TIP3   OH272106   0.459   4.555  14.635  0.4532 -0.3382 -0.2450
16872TIP3    H172107   0.500   4.640  14.652  1.5998 -0.5776 -1.5924
16872TIP3    H272108   0.464   4.545  14.540 -2.1218 -0.7356 -0.3935
16873TIP3   OH272109   1.140   1.503  16.309 -0.1178  0.3209 -0.1519
16873TIP3    H172110   1.200   1.519  16.236 -1.4237  0.1725 -1.2869
16873TIP3    H272111   1.197   1.497  16.386  1.2278  1.1343 -1.0519
16874TIP3   OH272112   1.117   3.785  15.633  0.3596  0.5450 -0.1605
16874TIP3    H172113   1.042   3.806  15.577 -0.7079 -1.5095  0.4102
16874TIP3    H272114   1.124   3.860  15.693 -0.2861  1.4246 -1.1438
16875TIP3   OH272115   0.352   2.897   4.989  0.1027  0.1862  0.0783
16875TIP3    H172116   0.301   2.908   5.069  0.6001 -0.6932  0.5340
16875TIP3    H272117   0.290   2.915   4.918  0.2125  3.2490  0.6407
16876TIP3   OH272118   1.266   3.010  13.471 -0.4810 -0.5632  0.5528
16876TIP3    H172119   1.311   3.013  13.556  1.0935 -0.8862 -0.2418
16876TIP3    H272120   1.209   2.933  13.477 -0.8376 -0.2443  1.5111
16877TIP3   OH272121   2.346   3.476  13.898 -0.0840  0.3223  0.2228
16877TIP3    H172122   2.400   3.542  13.855 -0.9979  1.8645  1.2960
16877TIP3    H272123   2.357   3.397  13.846  1.1675  1.2835 -1.0461
16878TIP3   OH272124   4.190   2.049  15.594  0.3371 -0.0632 -0.1219
16878TIP3    H172125   4.171   2.005  15.510  1.2572 -0.7411  0.0064
16878TIP3    H272126   4.230   1.981  15.648  2.0625  0.9881 -0.0032
16879TIP3   OH272127   2.493   0.175   4.662 -0.2513 -0.9921  0.4113
16879TIP3    H172128   2.522   0.155   4.751  3.0233  1.7868  0.1701
16879TIP3    H272129   2.569   0.155   4.607 -0.5318  1.5279 -1.0748
16880TIP3   OH272130   6.027   0.332  14.572 -0.8784  0.4050 -0.4405
16880TIP3    H172131   6.108   0.381  14.568  0.0002 -0.8555  0.9382
16880TIP3    H272132   5.986   0.358  14.654 -1.4994  0.4677 -0.7607
16881TIP3   OH272133   1.347   1.571   5.529  0.1271 -0.2261 -0.7566
16881TIP3    H172134   1.405   1.642   5.557 -0.8571 -0.0404  0.9831
16881TIP3    H272135   1.396   1.524   5.462  1.8292  0.5912 -0.1328
16882TIP3   OH272136   0.258   1.524  15.371  0.5477 -0.6315 -0.1935
16882TIP3    H172137   0.280   1.453  15.431  0.3850 -2.6719 -2.3762
16882TIP3    H272138   0.332   1.529  15.311 -0.2494 -0.2206 -1.1815
16883TIP3   OH272139   6.531   4.079  11.856 -0.5685  0.5617 -0.1182
16883TIP3    H172140   6.517   3.985  11.863  1.0677  0.3898  1.5918
16883TIP3    H272141   6.468   4.118  11.916  0.0348  0.3994  0.6393
16884TIP3   OH272142   5.740   5.759   4.245  0.6243 -0.4139 -0.0470
16884TIP3    H172143   5.749   5.771   4.340 -0.0862 -1.8468  0.2241
16884TIP3    H272144   5.646   5.754   4.231  0.5752  2.0381 -1.1735
16885TIP3   OH272145   3.212   0.814   5.389  0.4022  0.6211  0.5008
16885TIP3    H172146   3.273   0.741   5.390  0.9624  1.0411  2.2621
16885TIP3    H272147   3.171   0.812   5.476 -0.4376  1.6823  0.1554
16886TIP3   OH272148   2.636   0.919   5.160 -0.0226  0.5397  0.6520
16886TIP3    H172149   2.605   0.876   5.080  0.5426 -0.1947  0.8066
16886TIP3    H272150   2.608   0.860   5.230  1.7637 -0.2178  0.7898
16887TIP3   OH272151   5.103   3.433   5.474  0.0002  0.0616 -0.0399
16887TIP3    H172152   5.025   3.418   5.528  0.1344 -0.1099  0.1052
16887TIP3    H272153   5.069   3.442   5.385 -0.3409  1.4321  0.2003
16888TIP3   OH272154   3.470   0.704  12.433  0.1689  0.0804  0.3870
16888TIP3    H172155   3.387   0.737  12.399  0.0798 -1.9516 -1.6057
16888TIP3    H272156   3.449   0.676  12.523 -0.5708  2.0533  0.8817
16889TIP3   OH272157   1.980   3.406  12.636  0.3641 -0.1875  0.0178
16889TIP3    H172158   1.999   3.317  12.607  2.1922 -0.2337  1.1736
16889TIP3    H272159   2.050   3.459  12.597 -1.1066  0.9060 -1.2455
16890TIP3   OH272160   6.597   1.219  13.426 -0.3810 -0.4022  0.7545
16890TIP3    H172161   6.581   1.188  13.337  1.2106 -1.9703  0.9560
16890TIP3    H272162   6.515   1.262  13.452 -1.0200 -0.2933 -1.2857
16891TIP3   OH272163   3.393   0.135   4.836  0.3864 -0.0679  0.5136
16891TIP3    H172164   3.350   0.060   4.794 -1.2040  0.6489  0.7981
16891TIP3    H272165   3.480   0.137   4.798  0.1788 -1.5824 -0.0953
16892TIP3   OH272166   3.892   0.168   4.938  0.2710 -0.1465  0.1772
16892TIP3    H172167   3.879   0.261   4.917 -1.0799  0.2768  2.4743
16892TIP3    H272168   3.803   0.132   4.939  0.6421 -1.0646  0.9160
16893TIP3   OH272169   3.492   5.760  13.809  0.0573  0.4256  0.6284
16893TIP3    H172170   3.438   5.701  13.863 -2.7209  2.3450  0.1684
16893TIP3    H272171   3.472   5.735  13.719 -0.3114  1.3459  0.4471
16894TIP3   OH272172   1.316   3.128   4.906 -0.1179 -0.2774 -0.1884
16894TIP3    H172173   1.296   3.219   4.931  0.1358 -0.4746  0.7823
16894TIP3    H272174   1.337   3.133   4.813  1.3125  0.8893  0.1591
16895TIP3   OH272175   4.590   3.178   2.471 -0.1249 -0.4413  0.0364
16895TIP3    H172176   4.523   3.115   2.444 -1.3789  1.3719 -1.2917
16895TIP3    H272177   4.661   3.167   2.408 -0.1751 -0.7459  0.0305
16896TIP3   OH272178   4.013   1.015   3.315 -0.1955 -0.0220 -1.1580
16896TIP3    H172179   3.964   1.087   3.276 -1.7171  0.2865  1.1510
16896TIP3    H272180   3.954   0.940   3.310 -0.8769  0.2581  1.3144
16897TIP3   OH272181   5.183   1.434  15.687 -0.0358  0.3551 -0.1884
16897TIP3    H172182   5.170   1.524  15.659  0.4878 -0.0026 -1.6754
16897TIP3    H272183   5.114   1.384  15.642 -0.0088 -0.0542  0.2143
16898TIP3   OH272184   2.370   2.503   4.223 -0.2131  0.2159 -0.1273
16898TIP3    H172185   2.422   2.432   4.184 -0.2016  0.8284 -1.2762
16898TIP3    H272186   2.281   2.467   4.228 -0.1743  0.0461 -0.5433
16899TIP3   OH272187   5.694   6.360   3.418  0.1737  0.0774 -0.2065
16899TIP3    H172188   5.735   6.290   3.367 -0.2131 -0.2339 -0.0981
16899TIP3    H272189   5.614   6.320   3.453  1.0279 -0.0636  1.6359
16900TIP3   OH272190   0.551   0.017  12.374 -0.1092  0.1936  0.6364
16900TIP3    H172191   0.586   0.039  12.460  0.2363  1.7638  0.1243
16900TIP3    H272192   0.587   0.084  12.316  0.2178 -1.2343 -0.8696
16901TIP3   OH272193   5.449   6.636  16.406 -0.3508 -0.2482 -0.0307
16901TIP3    H172194   5.538   6.670  16.398 -0.4728  0.1239  0.1796
16901TIP3    H272195   5.394   6.714  16.412 -0.6493 -0.4820  0.2883
16902TIP3   OH272196   0.847   4.489   3.594 -0.1818  0.0716  0.2119
16902TIP3    H172197   0.754   4.488   3.574  0.3132 -0.5092 -2.5709
16902TIP3    H272198   0.875   4.579   3.574  0.3163 -0.5133 -2.1214
16903TIP3   OH272199   3.336   1.203   3.941 -0.2359 -0.2607  0.1427
16903TIP3    H172200   3.417   1.152   3.945  0.6873  1.0503 -0.7733
16903TIP3    H272201   3.346   1.257   3.863 -2.5071 -0.8606 -0.6381
16904TIP3   OH272202   4.466   6.524  17.371 -0.2555 -0.1416 -0.9266
16904TIP3    H172203   4.434   6.546  17.458 -1.4570 -1.8145 -0.8998
16904TIP3    H272204   4.519   6.446  17.384  0.2756  0.0955 -1.5916
16905TIP3   OH272205   1.709   5.517   2.818 -0.2993 -0.3236  0.0359
16905TIP3    H172206   1.686   5.426   2.833 -1.2616  0.0057  0.6718
16905TIP3    H272207   1.764   5.541   2.892 -1.2790  0.0238  0.6591
16906TIP3   OH272208   2.786   6.623  16.764  0.5793  0.5727 -0.0737
16906TIP3    H172209   2.691   6.623  16.753  0.3648 -0.0495  1.5370
16906TIP3    H272210   2.809   6.715  16.773 -0.1617  0.6414  1.4807
16907TIP3   OH272211   1.406   5.079   0.503 -0.4224  0.3821 -0.3625
16907TIP3    H172212   1.313   5.095   0.516 -0.9311 -2.3579 -0.0773
16907TIP3    H272213   1.410   4.997   0.453  1.8327  0.3305 -0.2175
16908TIP3   OH272214   5.574   0.999   1.167 -0.3948 -0.2340  0.3140
16908TIP3    H172215   5.557   1.091   1.185 -1.4673 -0.5559  1.0319
16908TIP3    H272216   5.669   0.989   1.179  0.5134  1.5837 -3.6434
16909TIP3   OH272217   3.353   0.776   4.810 -0.7620  0.3113 -0.3370
16909TIP3    H172218   3.392   0.724   4.880 -0.5994  0.9794  0.0880
16909TIP3    H272219   3.362   0.723   4.731 -1.3873 -0.6650  0.2311
16910TIP3   OH272220   1.567   0.900  17.513  0.1674 -0.1271  0.6402
16910TIP3    H172221   1.571   0.976  17.455 -0.1367  0.5386  1.4786
16910TIP3    H272222   1.656   0.865  17.512 -0.1521 -1.0671 -1.4251
16911TIP3   OH272223   6.540   0.671  17.453  0.0852  0.1922 -0.1527
16911TIP3    H172224   6.544   0.604  17.385  1.1426 -1.2886  1.3082
16911TIP3    H272225   6.626   0.713  17.450 -0.6642  1.8019 -1.2685
16912TIP3   OH272226   5.246   0.639  15.070 -0.2666  0.2453  0.0061
16912TIP3    H172227   5.263   0.678  15.155 -1.0578 -1.0598  0.7872
16912TIP3    H272228   5.161   0.674  15.044 -0.5343 -0.2011  0.2685
16913TIP3   OH272229   0.347   3.841   5.418  0.0793  0.1695  0.4989
16913TIP3    H172230   0.295   3.808   5.345  0.3793  1.5611 -0.3976
16913TIP3    H272231   0.430   3.793   5.412 -0.2455 -0.3993  0.5113
16914TIP3   OH272232   1.539   2.584  15.444  0.7682 -0.1607 -0.3158
16914TIP3    H172233   1.530   2.671  15.484  2.7047  0.3639 -0.9084
16914TIP3    H272234   1.551   2.602  15.351  0.0938 -1.1455 -0.6094
16915TIP3   OH272235   3.427   2.441   2.107  0.5347 -0.1504  0.3362
16915TIP3    H172236   3.375   2.406   2.179  1.1798 -0.2488  0.7554
16915TIP3    H272237   3.395   2.531   2.096  0.1788 -0.2567  0.4940
16916TIP3   OH272238   4.268   2.432   5.032 -0.0619 -0.3238 -0.1306
16916TIP3    H172239   4.308   2.433   4.945  1.6144  0.9132  0.5936
16916TIP3    H272240   4.319   2.368   5.082 -2.2360 -2.4919 -0.5193
16917TIP3   OH272241   2.328   0.928  14.670  0.2765  0.1860  0.0026
16917TIP3    H172242   2.331   0.978  14.588  0.2349 -0.3356 -0.3227
16917TIP3    H272243   2.388   0.855  14.655 -0.2603 -0.2957  0.1743
16918TIP3   OH272244   5.208   0.668   1.693  0.3732 -0.0828 -0.2407
16918TIP3    H172245   5.218   0.760   1.671 -2.1980  0.6862  1.4098
16918TIP3    H272246   5.289   0.627   1.662  2.4361  3.0045  0.6046
16919TIP3   OH272247   5.474   2.009   1.377  0.0297 -0.6450  0.3304
16919TIP3    H172248   5.409   2.011   1.447 -0.3490  1.7633 -0.0040
16919TIP3    H272249   5.558   2.020   1.421 -0.1238 -0.1219  0.4968
16920TIP3   OH272250   6.666   0.682  15.337  0.2831 -0.4310 -0.3100
16920TIP3    H172251   6.655   0.654  15.246  1.3199 -0.6235 -0.3870
16920TIP3    H272252   6.676   0.777  15.332 -0.2590 -0.3753 -0.3391
16921TIP3   OH272253   2.246   3.125   3.715 -0.0819 -0.3765  0.6423
16921TIP3    H172254   2.255   3.114   3.621 -2.7189  0.7917  0.1773
16921TIP3    H272255   2.246   3.220   3.728 -0.1031 -0.5168  1.7929
16922TIP3   OH272256   6.329   5.476   4.481 -0.5259  0.0199 -0.1900
16922TIP3    H172257   6.259   5.504   4.421  1.0019 -0.1232 -2.1240
16922TIP3    H272258   6.358   5.392   4.447  1.5425  0.7201 -0.3042
16923TIP3   OH272259   5.450   3.727   3.218  0.3019 -0.1494  0.9720
16923TIP3    H172260   5.394   3.680   3.280 -1.8053  1.8574  0.7285
16923TIP3    H272261   5.512   3.661   3.187 -0.3254 -1.8886  3.1286
16924TIP3   OH272262   3.514   2.852   4.710  0.0269 -0.4354 -0.0343
16924TIP3    H172263   3.562   2.933   4.727  1.7972 -1.4078 -0.1695
16924TIP3    H272264   3.570   2.783   4.745 -1.8152 -1.5781  0.8160
16925TIP3   OH272265   4.594   1.059   3.851 -0.2402 -0.1990 -0.4029
16925TIP3    H172266   4.653   1.133   3.867 -0.2591 -0.6675  2.2627
16925TIP3    H272267   4.598   1.007   3.931 -1.2159 -2.4306 -1.6977
16926TIP3   OH272268   0.476   3.350  14.606  0.5584  0.1107  0.2737
16926TIP3    H172269   0.384   3.363  14.584  0.4138 -0.0539  0.7819
16926TIP3    H272270   0.480   3.263  14.646  1.0023 -0.0593 -0.1231
16927TIP3   OH272271   5.521   6.241  15.679 -0.0382 -0.1263  0.0903
16927TIP3    H172272   5.536   6.333  15.704  1.3335  0.0899 -1.3413
16927TIP3    H272273   5.446   6.244  15.620  0.4182  0.2063 -0.4957
16928TIP3   OH272274   2.333   0.174   1.951 -0.3201  0.6814  0.4771
16928TIP3    H172275   2.416   0.146   1.989 -0.6587  0.3449  0.9965
16928TIP3    H272276   2.307   0.102   1.894  0.2824  1.2703 -0.5665
16929TIP3   OH272277   3.708   0.390  15.779 -0.0695 -0.1317 -0.1931
16929TIP3    H172278   3.615   0.412  15.780 -0.1243 -0.3336 -0.6898
16929TIP3    H272279   3.737   0.409  15.690  0.1845 -0.8029 -0.2642
16930TIP3   OH272280   4.893   5.867  12.858 -0.0467  0.3568 -0.7183
16930TIP3    H172281   4.981   5.839  12.886 -0.8535 -0.9309  0.6955
16930TIP3    H272282   4.837   5.848  12.933 -1.3112  2.5962 -1.0140
16931TIP3   OH272283   1.960   0.105  16.963 -0.0402  0.1784 -0.5307
16931TIP3    H172284   1.976   0.019  17.002  1.1744  0.0894 -1.1775
16931TIP3    H272285   1.884   0.139  17.011  0.8510 -0.2848  1.3278
16932TIP3   OH272286   1.880   5.019  14.298  0.2459 -0.4040  0.5506
16932TIP3    H172287   1.814   4.980  14.241  1.1035 -1.6946  0.4153
16932TIP3    H272288   1.834   5.091  14.342 -0.4244  0.7571 -1.8436
16933TIP3   OH272289   2.631   0.301   1.204 -0.4501 -0.1583 -0.3840
16933TIP3    H172290   2.725   0.285   1.207 -0.6362 -1.2683  0.4750
16933TIP3    H272291   2.621   0.389   1.240  0.1871 -0.5002  0.6972
16934TIP3   OH272292   6.659   6.300   2.015 -0.0631 -0.1652 -0.7759
16934TIP3    H172293   6.645   6.392   2.036 -1.7636 -0.3268 -1.0124
16934TIP3    H272294   6.722   6.270   2.080  0.4794  1.1409 -0.6632
16935TIP3   OH272295   1.178   5.250  14.037  0.8010 -0.8625 -0.2938
16935TIP3    H172296   1.126   5.212  13.966  0.8709 -0.5236 -0.5295
16935TIP3    H272297   1.269   5.227  14.015  0.8397 -0.5971 -0.4157
16936TIP3   OH272298   0.643   2.070   1.420 -0.0105  0.2095 -0.3794
16936TIP3    H172299   0.633   2.096   1.511  0.8678  2.2448 -0.7995
16936TIP3    H272300   0.604   2.143   1.370 -1.3543 -1.2910 -1.6524
16937TIP3   OH272301   4.537   6.572   1.622  0.4760 -0.6001 -0.1808
16937TIP3    H172302   4.531   6.655   1.574 -0.6730 -1.5991 -1.8942
16937TIP3    H272303   4.631   6.551   1.621  0.6509  0.1483 -0.6990
16938TIP3   OH272304   2.425   1.315   1.696 -0.1365  0.2621 -0.1850
16938TIP3    H172305   2.416   1.399   1.740 -0.9987  0.5966 -0.9708
16938TIP3    H272306   2.484   1.333   1.623  0.1448  0.0408 -0.0153
16939TIP3   OH272307   6.532   5.244   3.928  0.0573 -0.3132 -0.4292
16939TIP3    H172308   6.606   5.262   3.870  0.6804 -0.4635  0.3111
16939TIP3    H272309   6.510   5.329   3.966 -0.8787 -0.0568 -1.4702
16940TIP3   OH272310   1.001   4.455   4.334 -0.8371  0.2587  0.0594
16940TIP3    H172311   0.982   4.372   4.377 -0.5730  1.0569  1.8181
16940TIP3    H272312   1.090   4.478   4.364 -0.3517  0.5194 -1.5012
16941TIP3   OH272313   4.643   6.033   4.219 -0.4072 -0.0500 -0.0226
16941TIP3    H172314   4.697   6.108   4.194 -1.3221  0.8734  0.6975
16941TIP3    H272315   4.556   6.055   4.187 -0.7243 -0.7306  0.3528
16942TIP3   OH272316   6.296   1.440  11.867 -0.1631  0.0572  0.5405
16942TIP3    H172317   6.265   1.350  11.873 -0.5397  0.1897  0.6092
16942TIP3    H272318   6.245   1.478  11.795 -1.2265  0.6985  1.5950
16943TIP3   OH272319   4.372   4.655  14.120 -0.3806  0.3935  0.0380
16943TIP3    H172320   4.327   4.667  14.036 -0.8788 -2.8545 -0.2700
16943TIP3    H272321   4.349   4.567  14.147  1.1716  0.7313  2.7988
16944TIP3   OH272322   4.174   2.410   2.760  0.3752 -0.1736  0.3933
16944TIP3    H172323   4.136   2.486   2.716  0.0213 -0.0659  0.8772
16944TIP3    H272324   4.099   2.360   2.792  0.6301 -0.0031  1.2806
16945TIP3   OH272325   3.584   1.511  15.820 -0.4019 -0.0820 -0.0667
16945TIP3    H172326   3.574   1.486  15.912 -0.2466  0.2537  0.0440
16945TIP3    H272327   3.577   1.606  15.821  0.5413 -0.0031 -0.2757
16946TIP3   OH272328   5.417   4.556  14.210 -0.1445 -0.5704  0.2444
16946TIP3    H172329   5.374   4.514  14.285  0.7958 -0.1127  1.0554
16946TIP3    H272330   5.504   4.580  14.241  0.2497 -0.3007 -0.9767
16947TIP3   OH272331   0.200   5.149  14.023  0.3858  0.4268 -0.1711
16947TIP3    H172332   0.116   5.111  13.995 -0.2274 -1.1839  3.3227
16947TIP3    H272333   0.258   5.074  14.034  2.0199  1.4344 -1.5314
16948TIP3   OH272334   1.650   5.356  13.112 -0.0973  0.1191 -0.0083
16948TIP3    H172335   1.705   5.347  13.035 -1.2765 -0.8704 -0.7827
16948TIP3    H272336   1.705   5.399  13.177  1.5523 -0.7762 -0.7624
16949TIP3   OH272337   2.484   4.288  13.352  0.1970 -0.7771 -0.3921
16949TIP3    H172338   2.415   4.270  13.288 -0.7982  2.0628 -0.2715
16949TIP3    H272339   2.442   4.271  13.437 -0.3672  0.8258 -0.3238
16950TIP3   OH272340   3.349   3.910   4.964 -0.8648  0.1777  0.6037
16950TIP3    H172341   3.359   3.909   4.869  0.0626 -1.1254  0.6880
16950TIP3    H272342   3.276   3.851   4.981  0.3648 -1.3532  0.7961
16951TIP3   OH272343   4.639   1.775  14.754 -0.5138  0.4892 -0.0744
16951TIP3    H172344   4.729   1.808  14.750 -0.1548 -0.5015 -0.5491
16951TIP3    H272345   4.587   1.850  14.781  0.3808  1.2238 -0.3441
16952TIP3   OH272346   0.580   0.912  12.985 -0.3810 -0.2578  0.0597
16952TIP3    H172347   0.502   0.857  12.994 -0.3753 -0.1368  1.0258
16952TIP3    H272348   0.653   0.850  12.986 -0.4602 -0.3750 -0.8987
16953TIP3   OH272349   6.451   0.296  16.826  0.3260 -0.1924 -0.3506
16953TIP3    H172350   6.545   0.296  16.809  0.9333  0.2537  2.4749
16953TIP3    H272351   6.424   0.386  16.813  0.5646 -0.0687 -0.0148
16954TIP3   OH272352   4.225   4.996   1.225  0.5462  0.5730  0.4309
16954TIP3    H172353   4.173   5.040   1.159  0.2043  0.2345  0.4678
16954TIP3    H272354   4.172   5.002   1.305 -0.5561 -1.7618 -0.0270
16955TIP3   OH272355   4.927   4.228  12.006 -0.1854  0.5149 -0.0183
16955TIP3    H172356   4.946   4.252  12.097 -0.4348  0.4695  0.0463
16955TIP3    H272357   4.942   4.308  11.957 -0.6322  0.7022  0.1439
16956TIP3   OH272358   6.376   1.441  15.055 -0.6566  0.2370 -0.3098
16956TIP3    H172359   6.365   1.346  15.048 -2.0395  0.3195  0.5815
16956TIP3    H272360   6.357   1.473  14.967  0.9135 -0.3710 -0.9185
16957TIP3   OH272361   5.516   0.283  16.902  0.1840 -0.0940 -0.0033
16957TIP3    H172362   5.581   0.328  16.955  0.0427  0.0362  0.0585
16957TIP3    H272363   5.517   0.330  16.818 -0.1009  0.1477  0.1267
16958TIP3   OH272364   3.052   5.028   5.084  0.2068 -0.3721  0.4726
16958TIP3    H172365   2.994   5.021   5.160 -0.6468 -0.5306 -0.1800
16958TIP3    H272366   3.060   4.939   5.051 -1.0835 -0.0632 -0.8102
16959TIP3   OH272367   2.730   1.694   2.489  0.1144  0.1990  0.3094
16959TIP3    H172368   2.704   1.702   2.581  0.8918 -0.6806  0.6294
16959TIP3    H272369   2.745   1.600   2.477  2.7356  0.5585  0.0733
16960TIP3   OH272370   3.411   0.264  14.856 -0.5412  0.5818 -0.4843
16960TIP3    H172371   3.473   0.191  14.862  0.6702  1.3290 -2.5168
16960TIP3    H272372   3.335   0.227  14.811 -1.7340 -0.3855  2.1739
16961TIP3   OH272373   1.388   3.264  13.821 -0.0706  0.7315 -0.3705
16961TIP3    H172374   1.323   3.330  13.797  0.1342  1.0050 -0.1799
16961TIP3    H272375   1.397   3.274  13.916  0.1388  0.5917 -0.3775
16962TIP3   OH272376   1.633   3.139   2.356 -0.1178 -0.0840  0.0756
16962TIP3    H172377   1.685   3.219   2.346  0.2156 -0.2854  0.1932
16962TIP3    H272378   1.545   3.164   2.325  0.0929  0.2037 -0.3063
16963TIP3   OH272379   5.209   3.796   6.547  0.0933 -0.0261  0.0949
16963TIP3    H172380   5.298   3.784   6.515  0.3447 -0.2374  0.8761
16963TIP3    H272381   5.191   3.889   6.532  0.4862  0.0433  0.0420
16964TIP3   OH272382   2.239   0.101  15.061 -0.4485  0.0969  0.0269
16964TIP3    H172383   2.221   0.010  15.038  1.0887 -0.2016 -0.0637
16964TIP3    H272384   2.331   0.102  15.086 -0.0229  1.8743 -1.3581
16965TIP3   OH272385   4.593   6.277  14.129  0.4834 -0.0835  0.3130
16965TIP3    H172386   4.602   6.243  14.218  1.2383  0.4175  0.4373
16965TIP3    H272387   4.548   6.361  14.141  0.7797  0.0854  0.2464
16966TIP3   OH272388   4.448   2.085  12.727 -0.4862 -0.2046  0.3687
16966TIP3    H172389   4.369   2.090  12.673  0.1366 -0.1529 -0.5598
16966TIP3    H272390   4.517   2.058  12.666  0.5571  1.3673  0.7910
16967TIP3   OH272391   5.401   4.617  12.951  0.5283 -0.3858  0.2766
16967TIP3    H172392   5.346   4.568  13.012 -0.2641 -0.2895 -0.3382
16967TIP3    H272393   5.400   4.707  12.985  1.7223 -0.7125  1.2255
16968TIP3   OH272394   3.476   2.467  16.672 -0.2005 -0.3126 -0.0434
16968TIP3    H172395   3.480   2.401  16.603 -2.0918 -1.1019  0.5456
16968TIP3    H272396   3.493   2.418  16.753 -0.1140  0.2134  0.2649
16969TIP3   OH272397   0.249   1.751   4.608  0.4801 -0.0082  0.2813
16969TIP3    H172398   0.244   1.758   4.703  2.5350  1.6738  0.3419
16969TIP3    H272399   0.183   1.813   4.576  0.5813  0.2819  0.6302
16970TIP3   OH272400   0.856   1.284   0.054 -0.1250 -0.7501 -0.2333
16970TIP3    H172401   0.830   1.215   0.116 -2.0707 -0.6479 -0.8690
16970TIP3    H272402   0.926   1.331   0.100 -0.8582 -1.2496  1.5117
16971TIP3   OH272403   0.611   1.443  16.361 -0.3661 -0.2419 -0.1199
16971TIP3    H172404   0.699   1.419  16.334  0.1731 -1.0606  2.1516
16971TIP3    H272405   0.622   1.523  16.412 -0.8886 -0.5290  0.4526
16972TIP3   OH272406   0.603   3.781   5.886  0.3730  0.1589  0.0025
16972TIP3    H172407   0.595   3.694   5.925 -0.1485 -0.0894 -0.6254
16972TIP3    H272408   0.573   3.841   5.954  0.2451 -0.1991  0.2658
16973TIP3   OH272409   3.642   5.046  17.655 -0.0238 -0.1977  0.3382
16973TIP3    H172410   3.557   5.001  17.661  0.6524 -1.5763  0.0802
16973TIP3    H272411   3.620   5.135  17.628 -1.4176 -0.4077  0.6815
16974TIP3   OH272412   3.104   0.311   2.205  0.4259 -0.4448  0.0914
16974TIP3    H172413   3.060   0.393   2.229 -1.0337 -1.1028 -0.2411
16974TIP3    H272414   3.197   0.333   2.207  0.0521  1.4456 -0.7594
16975TIP3   OH272415   5.847   4.014   4.101  0.0085  0.1246 -0.5266
16975TIP3    H172416   5.817   3.991   4.189  0.4698  0.9670 -0.1336
16975TIP3    H272417   5.767   4.022   4.049 -0.1728 -2.8393 -0.8471
16976TIP3   OH272418   6.678   4.096   5.870  0.5682 -0.2761  0.3328
16976TIP3    H172419   6.605   4.107   5.809 -1.0999 -0.8737  2.0975
16976TIP3    H272420   6.730   4.024   5.834  0.4284  0.3078 -1.0716
16977TIP3   OH272421   4.083   2.636   4.810 -0.5975 -0.1691 -0.6258
16977TIP3    H172422   4.144   2.695   4.856  0.3579 -1.4168 -0.2228
16977TIP3    H272423   4.015   2.617   4.875 -0.6414  0.0917 -0.5926
16978TIP3   OH272424   1.845   5.401   2.303  0.2429 -0.5644  0.1207
16978TIP3    H172425   1.752   5.421   2.306  0.5505  1.4617 -1.6215
16978TIP3    H272426   1.850   5.313   2.267 -0.9745  0.0148 -1.5394
16979TIP3   OH272427   3.059   6.532   0.232  0.3421  0.6300 -0.1666
16979TIP3    H172428   3.150   6.518   0.257  0.4505 -0.4214 -1.0705
16979TIP3    H272429   3.021   6.578   0.306  1.2442 -0.2069  0.8524
16980TIP3   OH272430   2.452   3.556  16.059  0.4660  0.2887 -0.7012
16980TIP3    H172431   2.454   3.639  16.012  0.9008 -0.6549 -2.4523
16980TIP3    H272432   2.521   3.563  16.125 -0.1873  1.6713 -0.1346
16981TIP3   OH272433   1.973   4.829   3.043  0.0749  0.1551 -0.4271
16981TIP3    H172434   1.925   4.858   3.120  1.6118  0.6580  0.3889
16981TIP3    H272435   1.908   4.783   2.989 -0.7358 -1.5467  1.8590
16982TIP3   OH272436   3.051   0.298  13.275 -0.1327  0.3819 -0.6307
16982TIP3    H172437   3.121   0.239  13.246 -0.6278 -0.4134 -0.2442
16982TIP3    H272438   3.046   0.285  13.369 -1.8489 -0.7673 -0.8439
16983TIP3   OH272439   4.621   0.658   4.149 -0.0788  0.0194 -0.2334
16983TIP3    H172440   4.705   0.615   4.166  1.6036  2.4315 -1.6279
16983TIP3    H272441   4.571   0.647   4.229  2.3986  0.1492  1.4465
16984TIP3   OH272442   4.529   2.242   3.654 -0.1714  0.3929 -0.0010
16984TIP3    H172443   4.511   2.316   3.596 -2.0029 -0.3204 -0.3980
16984TIP3    H272444   4.563   2.282   3.734 -2.1306  1.7974  0.2024
16985TIP3   OH272445   3.493   2.589   3.937 -0.6480 -0.3900 -0.4929
16985TIP3    H172446   3.430   2.535   3.985  0.2635 -1.1949 -0.1743
16985TIP3    H272447   3.551   2.526   3.895  1.1835  0.3077  0.8567
16986TIP3   OH272448   0.502   6.582   0.058 -0.5607  0.4596 -0.0752
16986TIP3    H172449   0.527   6.507   0.003  0.3626  0.5314  0.2349
16986TIP3    H272450   0.445   6.544   0.125 -0.8240  0.1863 -0.4548
16987TIP3   OH272451   2.135   2.984  13.357 -0.2149  0.1249  0.3925
16987TIP3    H172452   2.132   2.948  13.268  1.7467  0.9876 -0.0859
16987TIP3    H272453   2.167   3.073  13.345 -2.0857  1.0415  1.8064
16988TIP3   OH272454   2.774   1.526  16.500 -0.2737 -0.0709 -0.1951
16988TIP3    H172455   2.709   1.467  16.538 -0.9059  0.8199  0.1605
16988TIP3    H272456   2.754   1.527  16.406 -0.7972  0.2171 -0.0840
16989TIP3   OH272457   3.753   2.108  11.064  0.4487 -0.0770 -0.3156
16989TIP3    H172458   3.797   2.054  10.998 -1.1005 -0.2190 -1.2702
16989TIP3    H272459   3.715   2.046  11.125  0.6208  0.0176 -0.1092
16990TIP3   OH272460   2.580   2.006  16.939 -0.6365 -0.5742  0.2450
16990TIP3    H172461   2.637   2.020  16.863 -1.1036  2.3782  0.3291
16990TIP3    H272462   2.632   2.034  17.014 -1.9304  1.6881  0.3766
16991TIP3   OH272463   1.423   5.563   3.069 -0.0301 -0.1525  0.4573
16991TIP3    H172464   1.424   5.643   3.017 -2.9324  0.7763  1.6384
16991TIP3    H272465   1.433   5.492   3.004  0.5223  1.0555 -0.8298
16992TIP3   OH272466   2.360   4.376  10.890  0.1048 -0.4547  0.0483
16992TIP3    H172467   2.417   4.316  10.937  0.6428 -0.0244 -0.0477
16992TIP3    H272468   2.287   4.392  10.950  1.0285  0.4761  0.9641
16993TIP3   OH272469   3.117   6.564   0.839  0.1313  0.5749  0.1500
16993TIP3    H172470   3.069   6.549   0.920 -0.1111  0.9100  0.0696
16993TIP3    H272471   3.200   6.518   0.852 -0.8755 -1.5184 -0.3988
16994TIP3   OH272472   4.716   3.914  14.857 -0.0098 -0.0431 -0.1378
16994TIP3    H172473   4.790   3.853  14.852  0.3698  0.5034 -1.4578
16994TIP3    H272474   4.754   4.000  14.839 -0.4167  0.7407  2.3649
16995TIP3   OH272475   2.810   5.469  12.104 -0.4906 -0.2179 -0.0746
16995TIP3    H172476   2.885   5.412  12.087 -1.6332 -2.4379  1.7640
16995TIP3    H272477   2.829   5.509  12.189 -0.5234  0.7792 -0.5235
16996TIP3   OH272478   2.357   2.739  12.244  0.0506 -0.4467  0.2504
16996TIP3    H172479   2.410   2.755  12.166  1.8745  0.2536  1.5653
16996TIP3    H272480   2.408   2.675  12.295  0.1414  0.9312  1.9879
16997TIP3   OH272481   2.309   1.130  11.157 -0.2487  0.1110 -0.6778
16997TIP3    H172482   2.306   1.223  11.135 -0.3618  0.4134  0.5377
16997TIP3    H272483   2.304   1.085  11.072 -0.6607  1.1956 -1.2522
16998TIP3   OH272484   0.442   0.574  14.292 -0.4521 -0.0510 -0.3924
16998TIP3    H172485   0.423   0.664  14.263 -0.9213 -0.2538 -0.7362
16998TIP3    H272486   0.380   0.558  14.363  0.2087  0.1910  0.2447
16999TIP3   OH272487   4.117   0.506   1.690 -0.1505  0.5442 -0.1593
16999TIP3    H172488   4.042   0.451   1.667  1.0871 -1.5478  0.5032
16999TIP3    H272489   4.134   0.559   1.612 -0.5704 -1.0051 -1.3452
17000TIP3   OH272490   1.582   2.641  10.763 -0.3194  0.0292 -0.8569
17000TIP3    H172491   1.516   2.666  10.698 -0.6039 -1.2112 -1.0760
17000TIP3    H272492   1.577   2.546  10.766  1.4964 -0.0952 -0.9029
17001TIP3   OH272493   0.020   0.135   5.433  0.5859 -0.0882 -0.0568
17001TIP3    H172494  -0.062   0.133   5.384  0.0942  2.1191  0.5844
17001TIP3    H272495  -0.007   0.151   5.524  1.6718 -0.3196  0.3149
17002TIP3   OH272496   4.173   1.980   2.871  0.3302  0.1791 -0.3883
17002TIP3    H172497   4.138   1.891   2.868 -1.9102  1.0070 -1.5175
17002TIP3    H272498   4.221   1.990   2.789  0.3958  0.0936 -0.3608
17003TIP3   OH272499   4.220   1.120   5.155 -0.2345 -0.1761 -0.6627
17003TIP3    H172500   4.152   1.178   5.188 -1.1575 -0.7889 -1.4293
17003TIP3    H272501   4.241   1.063   5.229 -0.9190 -0.3056 -0.5668
17004TIP3   OH272502   6.723   2.404  16.269  0.1321  0.0230 -0.3534
17004TIP3    H172503   6.721   2.473  16.335 -1.6667 -1.7103  1.5742
17004TIP3    H272504   6.811   2.408  16.232  0.5854  2.2675  0.8303
17005TIP3   OH272505   2.258   3.219  16.987  0.2284 -0.3717 -0.2119
17005TIP3    H172506   2.340   3.269  16.976  0.4408 -0.3125  1.3476
17005TIP3    H272507   2.253   3.164  16.909  0.6450  1.1509 -1.3811
17006TIP3   OH272508   4.890   3.960  12.086 -0.4473 -0.2193  0.6983
17006TIP3    H172509   4.973   3.918  12.063 -1.0291 -0.9023 -0.2811
17006TIP3    H272510   4.905   4.053  12.072  0.4996 -0.1973  1.6970
17007TIP3   OH272511   6.084   6.547   2.117 -0.0175 -0.6562  0.2701
17007TIP3    H172512   6.176   6.532   2.135 -0.6546 -2.2951  2.4739
17007TIP3    H272513   6.072   6.516   2.027  1.0990 -2.8441  0.8049
17008TIP3   OH272514   2.896   0.558   4.461 -1.0461  0.0838 -0.3191
17008TIP3    H172515   2.919   0.478   4.509  0.9320  0.1767 -1.0139
17008TIP3    H272516   2.878   0.622   4.530  0.8743 -0.0295  0.3623
17009TIP3   OH272517   0.404   1.550  15.862  0.0809 -0.2374 -0.4395
17009TIP3    H172518   0.453   1.511  15.934 -1.7328 -1.4666  0.2085
17009TIP3    H272519   0.395   1.642  15.886  0.2715 -0.4469  0.4651
17010TIP3   OH272520   5.464   5.855   5.055  0.4876 -0.2836  0.3746
17010TIP3    H172521   5.385   5.875   5.005  2.5805  0.9124 -2.7345
17010TIP3    H272522   5.458   5.761   5.074 -3.1950  0.3165  3.3833
17011TIP3   OH272523   6.053   1.080   2.454 -0.1749  0.0557  0.5552
17011TIP3    H172524   5.981   1.022   2.428  0.3973 -1.0409  1.3018
17011TIP3    H272525   6.020   1.125   2.532 -0.5025  0.5073  0.1624
17012TIP3   OH272526   5.657   3.446   1.390  0.9239 -0.2653  0.0759
17012TIP3    H172527   5.693   3.534   1.401  0.0197  0.1948 -0.5608
17012TIP3    H272528   5.678   3.422   1.300  0.7495 -0.5147  0.1007
17013TIP3   OH272529   5.885   6.408  14.571  0.0548  0.4967 -0.1015
17013TIP3    H172530   5.816   6.353  14.608  0.0149 -1.3879 -2.6765
17013TIP3    H272531   5.958   6.400  14.633 -0.2463 -1.8653  0.0286
17014TIP3   OH272532   2.780   3.304  11.205  0.1907 -0.2055  0.0226
17014TIP3    H172533   2.829   3.314  11.286 -0.8947 -0.4559  0.7398
17014TIP3    H272534   2.831   3.242  11.153  2.4661  2.1713 -0.7998
17015TIP3   OH272535   5.484   3.160   6.069 -0.0440  0.5537  0.0525
17015TIP3    H172536   5.577   3.165   6.091  0.3564  0.5395 -1.5031
17015TIP3    H272537   5.465   3.066   6.070  0.1872  0.5003 -0.5035
17016TIP3   OH272538   5.122   2.072   1.283  0.1368  0.1663  0.4513
17016TIP3    H172539   5.150   2.161   1.261 -1.2691  0.5520  0.1511
17016TIP3    H272540   5.196   2.035   1.331  0.1042  2.0714  2.0908
17017TIP3   OH272541   0.202   4.410   2.327 -0.2403 -0.2965  0.0208
17017TIP3    H172542   0.224   4.439   2.238 -0.3159  1.7897  0.6188
17017TIP3    H272543   0.157   4.327   2.315  0.8139 -0.6580 -1.7952
17018TIP3   OH272544   6.713   0.273  11.307  0.4009  0.3377 -0.1522
17018TIP3    H172545   6.763   0.352  11.326 -0.5890  0.9241  0.0338
17018TIP3    H272546   6.717   0.264  11.212  1.5734 -0.1076 -0.0833
17019TIP3   OH272547   1.749   0.790  11.357 -0.0324 -0.4302 -0.0743
17019TIP3    H172548   1.671   0.839  11.329  0.9067  0.3349 -1.4456
17019TIP3    H272549   1.820   0.853  11.350  1.2824 -2.0193 -2.1721
17020TIP3   OH272550   3.064   6.312   5.912 -0.0923  0.1249  0.3503
17020TIP3    H172551   3.032   6.330   6.000 -2.4641 -0.3887 -0.3103
17020TIP3    H272552   3.080   6.218   5.910 -0.4968  0.0569  0.1191
17021TIP3   OH272553   5.935   2.425   6.734  0.4496 -0.3865  0.1954
17021TIP3    H172554   5.845   2.434   6.703  0.2900  0.3737  0.8286
17021TIP3    H272555   5.988   2.422   6.654 -0.0607  0.1251 -0.1748
17022TIP3   OH272556   4.403   1.377  14.728 -0.2533  0.3902  0.0627
17022TIP3    H172557   4.411   1.415  14.641  1.4132  0.8964  0.4062
17022TIP3    H272558   4.449   1.439  14.785 -1.2730  0.0422  1.3057
17023TIP3   OH272559   3.493   2.784  14.755  0.0842 -0.0937 -0.1916
17023TIP3    H172560   3.423   2.727  14.787  0.9440 -0.5848  0.9009
17023TIP3    H272561   3.571   2.728  14.756  0.7624  0.8229 -0.0328
17024TIP3   OH272562   5.442   4.939  12.888  0.8321 -0.2033  0.0457
17024TIP3    H172563   5.533   4.908  12.892  0.2341 -2.0869 -0.0867
17024TIP3    H272564   5.414   4.943  12.979  0.7755 -0.5153  0.0438
17025TIP3   OH272565   1.412   4.294   4.790  0.3537 -0.0561 -0.2584
17025TIP3    H172566   1.331   4.344   4.777 -0.0754 -0.8293 -0.6145
17025TIP3    H272567   1.481   4.360   4.787 -0.1926  0.5078 -0.8050
17026TIP3   OH272568   1.313   1.255  13.158  0.2114 -0.2570  0.3637
17026TIP3    H172569   1.252   1.292  13.095  0.8200  0.2270  0.0471
17026TIP3    H272570   1.263   1.187  13.203 -0.2924 -0.4754 -0.4978
17027TIP3   OH272571   5.938   4.507   1.724 -0.2390 -0.1758 -0.1238
17027TIP3    H172572   6.002   4.472   1.663  0.5047  1.3595 -0.2582
17027TIP3    H272573   5.918   4.595   1.691 -1.1144  0.0226  0.8796
17028TIP3   OH272574   2.017   3.818   1.433  0.3786  0.3080  0.2361
17028TIP3    H172575   2.032   3.855   1.347 -0.1639  0.7132  0.3082
17028TIP3    H272576   2.042   3.888   1.494 -2.6163  1.4173  0.3507
17029TIP3   OH272577   2.590   3.441  16.427 -0.3252 -0.4159  0.2747
17029TIP3    H172578   2.516   3.482  16.471 -0.8411 -0.4382 -0.5428
17029TIP3    H272579   2.663   3.448  16.489 -0.2398  2.2088 -0.0099
17030TIP3   OH272580   4.310   5.191   0.232 -0.0813 -0.1044 -0.0003
17030TIP3    H172581   4.356   5.112   0.204  0.5769  0.4976 -0.6683
17030TIP3    H272582   4.377   5.245   0.272 -0.6382 -0.1067  0.9708
17031TIP3   OH272583   6.294   5.991  15.661 -0.8745 -0.4488  0.4807
17031TIP3    H172584   6.385   5.966  15.674 -1.1299 -1.1801  0.9285
17031TIP3    H272585   6.244   5.919  15.700 -1.6388  0.0075  0.3548
17032TIP3   OH272586   4.908   5.609  16.917  0.0697 -0.7738 -0.1934
17032TIP3    H172587   4.882   5.661  16.841 -0.9886 -0.1423  0.5709
17032TIP3    H272588   4.941   5.527  16.880  1.0144  0.1066 -1.3918
17033TIP3   OH272589   5.922   0.888  14.072  1.0163 -0.4241 -0.0168
17033TIP3    H172590   5.898   0.925  14.157  0.8379 -1.5177  0.4340
17033TIP3    H272591   5.927   0.963  14.013  0.3623  0.2695  0.7847
17034TIP3   OH272592   6.652   3.887  16.825 -0.5220  0.1721 -0.1847
17034TIP3    H172593   6.614   3.811  16.868 -2.1724  0.8697 -0.3312
17034TIP3    H272594   6.598   3.901  16.747  1.9935 -0.6760 -2.2404
17035TIP3   OH272595   0.162   3.419  13.844  0.2888 -0.0798  0.2507
17035TIP3    H172596   0.181   3.482  13.775 -1.1395 -0.1194 -0.1958
17035TIP3    H272597   0.246   3.406  13.888  1.2825 -0.1861 -1.5795
17036TIP3   OH272598   4.582   4.335  16.494  0.0548 -0.8037 -0.2358
17036TIP3    H172599   4.676   4.340  16.481  0.0175  0.6320 -0.1323
17036TIP3    H272600   4.571   4.322  16.588  0.1565 -1.0229 -0.2560
17037TIP3   OH272601   2.133   4.936  11.856  0.3882 -0.0552 -0.4105
17037TIP3    H172602   2.135   5.030  11.841 -0.8949  0.2827  1.2707
17037TIP3    H272603   2.063   4.904  11.798  0.1647  0.1842 -0.2763
17038TIP3   OH272604   3.882   5.812   4.763 -0.3735  0.3907  0.1029
17038TIP3    H172605   3.861   5.862   4.684  0.5230  0.7417  0.0726
17038TIP3    H272606   3.951   5.864   4.806 -0.2393 -0.2435  0.6628
17039TIP3   OH272607   3.534   3.863  12.590  0.7333  0.4927 -0.1777
17039TIP3    H172608   3.579   3.887  12.672 -0.0765  0.7744  0.1971
17039TIP3    H272609   3.468   3.799  12.617  0.5836  0.4520 -0.6371
17040TIP3   OH272610   3.146   3.411  14.483 -0.1765 -0.0150 -0.1242
17040TIP3    H172611   3.101   3.494  14.493 -1.0175 -0.4181 -0.4605
17040TIP3    H272612   3.233   3.426  14.519 -0.0311  1.2562 -0.9430
17041TIP3   OH272613   5.533   2.977  17.077 -0.4713  0.1500  0.1573
17041TIP3    H172614   5.512   3.003  16.988 -0.5918  0.2377  0.2117
17041TIP3    H272615   5.465   2.913  17.100 -0.6767  0.4336  0.3324
17042TIP3   OH272616   6.126   6.104   6.259 -0.0749  0.2937  0.4178
17042TIP3    H172617   6.090   6.183   6.219 -2.3363  0.1824  2.0151
17042TIP3    H272618   6.164   6.134   6.342 -0.1400 -0.1429  0.6117
17043TIP3   OH272619   2.731   3.365  14.746  0.2185  0.7509  0.0045
17043TIP3    H172620   2.635   3.361  14.751  0.2249 -0.0519 -0.3405
17043TIP3    H272621   2.759   3.356  14.837 -0.0046 -0.8629 -0.0483
17044TIP3   OH272622   3.385   6.332   0.597 -0.2694 -0.0061 -0.9881
17044TIP3    H172623   3.341   6.417   0.601 -1.9700 -0.8932  0.1906
17044TIP3    H272624   3.314   6.268   0.599  1.0480 -1.4995  0.2236
17045TIP3   OH272625   1.751   1.567   3.846  0.0284 -0.1423  0.0602
17045TIP3    H172626   1.673   1.534   3.802 -1.5326  1.1379  1.6822
17045TIP3    H272627   1.720   1.593   3.933  2.0814  1.2080  0.4689
17046TIP3   OH272628   6.664   6.241   3.324  0.2904  0.1340  0.4112
17046TIP3    H172629   6.747   6.280   3.298  0.1893 -0.2846 -0.6035
17046TIP3    H272630   6.657   6.260   3.417  1.2078  0.7444  0.3739
17047TIP3   OH272631   4.898   4.795   2.235  0.3752 -0.4152  0.4207
17047TIP3    H172632   4.960   4.730   2.269  0.2101 -0.7152  0.1466
17047TIP3    H272633   4.861   4.755   2.157  2.0217  0.9296 -1.1718
17048TIP3   OH272634   6.390   3.662   4.034 -0.1437 -0.1860  0.0649
17048TIP3    H172635   6.426   3.580   4.068  1.0034 -0.0573 -0.8037
17048TIP3    H272636   6.443   3.731   4.073  0.0378  0.0473 -0.5738
17049TIP3   OH272637   3.460   0.465  14.372  0.8728 -0.1470  0.0384
17049TIP3    H172638   3.418   0.477  14.457  1.6900  0.1888  0.3996
17049TIP3    H272639   3.396   0.414  14.321  0.2632 -0.1126  0.7533
17050TIP3   OH272640   1.060   0.793  16.661  0.5631  0.3463 -0.3448
17050TIP3    H172641   0.966   0.786  16.673  0.6077  0.6163  0.2114
17050TIP3    H272642   1.081   0.883  16.687  0.9840  0.2579 -0.3645
17051TIP3   OH272643   0.558   5.433  15.098  0.5735  0.5278  0.4311
17051TIP3    H172644   0.522   5.518  15.120  0.5879  1.3425 -2.2602
17051TIP3    H272645   0.483   5.373  15.103  0.0415  1.1554  0.1719
17052TIP3   OH272646   3.397   0.701   3.160  0.3366  0.3157 -0.2518
17052TIP3    H172647   3.307   0.721   3.189 -0.3230 -2.1146 -0.4016
17052TIP3    H272648   3.411   0.759   3.085 -1.7498 -0.3419 -1.2373
17053TIP3   OH272649   4.580   1.803   0.942 -0.4154 -0.2391  0.2475
17053TIP3    H172650   4.508   1.835   0.887 -0.1298 -0.6891 -0.4075
17053TIP3    H272651   4.655   1.801   0.883  0.3042  0.9046  1.1182
17054TIP3   OH272652   1.242   0.951   3.233  0.6381 -0.0585 -0.1780
17054TIP3    H172653   1.194   0.930   3.153  2.0491  0.3090 -1.1668
17054TIP3    H272654   1.296   0.874   3.249  2.6773  1.0126 -1.4151
17055TIP3   OH272655   4.453   3.100  12.362 -0.3007  0.3180 -0.1884
17055TIP3    H172656   4.497   3.177  12.397  0.8927 -0.5626  0.2927
17055TIP3    H272657   4.393   3.073  12.431  2.5465 -1.8359  1.6395
17056TIP3   OH272658   1.909   2.356  15.808 -0.8732  0.1998 -0.0012
17056TIP3    H172659   1.831   2.399  15.771 -1.3839 -1.4130 -0.9109
17056TIP3    H272660   1.886   2.263  15.809  0.1207 -0.0749  2.0727
17057TIP3   OH272661   1.579   2.989  15.235 -0.1458 -0.1773  0.1160
17057TIP3    H172662   1.657   3.039  15.258 -1.7939  1.4576  2.5904
17057TIP3    H272663   1.534   3.043  15.170 -1.4860  1.2769  2.1486
17058TIP3   OH272664   6.430   6.716   0.763  0.3288 -0.8965  0.5561
17058TIP3    H172665   6.498   6.746   0.703 -2.3282  1.1603 -1.7272
17058TIP3    H272666   6.439   6.773   0.840  1.1924 -0.6949  0.3095
17059TIP3   OH272667   6.338   5.220   3.384  0.4548  0.1150 -0.2984
17059TIP3    H172668   6.300   5.245   3.300  0.9454  1.2551 -0.2116
17059TIP3    H272669   6.425   5.260   3.384  0.8938 -0.7950  0.3022
17060TIP3   OH272670   2.865   6.295   0.836  1.1744 -0.1162  0.1561
17060TIP3    H172671   2.776   6.266   0.855  1.4797 -0.2439  1.5330
17060TIP3    H272672   2.867   6.387   0.862  0.5541  0.9042 -3.0399
17061TIP3   OH272673   4.615   5.548   3.566 -0.2156  0.0818  0.0984
17061TIP3    H172674   4.627   5.591   3.651  0.5044 -2.1926  1.2169
17061TIP3    H272675   4.648   5.612   3.502 -2.4284  2.6020  1.2696
17062TIP3   OH272676   3.475   3.050  11.358 -0.5509  0.4866 -0.4750
17062TIP3    H172677   3.524   3.132  11.366 -1.0859  0.8730 -1.0696
17062TIP3    H272678   3.405   3.057  11.422  0.0091  0.0358  0.2067
17063TIP3   OH272679   0.618   0.995   6.460  0.8100  0.4151 -0.3534
17063TIP3    H172680   0.627   1.071   6.516 -0.3792  0.1454  0.2458
17063TIP3    H272681   0.603   0.922   6.520 -0.3277  0.0935 -0.9968
17064TIP3   OH272682   2.021   0.135  13.007  0.4482 -0.1431 -0.0708
17064TIP3    H172683   1.952   0.146  13.073 -0.0059 -1.0440 -0.3807
17064TIP3    H272684   2.090   0.088  13.053  0.5784  0.1750  0.0585
17065TIP3   OH272685   0.666   2.771   3.274  0.2837 -0.1136  0.1268
17065TIP3    H172686   0.594   2.734   3.324 -0.1072 -0.5435 -0.7318
17065TIP3    H272687   0.744   2.727   3.309  0.0714 -0.0549  0.6801
17066TIP3   OH272688   3.574   6.310   0.397 -0.0966  0.4111 -0.1475
17066TIP3    H172689   3.632   6.235   0.412 -1.2293 -0.4134  0.2894
17066TIP3    H272690   3.499   6.294   0.455 -0.5113  1.7217 -0.2902
17067TIP3   OH272691   2.160   5.459   5.529 -0.3902 -0.1253 -0.8845
17067TIP3    H172692   2.232   5.508   5.567 -0.8174  0.9588 -1.4136
17067TIP3    H272693   2.084   5.482   5.582 -0.2954 -1.6528 -0.0129
17068TIP3   OH272694   1.576   5.435  12.819  0.4076 -0.7940  0.7591
17068TIP3    H172695   1.507   5.502  12.823  1.2795  0.1265  0.8093
17068TIP3    H272696   1.631   5.454  12.895  1.3852 -0.7654  0.0537
17069TIP3   OH272697   4.638   6.154   0.993  0.5046  0.0392 -0.2758
17069TIP3    H172698   4.612   6.243   0.972  1.3220  0.2729 -0.3462
17069TIP3    H272699   4.728   6.147   0.960 -0.2172 -1.4507 -2.0675
17070TIP3   OH272700   3.223   2.908   6.539 -0.8033  0.0268  0.3693
17070TIP3    H172701   3.207   2.985   6.594 -0.7958  2.2565 -2.5214
17070TIP3    H272702   3.141   2.897   6.490  0.3818  0.5482 -1.8572
17071TIP3   OH272703   6.153   4.822   3.193  0.1320  0.0115 -0.3019
17071TIP3    H172704   6.133   4.902   3.144  0.0941 -0.7684 -1.6245
17071TIP3    H272705   6.100   4.828   3.272 -0.1218  1.1320 -0.5360
17072TIP3   OH272706   3.207   2.259   0.425  0.6545 -0.0449  0.6169
17072TIP3    H172707   3.260   2.285   0.500 -0.9584  4.0821  0.6182
17072TIP3    H272708   3.130   2.217   0.463  1.7460 -1.9226  0.8781
17073TIP3   OH272709   6.200   0.917  15.164  0.7758  0.4610  0.1249
17073TIP3    H172710   6.268   0.904  15.230  0.7664 -1.5374 -0.1726
17073TIP3    H272711   6.217   0.847  15.100 -1.4373  0.0197 -0.0468
17074TIP3   OH272712   4.684   2.287  13.325  0.1041  0.2155  0.3791
17074TIP3    H172713   4.706   2.366  13.374 -1.2887  0.1594  1.1582
17074TIP3    H272714   4.608   2.311  13.272  0.1319 -0.3987  0.0402
17075TIP3   OH272715   1.690   4.486   6.700  0.3025 -0.2828 -0.5214
17075TIP3    H172716   1.684   4.545   6.775  0.6685  0.3441 -0.9718
17075TIP3    H272717   1.748   4.531   6.639  0.5853 -1.1072 -0.8848
17076TIP3   OH272718   5.100   0.409   2.932 -0.3292 -0.4907 -0.5387
17076TIP3    H172719   5.120   0.374   2.845 -2.3822 -0.8134 -0.9400
17076TIP3    H272720   5.026   0.467   2.918  1.2794  1.9793  0.5579
17077TIP3   OH272721   0.685   0.318  16.794  0.2534  0.2458 -0.0853
17077TIP3    H172722   0.601   0.331  16.837 -0.0888  0.2029 -0.7196
17077TIP3    H272723   0.696   0.223  16.788 -0.1478  0.2445 -0.9228
17078TIP3   OH272724   1.324   3.338  16.973  0.1852 -0.5504 -0.0875
17078TIP3    H172725   1.257   3.275  16.999  0.9608 -1.3406  0.0565
17078TIP3    H272726   1.370   3.296  16.900  1.8091 -0.9520  1.0923
17079TIP3   OH272727   6.475   5.274  16.549 -0.6888  0.3237  0.1078
17079TIP3    H172728   6.393   5.231  16.576 -1.1193  1.4047  0.5891
17079TIP3    H272729   6.463   5.292  16.456 -0.8227  0.0915  0.0781
17080TIP3   OH272730   6.473   3.933   2.734  0.4668  0.1667  0.4042
17080TIP3    H172731   6.566   3.919   2.715  0.1094  0.2163 -1.6257
17080TIP3    H272732   6.430   3.918   2.650 -1.2873  0.9245  1.1386
17081TIP3   OH272733   3.228   3.261  15.583 -0.1687  0.0623 -0.0783
17081TIP3    H172734   3.164   3.253  15.512 -1.9286  0.0819  1.4446
17081TIP3    H272735   3.286   3.186  15.572  0.7387  1.0180 -2.5706
17082TIP3   OH272736   1.557   5.755   3.261 -0.6377 -0.1400 -0.8742
17082TIP3    H172737   1.567   5.697   3.336  0.9924 -1.0140 -1.6997
17082TIP3    H272738   1.532   5.697   3.189 -1.8569  0.6319 -1.0986
17083TIP3   OH272739   5.264   2.693   3.997 -0.3376  0.3994 -0.2050
17083TIP3    H172740   5.323   2.690   4.072  1.9113 -1.2362 -1.8751
17083TIP3    H272741   5.293   2.769   3.946  0.4288 -0.4395 -1.0590
17084TIP3   OH272742   2.461   5.911   4.048 -0.3320  0.5592  0.0135
17084TIP3    H172743   2.476   5.992   4.096  0.1616  0.5184 -0.0621
17084TIP3    H272744   2.430   5.849   4.114  0.2045  0.5428  0.2592
17085TIP3   OH272745   2.502   2.432   2.149 -0.4154 -0.6153 -0.4766
17085TIP3    H172746   2.521   2.346   2.186  0.6531 -0.1406  0.1159
17085TIP3    H272747   2.555   2.436   2.069 -1.2329 -0.8817 -1.0476
17086TIP3   OH272748   6.119   4.437   3.040 -0.1552 -0.0364  0.0402
17086TIP3    H172749   6.038   4.463   2.996 -1.0818 -0.9139  1.1510
17086TIP3    H272750   6.110   4.342   3.051  0.2516  0.0878  1.6571
17087TIP3   OH272751   4.209   5.072  14.560 -0.5071 -0.7741  0.7136
17087TIP3    H172752   4.247   5.007  14.501 -1.0416  0.1169 -0.6425
17087TIP3    H272753   4.184   5.021  14.638 -1.9018 -2.4207 -0.7353
17088TIP3   OH272754   4.182   3.477   6.685 -0.7644 -0.1246 -0.2369
17088TIP3    H172755   4.119   3.462   6.756  1.2082 -0.3453  1.5872
17088TIP3    H272756   4.227   3.393   6.675  1.1913  0.7537  0.5921
17089TIP3   OH272757   0.380   0.178   3.477 -0.3492 -0.1004  0.1940
17089TIP3    H172758   0.321   0.215   3.411  0.9461  0.7873 -0.5096
17089TIP3    H272759   0.336   0.098   3.506 -2.3560  1.0251  0.4336
17090TIP3   OH272760   2.602   3.630   5.259 -0.2028  0.2865 -0.6086
17090TIP3    H172761   2.684   3.621   5.306 -1.3350 -1.4443  1.2088
17090TIP3    H272762   2.623   3.609   5.168  1.3732  0.0118 -0.2034
17091TIP3   OH272763   6.247   0.812   0.993  0.3859  0.2060 -0.4055
17091TIP3    H172764   6.175   0.775   1.043  0.5641 -0.0952 -0.3660
17091TIP3    H272765   6.235   0.907   0.999  0.7622  0.1914  0.7311
17092TIP3   OH272766   0.407   4.852  12.988  0.2678 -0.0587  0.2014
17092TIP3    H172767   0.495   4.848  12.950  0.0030 -4.1589 -0.3982
17092TIP3    H272768   0.422   4.864  13.082  1.2548  1.9985 -0.1604
17093TIP3   OH272769   5.244   4.591  12.666  0.1277 -0.1376 -0.0299
17093TIP3    H172770   5.234   4.516  12.725  1.2860 -1.7053 -1.7349
17093TIP3    H272771   5.232   4.667  12.723  2.5624 -1.4931  2.5387
17094TIP3   OH272772   3.153   2.761  11.416  0.3082 -0.1576 -0.8672
17094TIP3    H172773   3.112   2.846  11.404  2.2791  0.8765 -0.6787
17094TIP3    H272774   3.101   2.701  11.361 -1.2733  1.0843 -0.7814
17095TIP3   OH272775   5.808   0.494   2.581  0.0241  0.1007 -0.3884
17095TIP3    H172776   5.864   0.493   2.659 -0.7752  0.8246  0.2069
17095TIP3    H272777   5.752   0.417   2.591 -0.1680  0.2663 -0.1761
17096TIP3   OH272778   4.360   5.576  13.471 -0.6088  0.7434 -0.6151
17096TIP3    H172779   4.360   5.527  13.553  3.1010  0.8450 -0.3900
17096TIP3    H272780   4.358   5.509  13.403 -1.6330  0.5902 -0.4556
17097TIP3   OH272781   0.312   0.379  12.985  0.0973  0.2485 -0.4671
17097TIP3    H172782   0.403   0.361  12.962 -0.3842 -1.8973 -0.8965
17097TIP3    H272783   0.313   0.398  13.078  0.7939 -1.4428 -0.1078
17098TIP3   OH272784   3.150   2.235  16.334 -1.0490  0.0279  0.2629
17098TIP3    H172785   3.100   2.315  16.319 -2.0124 -0.2294  1.8553
17098TIP3    H272786   3.242   2.263  16.324 -1.4010  1.1010 -0.1510
17099TIP3   OH272787   1.724   5.643  12.965 -0.5287 -0.5013 -0.5007
17099TIP3    H172788   1.700   5.700  13.038  0.9019  0.3910 -0.6880
17099TIP3    H272789   1.819   5.634  12.972 -0.5588 -1.6506 -1.3590
17100TIP3   OH272790   5.763   5.921   2.629  0.2372  0.3806  0.0484
17100TIP3    H172791   5.821   5.890   2.559 -0.2490 -0.1808 -0.1109
17100TIP3    H272792   5.723   5.842   2.664  0.0363  0.7130  0.5799
17101TIP3   OH272793   5.622   1.914   3.847 -0.7324 -0.3524 -0.1284
17101TIP3    H172794   5.695   1.913   3.908 -0.0599 -0.4401 -0.9286
17101TIP3    H272795   5.576   1.831   3.863  0.7731 -1.4642 -1.3205
17102TIP3   OH272796   0.144   2.703  15.466  0.3146  0.8731  0.4388
17102TIP3    H172797   0.121   2.691  15.559 -1.3216  1.7002  0.1859
17102TIP3    H272798   0.072   2.756  15.431  1.6601  1.8351 -0.9737
17103TIP3   OH272799   1.750   2.420  11.361 -0.5126  0.1803 -0.1265
17103TIP3    H172800   1.681   2.365  11.327 -1.9657  1.8470 -0.0329
17103TIP3    H272801   1.794   2.366  11.427 -1.8875 -0.8270  0.0001
17104TIP3   OH272802   1.049   1.144   2.542  0.3216  0.1350  0.0213
17104TIP3    H172803   0.980   1.096   2.497 -0.3408  1.2853 -0.2242
17104TIP3    H272804   1.107   1.076   2.577 -0.1644 -0.8097 -0.9642
17105TIP3   OH272805   4.335   1.708   2.788 -0.3314  0.4594  0.8281
17105TIP3    H172806   4.265   1.674   2.733  2.1544 -1.3951 -1.4462
17105TIP3    H272807   4.349   1.797   2.757 -0.3292  0.1256 -0.1597
17106TIP3   OH272808   0.855   3.725   4.633 -0.2714  0.9831  0.1057
17106TIP3    H172809   0.784   3.673   4.669 -0.0447  0.9513  0.5053
17106TIP3    H272810   0.925   3.662   4.617  0.1460  1.2264  0.9606
17107TIP3   OH272811   2.440   2.087   4.796  1.1328 -0.3739  0.0800
17107TIP3    H172812   2.451   2.174   4.834  1.6792  0.0288 -0.9783
17107TIP3    H272813   2.396   2.102   4.712  1.2578 -1.1151 -0.1290
17108TIP3   OH272814   3.685   4.159   4.271  0.3515  0.5106 -0.1350
17108TIP3    H172815   3.749   4.191   4.334 -0.5404  1.1030  0.4991
17108TIP3    H272816   3.636   4.092   4.318  2.2734 -2.0119 -1.4837
17109TIP3   OH272817   6.657   3.865   3.218  0.3774  0.1378 -0.4099
17109TIP3    H172818   6.608   3.902   3.145  0.1750  0.7622  0.0336
17109TIP3    H272819   6.631   3.773   3.220 -1.3688  0.6219  0.2789
17110TIP3   OH272820   3.406   2.740  10.910 -0.1954 -0.4048  0.2047
17110TIP3    H172821   3.422   2.794  10.988  0.3233  0.6765 -0.6155
17110TIP3    H272822   3.489   2.696  10.894  0.1264  0.4050 -0.4742
17111TIP3   OH272823   3.360   1.061   4.735 -0.1886  0.2662 -0.3771
17111TIP3    H172824   3.405   1.077   4.652  1.3248  1.1687  0.5881
17111TIP3    H272825   3.329   0.970   4.728  2.3374 -0.6449 -0.8483
17112TIP3   OH272826   6.250   3.321   4.668  0.0743  0.3197  0.6749
17112TIP3    H172827   6.208   3.394   4.624  1.1256  0.9394  0.6769
17112TIP3    H272828   6.181   3.283   4.723 -0.7371  0.6848 -0.0719
17113TIP3   OH272829   1.226   0.989  16.115 -0.5258  0.4195 -0.1358
17113TIP3    H172830   1.313   1.018  16.088  0.3559 -0.4430  1.5769
17113TIP3    H272831   1.190   0.946  16.037  0.8086  0.3068 -0.7262
17114TIP3   OH272832   5.078   5.239   4.816 -0.2884  0.2161  0.1036
17114TIP3    H172833   5.063   5.149   4.787  1.2413  0.0706 -0.3067
17114TIP3    H272834   5.027   5.246   4.897  0.3507 -1.3404  0.6937
17115TIP3   OH272835   5.690   3.749   4.037  0.6259  0.1368 -0.8592
17115TIP3    H172836   5.677   3.659   4.006 -1.2261  0.0946 -0.0745
17115TIP3    H272837   5.681   3.742   4.133 -0.0434  1.2178 -0.8267
17116TIP3   OH272838   4.415   0.868  15.825 -0.6083  0.3808 -0.0543
17116TIP3    H172839   4.335   0.883  15.776  0.1452  2.4412 -0.7286
17116TIP3    H272840   4.430   0.773  15.817 -1.6051  0.3442 -2.0467
17117TIP3   OH272841   5.974   1.592  16.935 -0.3888  0.1916 -0.3973
17117TIP3    H172842   5.926   1.663  16.891 -0.0920 -0.7004 -2.2772
17117TIP3    H272843   5.936   1.512  16.899  1.4485 -0.5554 -0.7848
17118TIP3   OH272844   2.214   3.072  15.603 -0.2673  0.0975  0.1043
17118TIP3    H172845   2.128   3.095  15.636 -0.4905 -2.5635  1.7370
17118TIP3    H272846   2.205   2.981  15.575  2.3208 -0.8327  1.8594
17119TIP3   OH272847   5.097   4.070  11.861  0.0071 -0.4063  0.1172
17119TIP3    H172848   5.048   4.112  11.931 -0.8114  0.3876 -0.8935
17119TIP3    H272849   5.186   4.104  11.870  0.1300 -1.0183  1.3070
17120TIP3   OH272850   0.385   1.642  14.792 -0.7590  0.4304  0.3818
17120TIP3    H172851   0.450   1.632  14.722 -1.8594 -1.5376 -0.4327
17120TIP3    H272852   0.302   1.616  14.752 -1.3258 -1.5292  2.5804
17121TIP3   OH272853   2.098   2.870  14.176 -1.3117 -0.1034  0.3251
17121TIP3    H172854   2.044   2.836  14.248 -0.1558 -0.6900  0.9520
17121TIP3    H272855   2.110   2.795  14.118 -0.3741 -0.2545  0.7008
17122TIP3   OH272856   1.464   4.321   4.005  0.1966  0.1729  0.0896
17122TIP3    H172857   1.484   4.231   3.976  0.5957  0.1829  0.3348
17122TIP3    H272858   1.371   4.332   3.985  1.1094  1.4250 -4.6312
17123TIP3   OH272859   4.649   3.584   3.054  0.2844 -0.3031  0.0174
17123TIP3    H172860   4.728   3.580   3.000  1.7912 -1.1499  2.1461
17123TIP3    H272861   4.631   3.493   3.077 -0.3848  0.0203  0.8259
17124TIP3   OH272862   0.630   2.647  16.783 -0.5915 -0.1995 -0.6324
17124TIP3    H172863   0.718   2.684  16.793  0.0665 -1.3505 -1.8368
17124TIP3    H272864   0.577   2.720  16.752  0.4534  0.0518 -1.9800
17125TIP3   OH272865   1.727   0.013  14.963 -0.3691  0.0481 -0.6039
17125TIP3    H172866   1.649  -0.035  14.933 -0.3942 -0.7628  0.7105
17125TIP3    H272867   1.748   0.071  14.889 -2.3873  0.5012 -0.8945
17126TIP3   OH272868   2.105   1.102  15.485 -0.0945 -0.8837  0.3132
17126TIP3    H172869   2.060   1.018  15.492  0.2103 -1.2199 -1.3758
17126TIP3    H272870   2.188   1.089  15.531 -0.2506 -1.3513  0.4686
17127TIP3   OH272871   6.385   6.081  14.090  0.1738  0.4150 -0.3503
17127TIP3    H172872   6.313   6.144  14.089 -0.7522 -0.6090 -1.7537
17127TIP3    H272873   6.399   6.059  13.998  0.7779 -1.0851  0.0683
17128TIP3   OH272874   1.368   0.130  11.194  0.4781 -0.2809 -0.5089
17128TIP3    H172875   1.439   0.102  11.137 -0.0991  0.1276 -1.4466
17128TIP3    H272876   1.360   0.224  11.177  1.1785  0.1398  1.2349
17129TIP3   OH272877   1.623   5.733   0.224 -0.3965 -0.1844 -0.7240
17129TIP3    H172878   1.577   5.665   0.272 -3.1678  0.8721 -1.7256
17129TIP3    H272879   1.600   5.719   0.133 -1.3843  2.2662 -0.9239
17130TIP3   OH272880   5.318   0.114  12.540  0.2991  0.6309  0.2521
17130TIP3    H172881   5.371   0.118  12.460  0.1481  0.4479  0.1442
17130TIP3    H272882   5.376   0.148  12.608  1.0252 -0.7801  0.3785
17131TIP3   OH272883   5.539   4.315   6.224 -0.1139  0.0790  0.1166
17131TIP3    H172884   5.503   4.269   6.148 -0.5094 -0.5117  0.6494
17131TIP3    H272885   5.472   4.379   6.247  0.4633  0.9802 -0.6610
17132TIP3   OH272886   5.032   1.815   3.343 -0.1001 -0.3278  0.1995
17132TIP3    H172887   5.005   1.814   3.251 -0.9628 -0.2232  0.4474
17132TIP3    H272888   4.954   1.792   3.392  0.3506 -0.3698  0.9164
17133TIP3   OH272889   5.563   2.696   3.435 -0.3684  0.3054  0.0290
17133TIP3    H172890   5.537   2.640   3.361  0.4262 -0.4409  0.2958
17133TIP3    H272891   5.538   2.647   3.513  0.1596  0.3943  0.2649
17134TIP3   OH272892   4.075   4.152  11.309  0.5405  0.2939 -0.4312
17134TIP3    H172893   4.110   4.069  11.340  2.3483  0.7557 -1.1076
17134TIP3    H272894   4.129   4.219  11.353  0.1222  1.0568 -1.0442
17135TIP3   OH272895   5.360   6.127   3.915  0.2336  0.2365 -0.5752
17135TIP3    H172896   5.333   6.044   3.876  0.5905 -0.2024  0.0841
17135TIP3    H272897   5.434   6.103   3.972  0.9092  1.1477 -1.0576
17136TIP3   OH272898   4.663   5.342   5.155  0.0751 -0.0185 -0.6240
17136TIP3    H172899   4.578   5.370   5.120 -0.6130  0.1280  1.0945
17136TIP3    H272900   4.679   5.401   5.229  0.7222 -1.3368  0.3105
17137TIP3   OH272901   5.976   3.801   1.331 -0.1674 -0.6753  0.2317
17137TIP3    H172902   5.997   3.894   1.344 -1.4114 -0.2645 -0.4561
17137TIP3    H272903   5.989   3.761   1.417 -0.3607  0.3042  0.7324
17138TIP3   OH272904   3.522   3.046  13.692 -0.2078  0.0808 -0.5765
17138TIP3    H172905   3.503   3.138  13.676 -1.5875 -0.2496 -0.9891
17138TIP3    H272906   3.612   3.045  13.726  0.9761  1.3070 -3.3612
17139TIP3   OH272907   1.293   3.216  14.742 -0.3767  0.3115 -0.2389
17139TIP3    H172908   1.327   3.127  14.740  3.2794  1.5119  0.5083
17139TIP3    H272909   1.213   3.210  14.794  0.4665 -2.3506  0.9323
17140TIP3   OH272910   5.523   2.268   4.138  0.4331 -0.8755  0.6647
17140TIP3    H172911   5.474   2.344   4.107  1.5008 -0.3629  0.1476
17140TIP3    H272912   5.457   2.209   4.174 -0.4436  0.1788  0.8274
17141TIP3   OH272913   2.253   4.639  12.825  0.2261  0.5188  0.0643
17141TIP3    H172914   2.289   4.698  12.759 -1.8759  2.2375  0.3087
17141TIP3    H272915   2.327   4.585  12.853  1.7232  1.4392 -1.8750
17142TIP3   OH272916   4.575   2.392  14.408  0.0481 -1.1924  0.2002
17142TIP3    H172917   4.595   2.471  14.358 -2.1704  0.2214  1.3480
17142TIP3    H272918   4.524   2.338  14.348 -0.2883 -0.7406  0.0755
17143TIP3   OH272919   3.060   4.041   1.931 -0.4208  0.6009 -0.1540
17143TIP3    H172920   3.029   3.950   1.932  1.5027 -0.1105 -0.8265
17143TIP3    H272921   2.982   4.093   1.951 -1.1555 -1.2943  2.6406
17144TIP3   OH272922   1.760   5.096  15.171  0.0698 -0.4358 -0.2216
17144TIP3    H172923   1.750   5.130  15.259 -0.6358 -1.5064  0.1358
17144TIP3    H272924   1.839   5.138  15.137 -0.6652  1.3857  0.2282
17145TIP3   OH272925   3.119   5.959   2.661  0.1834  0.1916  0.1845
17145TIP3    H172926   3.193   6.005   2.621  0.2812  0.3125  0.5034
17145TIP3    H272927   3.151   5.934   2.748  0.5509 -1.5028 -0.3989
17146TIP3   OH272928   6.161   5.473   1.322  0.4286  0.0878 -0.0435
17146TIP3    H172929   6.233   5.529   1.352 -0.1787  1.2901 -0.7656
17146TIP3    H272930   6.119   5.443   1.403  1.0407  0.3219  0.3674
17147TIP3   OH272931   4.718   0.466  14.873 -0.2727  0.7882  0.1170
17147TIP3    H172932   4.629   0.451  14.906 -0.8300  2.2463 -0.6408
17147TIP3    H272933   4.737   0.391  14.818 -1.2518  0.7206 -0.1387
17148TIP3   OH272934   4.726   4.747  15.105  0.1149 -0.4680  0.3160
17148TIP3    H172935   4.713   4.700  15.023 -1.2779  1.0104 -0.3604
17148TIP3    H272936   4.657   4.813  15.107  1.4087  0.9557  1.6435
17149TIP3   OH272937   2.852   5.058   5.691  0.2912 -0.3980 -0.6728
17149TIP3    H172938   2.947   5.067   5.697  0.0753  1.7571  3.4065
17149TIP3    H272939   2.822   5.144   5.661 -0.3669 -0.0795  0.7735
17150TIP3   OH272940   0.785   4.344  12.762 -0.0036 -0.9780  0.2509
17150TIP3    H172941   0.780   4.288  12.684 -1.4438 -0.0474 -0.3610
17150TIP3    H272942   0.695   4.370  12.779  0.5519  0.7458  0.8065
17151TIP3   OH272943   6.456   0.569   1.773 -0.4420  0.2175  0.0340
17151TIP3    H172944   6.363   0.573   1.796 -0.9718 -1.2407 -1.6175
17151TIP3    H272945   6.457   0.552   1.679  1.5449  1.6370 -0.2771
17152TIP3   OH272946   2.634   6.398  16.627  0.6497  0.0992  0.8123
17152TIP3    H172947   2.726   6.419  16.643  1.1992 -2.1845  1.0770
17152TIP3    H272948   2.600   6.374  16.713  0.4960 -1.3533  0.3773
17153TIP3   OH272949   6.544   0.154  11.542 -0.7344 -0.1718  0.2324
17153TIP3    H172950   6.595   0.202  11.476 -0.4056  2.1907  2.0788
17153TIP3    H272951   6.486   0.097  11.491  0.5321  0.4375 -2.0323
17154TIP3   OH272952   1.855   3.874  13.411  0.3217 -0.0093 -0.9617
17154TIP3    H172953   1.944   3.840  13.414  0.2047 -0.2683 -0.1737
17154TIP3    H272954   1.802   3.806  13.453  0.1305  1.2642  1.0381
17155TIP3   OH272955   6.490   3.579  16.141 -0.2273 -0.0631  0.3673
17155TIP3    H172956   6.535   3.625  16.212  1.6628  2.1495 -2.0786
17155TIP3    H272957   6.420   3.639  16.114 -0.3506 -0.4703 -0.2334
17156TIP3   OH272958   3.902   1.115  13.365 -0.2431  0.0606  0.8933
17156TIP3    H172959   3.919   1.050  13.297 -0.6269 -1.5389  2.2554
17156TIP3    H272960   3.836   1.073  13.421 -1.0162  1.9244  1.4429
17157TIP3   OH272961   6.469   1.333   3.801  0.0587  0.1816 -0.3726
17157TIP3    H172962   6.436   1.373   3.881 -2.5848 -0.3471 -1.0968
17157TIP3    H272963   6.480   1.240   3.823 -0.7178  0.0271 -0.6249
17158TIP3   OH272964   0.171   1.326   4.949 -0.1649 -0.6914  0.0583
17158TIP3    H172965   0.146   1.387   4.880 -1.3921  0.1171  1.1774
17158TIP3    H272966   0.185   1.243   4.904  0.1617  0.0740 -1.3017
17159TIP3   OH272967   5.694   3.235  15.848 -0.0519  0.0910 -0.1524
17159TIP3    H172968   5.605   3.243  15.816  0.0710  0.8819 -0.3066
17159TIP3    H272969   5.701   3.144  15.876 -0.5539 -0.2767 -1.1734
17160TIP3   OH272970   5.266   5.200   3.774  0.3042  0.3294  0.1999
17160TIP3    H172971   5.240   5.248   3.853 -0.1481  1.0303 -0.3522
17160TIP3    H272972   5.330   5.257   3.731 -0.4724  0.6161 -0.6245
17161TIP3   OH272973   6.171   0.643  12.033 -0.2307 -0.2195  0.3282
17161TIP3    H172974   6.194   0.644  11.940 -0.3594  0.6749  0.2997
17161TIP3    H272975   6.185   0.552  12.060 -0.7324 -0.6121 -0.6956
17162TIP3   OH272976   1.561   5.934  11.869 -0.1471  0.5049  0.2983
17162TIP3    H172977   1.617   5.962  11.942  0.7106 -0.6626  0.1248
17162TIP3    H272978   1.590   5.987  11.795 -1.1006  1.7824  0.7943
17163TIP3   OH272979   4.433   4.259   5.519 -0.4488 -0.3222 -0.7127
17163TIP3    H172980   4.378   4.215   5.453  0.7641  1.3125 -2.9668
17163TIP3    H272981   4.521   4.256   5.482  0.1274  1.4934  0.3894
17164TIP3   OH272982   5.254   0.478   5.154  0.1409 -0.6324 -0.1661
17164TIP3    H172983   5.239   0.458   5.062 -1.1675  1.9699 -0.6286
17164TIP3    H272984   5.274   0.572   5.154 -1.8642 -0.0925  2.3356
17165TIP3   OH272985   3.614   5.935   5.752 -0.7734  0.0991  0.3697
17165TIP3    H172986   3.550   5.936   5.680  0.2265  1.6525 -0.5502
17165TIP3    H272987   3.678   5.868   5.727 -2.6478 -2.4797  1.9583
17166TIP3   OH272988   0.336   2.875   2.923  0.2663  0.3320  0.4007
17166TIP3    H172989   0.411   2.909   2.972  0.3987  1.9604 -0.8710
17166TIP3    H272990   0.369   2.794   2.884  1.0903  0.5707  0.5653
17167TIP3   OH272991   2.940   3.182   1.951  0.1304 -0.5053  0.0172
17167TIP3    H172992   2.976   3.161   1.865  0.5999 -2.2575  0.5920
17167TIP3    H272993   2.952   3.277   1.960  0.4194 -0.3541 -1.6708
17168TIP3   OH272994   2.493   4.678   0.043 -0.0648  0.4730 -0.0670
17168TIP3    H172995   2.584   4.704   0.043  0.3816 -0.9708 -0.1243
17168TIP3    H272996   2.444   4.756   0.018  0.8027  2.3279  3.3876
17169TIP3   OH272997   6.539   0.632   5.403  0.2539 -0.3905 -0.1339
17169TIP3    H172998   6.630   0.633   5.435 -0.1286  1.4698  1.0674
17169TIP3    H272999   6.519   0.724   5.387 -1.9386 -0.5912  1.1879
17170TIP3   OH273000   2.777   1.338  14.978 -0.2354 -0.0654  0.1398
17170TIP3    H173001   2.755   1.386  14.898 -0.6927  0.5640  0.6275
17170TIP3    H273002   2.693   1.328  15.023  0.0124 -0.4370  0.5234
17171TIP3   OH273003   1.602   1.630   6.106 -0.1469 -0.1761  0.1639
17171TIP3    H173004   1.697   1.636   6.111 -0.2259  1.0618  0.5046
17171TIP3    H273005   1.583   1.536   6.106  1.1470 -0.4826 -1.5953
17172TIP3   OH273006   1.356   2.489   1.601 -0.1693 -0.4731 -0.7389
17172TIP3    H173007   1.363   2.571   1.553 -1.9085  0.3369  0.2971
17172TIP3    H273008   1.351   2.515   1.693  0.4268 -1.8233 -0.2996
17173TIP3   OH273009   6.691   1.525   2.972  0.4594 -0.3541 -0.1698
17173TIP3    H173010   6.657   1.542   3.060  0.9544 -1.3788  0.2309
17173TIP3    H273011   6.715   1.432   2.973  0.6705 -0.3197 -1.3196
17174TIP3   OH273012   3.871   4.869   5.648  0.3611  0.5462  0.1103
17174TIP3    H173013   3.785   4.908   5.636  0.8022  2.3508  2.1825
17174TIP3    H273014   3.932   4.939   5.626  1.2204  0.3604  1.7832
17175TIP3   OH273015   3.502   6.672  14.065 -0.0982 -0.2304  0.0310
17175TIP3    H173016   3.464   6.589  14.094  1.7690 -1.1945 -0.1440
17175TIP3    H273017   3.478   6.679  13.973 -2.0183  0.5006  0.5373
17176TIP3   OH273018   2.914   2.553   4.913  0.1723  0.0996  0.2122
17176TIP3    H173019   2.909   2.633   4.860 -1.5430  0.1645  0.3973
17176TIP3    H273020   3.007   2.535   4.920  0.5010  0.3627 -2.4207
17177TIP3   OH273021   2.873   4.729   5.435  0.0651  0.8878 -0.4579
17177TIP3    H173022   2.876   4.747   5.529 -2.3644 -0.5536 -0.0071
17177TIP3    H273023   2.810   4.657   5.426 -0.4718  1.5639 -3.2791
17178TIP3   OH273024   1.159   5.570  12.257 -0.1005  0.1459  0.1211
17178TIP3    H173025   1.172   5.598  12.166 -0.5766 -0.9671 -0.3050
17178TIP3    H273026   1.205   5.486  12.262 -2.0298 -0.9420  0.2477
17179TIP3   OH273027   5.257   2.123   3.241  0.1616 -0.1545 -0.0252
17179TIP3    H173028   5.291   2.033   3.242  0.7101 -0.0024  2.7610
17179TIP3    H273029   5.335   2.177   3.252 -0.3416  0.5547  0.0971
17180TIP3   OH273030   4.254   4.895   1.568 -0.2933 -0.3225  0.5058
17180TIP3    H173031   4.251   4.824   1.503 -1.2010 -0.0548  0.2501
17180TIP3    H273032   4.342   4.932   1.557  0.4712 -1.8551  1.1439
17181TIP3   OH273033   3.020   0.545  12.574 -0.4407  0.2448  0.4134
17181TIP3    H173034   3.059   0.623  12.613 -1.3894  0.3743  1.1419
17181TIP3    H273035   2.926   0.557  12.586 -0.8083  0.3687 -2.0543
17182TIP3   OH273036   0.707   5.806  14.921 -0.0071 -0.4615 -0.2471
17182TIP3    H173037   0.617   5.837  14.918  0.4029  1.1949  1.9417
17182TIP3    H273038   0.733   5.814  15.013  2.3814 -0.8404 -0.7986
17183TIP3   OH273039   5.099   2.275  15.301  0.3774  0.2838  0.2217
17183TIP3    H173040   5.066   2.282  15.212  1.7237 -2.1319 -0.5581
17183TIP3    H273041   5.040   2.329  15.353  0.3623  2.8805 -2.2893
17184TIP3   OH273042   6.522   5.243   4.624 -0.1677  0.0564 -0.2516
17184TIP3    H173043   6.557   5.163   4.664 -0.4981 -1.1048 -2.1621
17184TIP3    H273044   6.511   5.220   4.532 -2.6521  1.4985 -0.3943
17185TIP3   OH273045   0.936   3.530   0.544 -0.1219 -0.2671  0.2559
17185TIP3    H173046   0.843   3.540   0.563 -0.5077 -1.7169 -0.7297
17185TIP3    H273047   0.970   3.478   0.617 -0.1080  0.0694  0.4968
17186TIP3   OH273048   0.371   2.073  14.237 -0.1183  0.8213 -0.0155
17186TIP3    H173049   0.458   2.106  14.212  0.5744  0.3827  1.6832
17186TIP3    H273050   0.380   2.049  14.329 -1.8303 -0.0194 -0.0303
17187TIP3   OH273051   5.905   4.303   2.047  0.5682 -0.0460 -0.4910
17187TIP3    H173052   5.891   4.267   1.959  0.4186  0.4540 -0.6778
17187TIP3    H273053   5.824   4.351   2.066  0.8797  0.4408 -0.3747
17188TIP3   OH273054   2.953   2.350   4.430 -0.3965  0.2448  0.4658
17188TIP3    H173055   3.002   2.403   4.493  0.1104 -0.5541  0.7666
17188TIP3    H273056   2.969   2.392   4.346 -0.1794  0.6933  0.7267
17189TIP3   OH273057   4.187   1.467   0.490  0.3468  0.2830  0.1116
17189TIP3    H173058   4.128   1.461   0.415  0.2864  0.7890  0.1153
17189TIP3    H273059   4.142   1.421   0.561  0.7584 -0.8998 -0.3767
17190TIP3   OH273060   4.971   6.446  12.583 -0.4118  0.3178  0.2714
17190TIP3    H173061   4.987   6.535  12.613 -1.4999  0.6504 -0.0757
17190TIP3    H273062   5.053   6.400  12.598 -0.2505  1.0240  1.7177
17191TIP3   OH273063   3.380   2.607   0.403 -0.1772  0.6618  0.5897
17191TIP3    H173064   3.440   2.568   0.466  0.9922 -0.2880 -1.0479
17191TIP3    H273065   3.434   2.666   0.351 -0.9160  0.7217 -0.1304
17192TIP3   OH273066   4.044   0.618   6.062  0.1165  0.1184 -0.7163
17192TIP3    H173067   4.079   0.537   6.101  0.3624  0.8247  0.6004
17192TIP3    H273068   4.061   0.685   6.128 -2.8119  0.6953 -0.4219
17193TIP3   OH273069   1.584   1.359  16.880 -0.5070 -0.1143  0.4465
17193TIP3    H173070   1.488   1.370  16.879 -0.5719 -0.5813 -1.7349
17193TIP3    H273071   1.617   1.440  16.841  0.1108  0.5453  2.2154
17194TIP3   OH273072   2.705   4.383  17.016 -0.1073 -0.7646  0.7176
17194TIP3    H173073   2.736   4.473  17.028  0.8143 -1.0984  0.9425
17194TIP3    H273074   2.749   4.353  16.936 -3.5206  0.2950 -1.7556
17195TIP3   OH273075   1.026   4.510  12.092 -0.1325 -0.2303 -0.0772
17195TIP3    H173076   0.972   4.462  12.154  1.2868 -3.8089 -1.3451
17195TIP3    H273077   1.115   4.478  12.108  0.6431  0.6315 -2.2813
17196TIP3   OH273078   3.948   1.511   1.951  0.2192  0.1008  0.6394
17196TIP3    H173079   3.858   1.526   1.979 -0.4607 -3.1850  0.6809
17196TIP3    H273080   3.992   1.477   2.029  0.9614 -0.1299  0.1313
17197TIP3   OH273081   5.535   0.036  13.576  0.3585  0.5061  0.0196
17197TIP3    H173082   5.457   0.018  13.629  0.1167 -1.8588 -1.0026
17197TIP3    H273083   5.588  -0.044  13.584  2.2748  1.7038 -0.0411
17198TIP3   OH273084   2.114   2.303   1.028 -0.5080  0.6569  0.3157
17198TIP3    H173085   2.199   2.330   1.064  0.6807 -1.6384 -0.5517
17198TIP3    H273086   2.055   2.303   1.104  0.7551  0.4868  1.3384
17199TIP3   OH273087   5.087   3.399   3.649 -0.0743 -0.3066 -0.4326
17199TIP3    H173088   5.052   3.456   3.580  0.7210  0.5955 -0.1199
17199TIP3    H273089   5.037   3.424   3.728 -2.6124 -2.9182 -1.0461
17200TIP3   OH273090   6.061   3.343  16.418  0.0552  0.1481 -0.6591
17200TIP3    H173091   6.134   3.369  16.362  0.6477 -0.3176 -0.1222
17200TIP3    H273092   5.983   3.373  16.371  0.6430  1.9687 -0.5410
17201TIP3   OH273093   5.357   4.082  14.231  0.2740  0.3178 -0.4159
17201TIP3    H173094   5.430   4.104  14.288  0.7949  1.8979 -1.6130
17201TIP3    H273095   5.318   4.004  14.271  1.0890  0.8789  1.6131
17202TIP3   OH273096   4.829   5.955   0.385 -0.7151 -0.1636  0.3173
17202TIP3    H173097   4.870   6.032   0.344  2.7321 -2.7732 -1.7237
17202TIP3    H273098   4.763   5.928   0.322 -2.0836  1.1199  1.1354
17203TIP3   OH273099   3.294   2.754   3.720 -0.3072 -0.0735  0.0813
17203TIP3    H173100   3.275   2.809   3.796  0.7624  1.9926 -1.0487
17203TIP3    H273101   3.387   2.769   3.702 -0.0983 -1.9268 -0.5833
17204TIP3   OH273102   0.608   0.513  13.219 -0.4225 -0.6046  0.0805
17204TIP3    H173103   0.522   0.555  13.215 -0.2218  0.0040  1.7441
17204TIP3    H273104   0.606   0.460  13.298  0.4904 -1.1845 -0.2590
17205TIP3   OH273105   5.476   0.601   6.113 -0.1757  0.0556 -0.5933
17205TIP3    H173106   5.450   0.508   6.111 -1.1069  0.1095  2.7748
17205TIP3    H273107   5.409   0.645   6.060 -1.5062 -0.9061  0.2051
17206TIP3   OH273108   4.361   0.986   3.637  0.7423 -0.1473  0.3144
17206TIP3    H173109   4.393   1.019   3.721 -1.2563  0.7925  0.7794
17206TIP3    H273110   4.376   1.057   3.576  0.4072 -0.0618  0.3290
17207TIP3   OH273111   3.610   1.518   0.217  0.1430  0.3595 -0.2265
17207TIP3    H173112   3.545   1.459   0.255  0.6935  0.6221  1.1659
17207TIP3    H273113   3.659   1.463   0.155  1.7049 -1.1600  2.1771
17208TIP3   OH273114   5.942   1.560  13.534 -0.2317 -0.3067 -0.5628
17208TIP3    H173115   6.023   1.607  13.515 -0.2206 -0.4678 -0.9122
17208TIP3    H273116   5.970   1.470  13.550 -0.2304 -0.1691  0.2892
17209TIP3   OH273117   5.789   0.897  16.519 -0.4055  0.3107  0.8875
17209TIP3    H173118   5.757   0.987  16.517 -0.7540  0.1785  0.2371
17209TIP3    H273119   5.725   0.849  16.571 -1.3671  0.0221 -0.5055
17210TIP3   OH273120   0.762   0.396   1.278 -0.2396 -0.0342 -0.0103
17210TIP3    H173121   0.816   0.317   1.270 -0.1759  0.0615 -0.5649
17210TIP3    H273122   0.781   0.429   1.366 -0.7857 -1.0043  0.4883
17211TIP3   OH273123   2.323   3.966  16.903  0.2882 -0.0222 -0.0991
17211TIP3    H173124   2.244   3.922  16.870 -0.9475  1.0150  1.3298
17211TIP3    H273125   2.297   4.058  16.912  1.6951  0.3599  0.3363
17212TIP3   OH273126   2.565   1.314  17.161 -0.3513 -0.1285 -0.6552
17212TIP3    H173127   2.498   1.323  17.093  0.6837  1.3413 -1.5218
17212TIP3    H273128   2.631   1.379  17.140 -0.5698  1.3248  2.4799
17213TIP3   OH273129   0.863   2.104  11.569 -0.2339 -0.4626  0.8408
17213TIP3    H173130   0.850   2.104  11.474 -1.0801 -1.1641  0.9395
17213TIP3    H273131   0.955   2.080  11.581 -0.1504 -0.4819  0.2027
17214TIP3   OH273132   5.877   4.995   5.236 -0.1870 -0.2668  0.1260
17214TIP3    H173133   5.815   5.031   5.173  1.1945  1.7431 -0.2080
17214TIP3    H273134   5.870   5.053   5.313  1.9835  0.7411 -0.3549
17215TIP3   OH273135   0.332   0.643  15.728  0.3323 -0.7616 -0.4918
17215TIP3    H173136   0.304   0.631  15.638 -1.0749  1.3210 -0.3864
17215TIP3    H273137   0.296   0.568  15.775  1.2543 -1.9744 -1.6404
17216TIP3   OH273138   2.358   5.958  11.391 -0.2593 -0.2544  0.0264
17216TIP3    H173139   2.270   5.920  11.397 -0.3953  0.1736  0.9973
17216TIP3    H273140   2.379   5.981  11.482  1.2276 -1.1848 -0.0519
17217TIP3   OH273141   3.661   2.993   3.912 -0.1213  0.0731  0.5181
17217TIP3    H173142   3.738   2.986   3.856  0.2599  0.4919  0.9737
17217TIP3    H273143   3.603   2.924   3.882  0.7082 -0.6708  0.5839
17218TIP3   OH273144   0.003   3.290   0.653 -0.0116 -0.0388  0.3796
17218TIP3    H173145  -0.001   3.209   0.704 -0.4295 -0.1950  0.1053
17218TIP3    H273146  -0.051   3.352   0.701 -0.7321 -0.3049 -0.0774
17219TIP3   OH273147   2.343   4.606   6.495  0.3866 -0.6387  0.0256
17219TIP3    H173148   2.380   4.524   6.529 -0.6581 -0.1287  2.6858
17219TIP3    H273149   2.383   4.674   6.548 -1.2489  0.2576  0.1584
17220TIP3   OH273150   3.309   0.784  15.789  0.2967  0.4211  0.3417
17220TIP3    H173151   3.246   0.789  15.861 -1.6012  0.7583 -1.2567
17220TIP3    H273152   3.283   0.707  15.740 -0.6458  2.0071 -1.8253
17221TIP3   OH273153   5.993   1.801  12.796  0.4990 -0.0797 -0.1245
17221TIP3    H173154   6.068   1.762  12.751  0.5699  0.1722 -0.2240
17221TIP3    H273155   5.943   1.726  12.828  1.1704 -0.2434  0.5665
17222TIP3   OH273156   5.185   5.191   0.419  0.1565  0.0830 -0.5139
17222TIP3    H173157   5.147   5.203   0.506  0.5598 -0.5853 -0.2333
17222TIP3    H273158   5.133   5.247   0.361  1.1833  2.1822  0.4931
17223TIP3   OH273159   3.465   4.001  13.912 -0.1776 -0.2677  0.6200
17223TIP3    H173160   3.465   3.914  13.953 -1.2270 -0.1611  0.8755
17223TIP3    H273161   3.413   4.055  13.971  0.2600  0.4768  0.3318
17224TIP3   OH273162   2.109   2.150  17.413 -0.4171  0.1052 -0.2091
17224TIP3    H173163   2.173   2.189  17.354 -0.4113  0.6387  0.1367
17224TIP3    H273164   2.052   2.223  17.439 -0.5915 -0.1736  0.2210
17225TIP3   OH273165   5.472   6.544  11.848 -0.3383 -0.3400 -0.3491
17225TIP3    H173166   5.485   6.451  11.867 -1.2200 -0.3406  0.3433
17225TIP3    H273167   5.409   6.573  11.914 -3.1891 -0.2002 -2.8645
17226TIP3   OH273168   0.956   1.628   5.633  0.3090 -0.6189 -0.3364
17226TIP3    H173169   1.042   1.669   5.641  0.1396 -0.4772  0.9855
17226TIP3    H273170   0.910   1.679   5.567  0.2823  1.0065  0.9002
17227TIP3   OH273171   3.914   1.025   4.597  0.5023  0.6033 -0.8941
17227TIP3    H173172   3.895   1.023   4.691 -0.7412 -0.3623 -1.1351
17227TIP3    H273173   3.951   0.938   4.579  0.3164  0.6248 -1.3859
17228TIP3   OH273174   3.886   5.763   5.187  0.2179 -0.4057 -0.4195
17228TIP3    H173175   3.916   5.845   5.147 -0.6088 -0.3449 -0.9456
17228TIP3    H273176   3.815   5.733   5.130 -0.6704 -0.5808  0.7339
17229TIP3   OH273177   0.375   1.788   5.300  0.0826 -0.4280 -0.2411
17229TIP3    H173178   0.295   1.832   5.272  0.4190  0.9268  0.8089
17229TIP3    H273179   0.375   1.796   5.395  2.3601  1.3045 -0.3118
17230TIP3   OH273180   3.891   0.916   3.598 -0.0253  0.4568  0.2888
17230TIP3    H173181   3.797   0.935   3.599 -0.6388 -2.1948 -0.0353
17230TIP3    H273182   3.903   0.860   3.521  1.3708 -1.1714  1.6226
17231TIP3   OH273183   5.744   6.400   0.705 -0.2413 -0.1696  0.0598
17231TIP3    H173184   5.683   6.453   0.757 -0.5918 -0.6993  0.1994
17231TIP3    H273185   5.812   6.461   0.676 -0.7753  0.4000  0.0096
17232TIP3   OH273186   1.865   2.888   3.428 -0.1163  0.0993 -0.0699
17232TIP3    H173187   1.782   2.898   3.383 -0.1675 -0.4838 -0.1121
17232TIP3    H273188   1.890   2.977   3.453 -0.5308  0.3230 -0.4492
17233TIP3   OH273189   6.616   5.287   3.311  0.0967  0.2861 -0.0014
17233TIP3    H173190   6.657   5.372   3.296  0.4095  0.1354 -0.0013
17233TIP3    H273191   6.665   5.250   3.385  1.6379 -0.9840 -1.5835
17234TIP3   OH273192   0.931   0.521  12.944 -0.6830  0.2591 -0.0494
17234TIP3    H173193   0.996   0.536  12.875 -1.0754  0.5889 -0.3519
17234TIP3    H273194   0.908   0.429  12.935 -0.4719  0.2121 -0.1275
17235TIP3   OH273195   6.238   0.399   4.353  0.4748 -0.1006  0.1157
17235TIP3    H173196   6.189   0.324   4.386  0.1765 -0.0990 -0.3175
17235TIP3    H273197   6.319   0.398   4.404  0.2865 -0.4554  0.4200
17236TIP3   OH273198   0.194   6.203   6.259  0.0155  0.0904 -0.6163
17236TIP3    H173199   0.112   6.253   6.256 -0.5558 -0.8510 -1.8395
17236TIP3    H273200   0.263   6.268   6.255 -0.6012  1.0348  2.1024
17237TIP3   OH273201   5.590   6.167  15.211 -0.5820  0.2253  0.0336
17237TIP3    H173202   5.647   6.132  15.279  0.0557  1.5731  0.2125
17237TIP3    H273203   5.611   6.114  15.133  0.5989  0.4228  0.2074
17238TIP3   OH273204   1.840   2.850   2.286  0.9781 -0.1045  0.1027
17238TIP3    H173205   1.836   2.803   2.369 -0.2851 -0.1713  0.0251
17238TIP3    H273206   1.859   2.941   2.311  3.9493 -0.6435  0.2212
17239TIP3   OH273207   2.325   1.197   1.202 -0.3057  0.1569  0.2644
17239TIP3    H173208   2.398   1.248   1.167 -0.5426 -0.5666 -1.3839
17239TIP3    H273209   2.364   1.113   1.227 -0.2368  0.4787  1.2744
17240TIP3   OH273210   2.078   5.630  16.515 -0.6744 -0.0872 -0.0880
17240TIP3    H173211   2.017   5.567  16.476 -0.4434  0.2436 -0.9851
17240TIP3    H273212   2.036   5.715  16.501  0.4712  0.2530 -1.6624
17241TIP3   OH273213   0.666   0.650  16.102 -0.9415 -0.4329  0.3567
17241TIP3    H173214   0.592   0.593  16.124 -0.7988 -0.0413  1.9974
17241TIP3    H273215   0.707   0.670  16.186  0.8193 -0.3315 -0.4686
17242TIP3   OH273216   3.616   1.017  16.124  0.7247 -0.1746 -0.2757
17242TIP3    H173217   3.547   0.983  16.067 -0.9582 -0.3452  1.7224
17242TIP3    H273218   3.621   1.110  16.104 -1.3454  0.2091  0.6504
17243TIP3   OH273219   1.309   0.567   1.039 -0.2041 -0.4249  0.4580
17243TIP3    H173220   1.262   0.593   1.119  2.0008  2.3313  1.0146
17243TIP3    H273221   1.251   0.594   0.968 -0.3665  1.1352  1.1304
17244TIP3   OH273222   6.714   3.807  15.598  0.2051  0.1430  0.3705
17244TIP3    H173223   6.648   3.773  15.658  2.2761 -0.5459  2.4227
17244TIP3    H273224   6.743   3.888  15.639 -0.4941  1.3309 -1.3920
17245TIP3   OH273225   6.685   6.465   5.703 -0.3254 -0.4358  0.6902
17245TIP3    H173226   6.702   6.480   5.610  1.5356 -1.2088  0.8621
17245TIP3    H273227   6.594   6.434   5.706 -1.2593  1.9411 -0.5611
17246TIP3   OH273228   0.249   1.166   0.662 -0.0098  0.3597 -0.0932
17246TIP3    H173229   0.164   1.187   0.699 -0.7687 -1.5130 -0.6587
17246TIP3    H273230   0.287   1.102   0.723  0.5250  0.3802 -0.3959
17247TIP3   OH273231   1.156   0.898  15.859 -0.5368 -0.3121  0.3580
17247TIP3    H173232   1.112   0.978  15.830  1.0543  1.2390  1.9274
17247TIP3    H273233   1.150   0.839  15.784 -4.0331  0.2560  0.0589
17248TIP3   OH273234   6.466   2.366   3.988  0.1827  0.1527  0.1354
17248TIP3    H173235   6.419   2.363   4.072  0.5896  1.4817  0.4354
17248TIP3    H273236   6.473   2.274   3.962 -0.6272 -0.2357  1.1711
17249TIP3   OH273237   6.047   2.092  14.776 -0.9388  0.0765  0.3494
17249TIP3    H173238   6.095   2.136  14.706 -0.5560 -1.3254 -0.2914
17249TIP3    H273239   6.071   2.140  14.855  2.1623 -0.9941  0.1731
17250TIP3   OH273240   6.647   6.145  15.392 -0.0677  0.5731  0.6602
17250TIP3    H173241   6.671   6.187  15.310  0.4724  2.5077  1.7590
17250TIP3    H273242   6.716   6.170  15.454 -0.8320 -0.2280  1.8926
17251TIP3   OH273243   1.721   1.832   1.026  0.3842  0.1345 -0.2736
17251TIP3    H173244   1.715   1.832   1.121  2.0113 -0.2418 -0.1523
17251TIP3    H273245   1.755   1.919   1.003 -1.4894  0.8206 -0.6620
17252TIP3   OH273246   6.242   2.841   6.353  0.5595  0.1632  0.1363
17252TIP3    H173247   6.180   2.908   6.384 -1.3258 -1.2677 -0.3525
17252TIP3    H273248   6.276   2.801   6.433 -2.3651 -1.8070  0.5419
17253TIP3   OH273249   5.996   3.156  17.472 -0.3571  0.3565  0.1323
17253TIP3    H173250   5.969   3.083  17.417  0.7727  0.1952 -0.2406
17253TIP3    H273251   6.091   3.146  17.481 -0.4666  0.5136  1.9135
17254TIP3   OH273252   3.929   0.385   3.004  0.6926  0.4355 -0.9064
17254TIP3    H173253   3.848   0.380   3.054  3.3108  1.7662  4.0925
17254TIP3    H273254   3.921   0.467   2.955  0.4019  2.8057  2.7418
17255TIP3   OH273255   3.790   3.193  13.179 -0.1244  0.3881 -0.0745
17255TIP3    H173256   3.776   3.184  13.085 -1.5214  2.7164 -0.1700
17255TIP3    H273257   3.877   3.233  13.187  0.3286 -0.5092 -0.2824
17256TIP3   OH273258   0.206   6.037  10.642  0.0580  0.8813  0.1670
17256TIP3    H173259   0.272   5.986  10.689  0.5372  1.5727  0.2529
17256TIP3    H273260   0.130   6.038  10.700 -0.0849 -0.0293  0.0106
17257TIP3   OH273261   5.326   0.087  12.157 -0.7856 -0.5508 -0.4554
17257TIP3    H173262   5.397   0.023  12.154  0.2692  0.5670 -0.5043
17257TIP3    H273263   5.250   0.041  12.123  0.5236 -1.0225 -2.9492
17258TIP3   OH273264   3.021   2.595  11.616  0.6542 -0.3766 -0.3850
17258TIP3    H173265   3.084   2.635  11.556 -0.2943  0.5359 -0.7916
17258TIP3    H273266   2.936   2.606  11.573 -0.0163  0.0875  1.0056
17259TIP3   OH273267   3.785   5.077  14.558  0.1564 -0.4312  0.1044
17259TIP3    H173268   3.804   4.988  14.529 -1.4067 -0.4483 -1.0104
17259TIP3    H273269   3.699   5.097  14.520  0.5109  1.5950  0.2224
17260TIP3   OH273270   2.934   2.037   2.992  0.3448  0.1917 -0.3060
17260TIP3    H173271   2.983   2.048   2.910 -3.1149 -0.3688 -2.6986
17260TIP3    H273272   2.912   2.126   3.018  0.8949  0.3500 -0.3623
17261TIP3   OH273273   1.543   4.736   4.772 -0.3254  0.2614  0.3134
17261TIP3    H173274   1.584   4.652   4.754 -1.1699  0.0478 -0.7597
17261TIP3    H273275   1.490   4.722   4.850  0.3200  0.0828  0.7232
17262TIP3   OH273276   1.045   2.034   0.082 -0.2708  0.1329  0.1046
17262TIP3    H173277   1.017   1.976   0.011 -0.6053 -0.2425  0.5449
17262TIP3    H273278   0.977   2.101   0.087 -1.4727 -1.1316  1.5960
17263TIP3   OH273279   5.554   6.660  17.379  0.2226  0.4407  0.5940
17263TIP3    H173280   5.522   6.749  17.397 -0.0476  0.6335 -0.7869
17263TIP3    H273281   5.534   6.645  17.287  1.3066 -0.6296  0.5100
17264TIP3   OH273282   5.173   0.252  11.412  0.3570 -0.1081  0.2487
17264TIP3    H173283   5.194   0.291  11.327 -1.5316  0.8571  0.1811
17264TIP3    H273284   5.160   0.327  11.470  0.1969 -0.7327  1.0287
17265TIP3   OH273285   2.582   5.444   4.998 -0.1158  0.6959  0.1788
17265TIP3    H173286   2.498   5.456   4.954 -0.3572  0.3105  0.5330
17265TIP3    H273287   2.611   5.357   4.972 -0.2538  0.4707  0.7677
17266TIP3   OH273288   6.506   2.411  13.333  0.1534 -0.1311 -0.1817
17266TIP3    H173289   6.562   2.460  13.273 -1.5729  2.0690 -0.1422
17266TIP3    H273290   6.455   2.353  13.276  0.1800  0.2342 -0.5832
17267TIP3   OH273291   4.856   0.569   3.784  0.1253  0.1982 -0.0547
17267TIP3    H173292   4.793   0.502   3.760 -0.3348 -0.0255  1.6776
17267TIP3    H273293   4.814   0.651   3.759 -0.0272 -0.0389 -0.6134
17268TIP3   OH273294   1.041   3.666  16.402 -0.0749 -0.0327  0.1527
17268TIP3    H173295   1.013   3.670  16.493  0.1654 -0.4375  0.2434
17268TIP3    H273296   1.005   3.584  16.368 -2.3810  1.2994 -0.8611
17269TIP3   OH273297   6.037   0.144   2.327  0.5273  0.4227 -0.1092
17269TIP3    H173298   5.961   0.198   2.347  0.2231 -0.1796  0.3951
17269TIP3    H273299   6.010   0.055   2.349  1.9367  0.3874  1.7375
17270TIP3   OH273300   5.767   2.137   1.699  0.0793  0.0677 -0.4115
17270TIP3    H173301   5.859   2.119   1.677  0.2043 -0.0523  0.1992
17270TIP3    H273302   5.718   2.110   1.621  0.2219 -3.3732  0.5440
17271TIP3   OH273303   3.307   4.718   4.818 -1.0106 -0.2179  0.2168
17271TIP3    H173304   3.370   4.777   4.858 -1.7547 -0.4319  1.7619
17271TIP3    H273305   3.358   4.639   4.797 -0.4631  0.1723  0.0473
17272TIP3   OH273306   2.429   0.645  16.086 -0.1180  0.2059 -0.6726
17272TIP3    H173307   2.387   0.567  16.121 -1.4218  1.5276  0.8443
17272TIP3    H273308   2.504   0.660  16.143 -0.1044  0.2961 -0.7127
17273TIP3   OH273309   0.122   1.007  16.378 -0.4678 -0.4356  0.0957
17273TIP3    H173310   0.158   1.079  16.326  2.4768 -1.7737  0.0588
17273TIP3    H273311   0.088   1.049  16.457 -0.0473  1.1140 -0.5101
17274TIP3   OH273312   0.618   3.243  15.657  0.2368  0.6271  0.0538
17274TIP3    H173313   0.613   3.324  15.708 -3.1958  0.5130  0.1141
17274TIP3    H273314   0.656   3.270  15.574 -0.9446  2.3775  0.0265
17275TIP3   OH273315   6.251   0.386  13.219  0.8160 -0.0441 -0.0183
17275TIP3    H173316   6.217   0.476  13.223  0.1828 -0.1145 -2.3241
17275TIP3    H273317   6.343   0.394  13.243  1.4872  1.7426 -2.6699
17276TIP3   OH273318   3.504   1.131  11.237 -0.5549 -0.2828  0.0918
17276TIP3    H173319   3.519   1.047  11.193 -2.0987  0.5687 -2.2513
17276TIP3    H273320   3.410   1.143  11.235 -0.2766  2.5406 -1.8376
17277TIP3   OH273321   4.258   3.653   1.434 -0.0006  0.7743 -0.3819
17277TIP3    H173322   4.192   3.654   1.364 -0.3830  0.2953 -0.0359
17277TIP3    H273323   4.210   3.681   1.512 -0.2892 -1.3615  0.2788
17278TIP3   OH273324   5.389   2.887  11.458 -0.1617 -0.3904 -0.1235
17278TIP3    H173325   5.440   2.832  11.398 -0.1024 -0.9888  0.4688
17278TIP3    H273326   5.317   2.920  11.404  0.5358  0.0365 -0.8287
17279TIP3   OH273327   5.121   5.991   1.653  0.0157  0.0220 -0.0089
17279TIP3    H173328   5.208   6.031   1.661  0.2118 -0.4147  0.0850
17279TIP3    H273329   5.136   5.914   1.598 -0.5427  0.6255 -1.0587
17280TIP3   OH273330   4.172   6.596   0.249  0.2464  0.5907  0.2974
17280TIP3    H173331   4.136   6.520   0.204  0.6844 -0.7777  2.1292
17280TIP3    H273332   4.259   6.608   0.210 -0.0279  0.4954 -0.3591
17281TIP3   OH273333   0.663   3.917  14.506 -0.4169 -0.4094  0.4065
17281TIP3    H173334   0.691   3.921  14.415  0.5703  1.0236  0.7524
17281TIP3    H273335   0.570   3.893  14.500 -0.5871  0.4504 -1.0127
17282TIP3   OH273336   2.326   5.839  13.757  0.4875  0.5728  0.0957
17282TIP3    H173337   2.270   5.884  13.819  0.5842 -0.4630  0.9664
17282TIP3    H273338   2.290   5.861  13.671 -0.5130  0.8709  0.5799
17283TIP3   OH273339   5.313   1.592   5.877  0.3124  0.1668 -0.1225
17283TIP3    H173340   5.354   1.652   5.939 -0.5081 -0.8911  1.4848
17283TIP3    H273341   5.307   1.509   5.923  0.4667 -0.9083 -1.9385
17284TIP3   OH273342   2.888   1.625   4.230 -0.5283  0.1496 -0.0867
17284TIP3    H173343   2.957   1.645   4.167 -0.4702 -0.0164 -0.0758
17284TIP3    H273344   2.815   1.593   4.177 -0.6480  0.4627 -0.1100
17285TIP3   OH273345   0.519   6.329  15.206 -0.1872 -0.3275 -0.1168
17285TIP3    H173346   0.518   6.425  15.210 -0.7309 -0.3253 -0.2706
17285TIP3    H273347   0.438   6.302  15.250 -0.7961 -0.6655 -1.3965
17286TIP3   OH273348   3.147   6.716   2.533 -0.0597  0.3388  0.0646
17286TIP3    H173349   3.180   6.650   2.594 -1.6411  0.3770  1.0128
17286TIP3    H273350   3.184   6.799   2.564 -0.3766  0.2734  0.6299
17287TIP3   OH273351   3.322   4.058  12.562  0.1784  0.4189  0.1910
17287TIP3    H173352   3.333   4.118  12.489 -0.6022 -0.3502 -0.5924
17287TIP3    H273353   3.399   4.002  12.560 -0.6798 -0.7865 -1.2274
17288TIP3   OH273354   2.914   3.135   6.113  0.1869  0.5748  0.3247
17288TIP3    H173355   2.979   3.147   6.043 -0.0641  0.5966  0.0920
17288TIP3    H273356   2.845   3.082   6.072 -0.8649  2.1373 -0.0309
17289TIP3   OH273357   4.751   2.598  14.867 -0.1836 -0.3329 -0.1612
17289TIP3    H173358   4.793   2.683  14.858  1.8824 -1.4599 -2.3850
17289TIP3    H273359   4.696   2.590  14.789  0.4012 -1.3943 -0.4860
17290TIP3   OH273360   1.216   4.413   0.019  0.2104  0.0222  0.2384
17290TIP3    H173361   1.187   4.403   0.110 -0.2918 -1.1677 -0.0365
17290TIP3    H273362   1.135   4.419  -0.032  0.4822  0.0211 -0.1986
17291TIP3   OH273363   5.986   4.429  16.100  0.2719 -0.5399  0.3823
17291TIP3    H173364   6.033   4.511  16.084  1.0826 -0.9965  0.3659
17291TIP3    H273365   5.983   4.386  16.014 -0.9116 -0.1496  0.2099
17292TIP3   OH273366   6.530   1.091  12.389 -0.9871 -0.0590  0.1851
17292TIP3    H173367   6.458   1.063  12.445 -1.6300 -0.6330 -0.8896
17292TIP3    H273368   6.599   1.119  12.450 -0.6819 -2.9778  1.3694
17293TIP3   OH273369   2.349   4.587   2.945  0.0788  0.2398  0.3937
17293TIP3    H173370   2.416   4.642   2.984  0.6436 -0.5000  0.4823
17293TIP3    H273371   2.357   4.602   2.850 -0.5700  1.2067  0.4792
17294TIP3   OH273372   3.334   5.598   4.802 -0.3825  0.0347  0.4253
17294TIP3    H173373   3.370   5.515   4.835  0.2664  0.3943  0.6357
17294TIP3    H273374   3.409   5.642   4.761 -0.8113  0.3440 -0.0295
17295TIP3   OH273375   0.481   1.245  12.206 -0.5599 -0.8921 -0.4581
17295TIP3    H173376   0.424   1.222  12.279 -0.6110 -1.3949 -0.6516
17295TIP3    H273377   0.556   1.287  12.247 -0.5936 -1.1596 -0.1126
17296TIP3   OH273378   0.378   1.000   6.311  0.5483 -0.1508 -0.3498
17296TIP3    H173379   0.368   0.912   6.346 -0.9570  0.5984  1.2434
17296TIP3    H273380   0.448   1.038   6.364 -0.4079  0.3504  0.5850
17297TIP3   OH273381   0.267   1.139  14.737 -0.3421  0.0606  0.0164
17297TIP3    H173382   0.318   1.168  14.661  0.2850 -0.5863  0.1757
17297TIP3    H273383   0.223   1.060  14.707 -0.2592 -0.0795  0.2634
17298TIP3   OH273384   5.414   4.418   3.858  0.4467 -0.3846  0.3363
17298TIP3    H173385   5.380   4.480   3.923 -0.9771 -1.2103  0.4181
17298TIP3    H273386   5.426   4.471   3.779 -0.4839  0.0759  0.4837
17299TIP3   OH273387   5.442   5.197  14.234 -0.2247 -0.5326  0.0407
17299TIP3    H173388   5.362   5.196  14.287  0.2388  0.2363  0.7821
17299TIP3    H273389   5.413   5.176  14.146 -1.2246 -0.4354  0.3353
17300TIP3   OH273390   2.266   0.432  12.866 -0.1176 -0.1737  0.0064
17300TIP3    H173391   2.174   0.407  12.854  0.3425 -1.2168 -1.6369
17300TIP3    H273392   2.288   0.483  12.789  0.5444  0.5861  0.6759
17301TIP3   OH273393   0.595   4.781  14.043  0.1433  0.0297  0.1076
17301TIP3    H173394   0.603   4.796  13.948  3.1885  1.8927  0.5126
17301TIP3    H273395   0.608   4.687  14.053  0.5256 -0.0972 -1.2839
17302TIP3   OH273396   4.156   2.845  13.871  0.0829  0.2494  0.1812
17302TIP3    H173397   4.209   2.924  13.870  0.3161  0.0902 -0.0569
17302TIP3    H273398   4.196   2.788  13.805  1.5615 -1.1575  2.1725
17303TIP3   OH273399   0.332   2.393  15.047  0.3497  0.0149  0.6796
17303TIP3    H173400   0.290   2.461  15.101  1.3781  3.7385 -2.7121
17303TIP3    H273401   0.261   2.360  14.991  0.4319  0.5979  0.2257
17304TIP3   OH273402   0.775   0.846  17.176  0.1837 -0.7070 -0.1834
17304TIP3    H173403   0.798   0.782  17.242  1.2255 -0.8768 -0.6950
17304TIP3    H273404   0.729   0.915  17.224  1.2862 -0.6263  0.7982
17305TIP3   OH273405   5.583   4.983   3.384  0.4697  0.0608  0.2160
17305TIP3    H173406   5.579   4.960   3.477 -0.3516 -2.7456 -0.4157
17305TIP3    H273407   5.617   5.072   3.383  2.1632 -0.4311  3.1094
17306TIP3   OH273408   0.075   3.768  16.453 -0.1850 -0.3194  0.2759
17306TIP3    H173409   0.142   3.835  16.441 -1.6431  1.0970 -0.3847
17306TIP3    H273410   0.103   3.719  16.531  1.6909  0.0751 -0.1173
17307TIP3   OH273411   2.783   6.222  13.307 -0.2999 -0.2557 -0.1183
17307TIP3    H173412   2.757   6.277  13.234  1.5186  0.2153 -0.4482
17307TIP3    H273413   2.847   6.274  13.355  0.3637 -1.5116  0.4009
17308TIP3   OH273414   3.947   4.728   4.247 -0.9568 -0.1873 -0.3783
17308TIP3    H173415   4.003   4.666   4.293 -0.6862  0.1579 -0.2420
17308TIP3    H273416   3.945   4.806   4.303  2.1563  1.6209 -2.4596
17309TIP3   OH273417   1.428   2.641  16.091  0.2652 -0.8692 -0.7576
17309TIP3    H173418   1.377   2.723  16.092  1.6472  0.0309  0.1590
17309TIP3    H273419   1.513   2.667  16.054  0.6867 -1.9175 -0.5373
17310TIP3   OH273420   2.530   5.886   1.395 -0.2561  0.0501  0.1881
17310TIP3    H173421   2.522   5.820   1.464  2.0562 -0.0767  0.4187
17310TIP3    H273422   2.503   5.840   1.315 -2.2743 -0.0139  0.8575
17311TIP3   OH273423   3.347   4.013  17.625  0.8376 -0.1406  0.6616
17311TIP3    H173424   3.321   3.963  17.702  1.7296 -0.5383  0.7073
17311TIP3    H273425   3.264   4.043  17.587  0.2538 -1.8339  0.5045
17312TIP3   OH273426   3.408   3.434   1.058 -0.0218 -0.6569 -0.1993
17312TIP3    H173427   3.396   3.528   1.074  3.0658 -0.2652  0.4532
17312TIP3    H273428   3.406   3.395   1.146  0.6934 -0.8836 -0.2783
17313TIP3   OH273429   6.665   0.405  17.418 -0.0841 -0.0191 -0.0217
17313TIP3    H173430   6.650   0.386  17.510 -1.1184 -1.2374 -0.4021
17313TIP3    H273431   6.747   0.455  17.416 -0.2689  0.4088  1.5723
17314TIP3   OH273432   2.510   6.502   2.962  0.6058 -0.1885 -0.2491
17314TIP3    H173433   2.471   6.512   3.049  0.9962 -0.1943 -0.0700
17314TIP3    H273434   2.455   6.438   2.917 -0.1753  0.5354 -0.3510
17315TIP3   OH273435   2.845   4.476   2.335  0.1651 -0.2667 -0.0279
17315TIP3    H173436   2.810   4.564   2.316 -0.6142 -0.6913 -0.6229
17315TIP3    H273437   2.782   4.416   2.296  3.4984 -1.1357 -5.0652
17316TIP3   OH273438   2.502   0.098  15.189 -0.5565 -0.5194 -0.6029
17316TIP3    H173439   2.447   0.099  15.267 -0.8956 -2.9496 -0.7470
17316TIP3    H273440   2.562   0.025  15.202  1.0659  0.5711 -1.5555
17317TIP3   OH273441   3.787   4.041   4.550 -0.2849 -0.2844 -0.0208
17317TIP3    H173442   3.866   4.072   4.506 -0.1760  0.8870  0.9613
17317TIP3    H273443   3.776   3.951   4.518  0.8353 -0.1047 -0.9836
17318TIP3   OH273444   1.819   2.320  14.100  0.0900 -0.4714  0.0762
17318TIP3    H173445   1.785   2.401  14.138 -0.1213 -0.5287  0.0097
17318TIP3    H273446   1.808   2.255  14.170  0.0137 -0.5017  0.0361
17319TIP3   OH273447   2.868   3.008  13.767 -0.2609  0.1820 -0.5765
17319TIP3    H173448   2.959   2.981  13.760 -0.2533 -0.3330  1.1053
17319TIP3    H273449   2.862   3.053  13.852 -1.2334  1.6518 -1.3720
17320TIP3   OH273450   0.569   5.227   3.959 -0.0663  0.0589 -0.0064
17320TIP3    H173451   0.577   5.253   4.051  1.1184  2.8331 -0.7686
17320TIP3    H273452   0.623   5.149   3.951 -0.2670 -0.2911  1.6490
17321TIP3   OH273453   3.220   3.878   7.125 -0.4073 -0.4414  0.0144
17321TIP3    H173454   3.131   3.846   7.115 -0.6503 -0.1191  0.9945
17321TIP3    H273455   3.267   3.805   7.168 -0.2009 -0.6037 -0.4821
17322TIP3   OH273456   5.477   3.223  16.587 -0.6751  0.6194  0.2036
17322TIP3    H173457   5.530   3.283  16.639  0.7808  0.7754 -1.3718
17322TIP3    H273458   5.436   3.279  16.520 -1.6107  0.2571  0.4475
17323TIP3   OH273459   0.344   6.311  16.017 -0.1158 -0.0932 -0.0649
17323TIP3    H173460   0.416   6.288  16.077 -0.0631  0.3592  0.0464
17323TIP3    H273461   0.353   6.249  15.945  0.5455  0.1131 -0.1733
17324TIP3   OH273462   0.325   5.123   0.842 -0.3377 -0.8584 -0.0298
17324TIP3    H173463   0.350   5.115   0.750  0.2329  0.2081  0.0154
17324TIP3    H273464   0.389   5.183   0.879 -0.7972 -0.9703  0.9802
17325TIP3   OH273465   1.605   0.432   6.038 -0.1288 -0.0423 -0.1938
17325TIP3    H173466   1.512   0.444   6.019 -0.2316  0.5724  0.6824
17325TIP3    H273467   1.644   0.417   5.952 -1.0700 -0.6140 -0.5473
17326TIP3   OH273468   2.526   6.291  11.742  0.0037 -0.2139 -0.3179
17326TIP3    H173469   2.519   6.317  11.833  1.2165 -2.1950  0.4220
17326TIP3    H273470   2.461   6.221  11.732 -0.9910  0.8129 -1.3500
17327TIP3   OH273471   4.562   2.707  17.317  0.7946 -0.0744 -0.1745
17327TIP3    H173472   4.478   2.753  17.311  0.4687 -0.6826 -0.3256
17327TIP3    H273473   4.598   2.735  17.401  0.6129  0.4772 -0.2758
17328TIP3   OH273474   6.519   5.660  16.042  0.3332 -0.2242  0.0466
17328TIP3    H173475   6.475   5.616  16.114  0.2690  0.8524  0.6893
17328TIP3    H273476   6.612   5.660  16.067  0.3563 -0.1685 -0.0393
17329TIP3   OH273477   5.595   5.428  13.385  0.5223 -0.5908 -0.3377
17329TIP3    H173478   5.562   5.518  13.386  1.2561 -0.2949 -1.0320
17329TIP3    H273479   5.557   5.389  13.307  1.0942 -0.5184 -0.6616
17330TIP3   OH273480   4.936   6.710   0.680 -0.0254 -0.4762 -0.2839
17330TIP3    H173481   5.021   6.752   0.683  0.0851 -0.4908 -2.0885
17330TIP3    H273482   4.954   6.621   0.648 -0.6310 -0.7181  0.0316
17331TIP3   OH273483   2.762   5.264   5.167 -0.2393 -0.0988 -0.1479
17331TIP3    H173484   2.795   5.354   5.164 -0.3912  0.0709  1.8336
17331TIP3    H273485   2.747   5.241   5.076  2.9464  0.6772 -0.9692
17332TIP3   OH273486   1.197   0.319  12.483  0.2145  0.1977  0.3448
17332TIP3    H173487   1.264   0.351  12.423  0.5744 -0.0478  0.6089
17332TIP3    H273488   1.195   0.382  12.554 -0.3274  0.5762  0.0001
17333TIP3   OH273489   0.287   3.468   1.332 -0.5027 -0.3102 -0.0122
17333TIP3    H173490   0.214   3.460   1.393  0.1685 -0.9315  0.7211
17333TIP3    H273491   0.364   3.479   1.387  0.2088 -1.6053 -0.7084
17334TIP3   OH273492   2.579   1.173   5.303  0.5309  0.2321 -0.0329
17334TIP3    H173493   2.565   1.089   5.258  0.0324  0.0811  0.3932
17334TIP3    H273494   2.639   1.152   5.374  0.7096  0.3168 -0.1577
17335TIP3   OH273495   1.174   0.986   2.160  0.6526 -0.4652 -0.2978
17335TIP3    H173496   1.135   0.947   2.238 -2.1363  2.5919  0.0664
17335TIP3    H273497   1.235   1.051   2.193  0.5649 -0.1859 -0.6727
17336TIP3   OH273498   3.943   2.524  14.662  0.0753 -0.0409  0.1373
17336TIP3    H173499   4.018   2.466  14.652 -0.3481 -0.6539  0.4795
17336TIP3    H273500   3.944   2.577  14.582 -0.1554 -1.2400 -0.6975
17337TIP3   OH273501   4.113   0.363   3.209  0.1040 -0.0495 -0.4149
17337TIP3    H173502   4.190   0.409   3.176  0.5250  0.5202  1.2772
17337TIP3    H273503   4.046   0.378   3.142  1.2578  0.0211 -1.5823
17338TIP3   OH273504   0.033   4.086  12.138 -0.4591 -0.2401 -0.3028
17338TIP3    H173505   0.116   4.050  12.167 -1.4211 -0.0090  3.2418
17338TIP3    H273506   0.049   4.117  12.049  2.2217 -3.2703 -1.0533
17339TIP3   OH273507   4.563   0.654  12.207  0.5038 -1.0299 -0.5623
17339TIP3    H173508   4.577   0.642  12.113  0.9168 -1.8874 -0.3934
17339TIP3    H273509   4.485   0.709  12.212  1.1770  0.0506 -1.4266
17340TIP3   OH273510   0.531   2.877  12.853 -0.1443  1.2742 -0.0654
17340TIP3    H173511   0.566   2.961  12.880 -1.0199  2.0250 -1.1510
17340TIP3    H273512   0.438   2.880  12.878 -1.1561  2.2526 -3.4312
17341TIP3   OH273513   2.880   1.520   5.213 -0.2166 -0.0757 -0.1270
17341TIP3    H173514   2.875   1.590   5.278 -0.1768  0.2519 -0.4742
17341TIP3    H273515   2.945   1.459   5.248  2.9004  2.0522 -1.7025
17342TIP3   OH273516   4.498   4.801   0.977 -0.3719  0.2807  0.6863
17342TIP3    H173517   4.537   4.728   0.929  0.6295  0.8243  0.6394
17342TIP3    H273518   4.469   4.862   0.909  0.2424  0.6476  0.7487
17343TIP3   OH273519   4.528   0.696   5.271 -0.5020 -0.1370 -0.4234
17343TIP3    H173520   4.555   0.785   5.294 -1.2322  0.0446 -0.2501
17343TIP3    H273521   4.483   0.706   5.188 -0.3591 -0.3850 -0.5303
17344TIP3   OH273522   3.079   1.663  14.273  0.6168 -0.1477  0.0003
17344TIP3    H173523   3.045   1.695  14.356  0.8383  0.3699 -0.1000
17344TIP3    H273524   3.065   1.568  14.275  0.8353 -0.1658  0.7252
17345TIP3   OH273525   5.511   1.087   0.437 -0.5217 -0.5234  0.0369
17345TIP3    H173526   5.448   1.015   0.441 -1.1928  0.1037  2.6832
17345TIP3    H273527   5.459   1.166   0.453  0.5829  0.2806 -0.1554
17346TIP3   OH273528   3.205   4.349   3.385  0.2476 -0.2435 -0.5190
17346TIP3    H173529   3.150   4.271   3.373  1.2104 -0.9284 -0.5826
17346TIP3    H273530   3.217   4.355   3.479 -1.6287  1.1354 -0.3051
17347TIP3   OH273531   0.717   1.819   1.324 -0.3549 -0.2135 -0.4105
17347TIP3    H173532   0.676   1.900   1.353  1.0905  1.5691 -2.9130
17347TIP3    H273533   0.673   1.750   1.373 -2.7939  1.9344  0.6205
17348TIP3   OH273534   6.285   0.931  12.127 -0.2804 -0.3807 -0.2596
17348TIP3    H173535   6.311   0.880  12.204  1.0351 -1.2345 -1.2038
17348TIP3    H273536   6.242   0.867  12.070 -0.1349 -0.0507 -0.7434
17349TIP3   OH273537   2.943   5.339   2.355 -0.4784  0.7565  0.0345
17349TIP3    H173538   3.023   5.286   2.351 -0.5931  0.5753  0.1227
17349TIP3    H273539   2.915   5.346   2.264 -1.0684 -0.2753  0.1144
17350TIP3   OH273540   3.338   1.952  12.573  0.3345 -0.2234 -0.0610
17350TIP3    H173541   3.293   2.002  12.641  0.2903  0.6411 -0.7117
17350TIP3    H273542   3.429   1.947  12.603  0.4859  0.8398 -0.3056
17351TIP3   OH273543   1.420   1.377  11.686  0.4057  0.3170 -0.3663
17351TIP3    H173544   1.347   1.343  11.635  0.4089 -0.2162 -0.0203
17351TIP3    H273545   1.438   1.310  11.751  0.7239  0.7697  0.0260
17352TIP3   OH273546   2.674   2.285   1.027  0.2856 -0.5376  0.0920
17352TIP3    H173547   2.644   2.289   0.936 -1.0116  0.5762  0.5326
17352TIP3    H273548   2.656   2.195   1.055 -0.0084 -0.6729 -0.5236
17353TIP3   OH273549   0.576   0.379  15.242  0.3362  0.4549 -0.2820
17353TIP3    H173550   0.516   0.393  15.169 -1.1166 -0.3911  0.7011
17353TIP3    H273551   0.532   0.315  15.297  1.7761  0.4509  0.9199
17354TIP3   OH273552   4.456   3.704   2.823  0.3885  0.0591 -0.4728
17354TIP3    H173553   4.421   3.636   2.880 -0.5749  1.2208  0.3720
17354TIP3    H273554   4.532   3.663   2.781  0.2235 -1.3158  0.4957
17355TIP3   OH273555   3.609   1.903   2.029 -0.2167 -0.1106 -0.0653
17355TIP3    H173556   3.678   1.890   1.964  2.7729  1.6781  2.4472
17355TIP3    H273557   3.602   1.998   2.038 -4.0534 -0.1631 -1.0776
17356TIP3   OH273558   0.378   0.428   1.538 -0.4749 -0.0788  0.1853
17356TIP3    H173559   0.452   0.441   1.596 -0.0023 -0.2598 -0.3685
17356TIP3    H273560   0.403   0.355   1.482  0.4565  2.0049 -2.3572
17357TIP3   OH273561   6.397   2.021  17.086 -0.5606 -0.3489 -0.1904
17357TIP3    H173562   6.360   2.095  17.134  0.6443 -1.1884  2.1949
17357TIP3    H273563   6.491   2.036  17.088 -0.4256 -0.8372 -1.6715
17358TIP3   OH273564   4.924   4.462   4.061 -0.1460  0.7032 -0.3514
17358TIP3    H173565   4.946   4.552   4.035 -2.7056  1.6384  0.3932
17358TIP3    H273566   4.859   4.434   3.997 -0.8464  0.1347  0.5886
17359TIP3   OH273567   5.985   4.615  12.707 -0.2501 -0.3623 -0.4698
17359TIP3    H173568   6.028   4.539  12.669  2.4572  0.8009  0.0332
17359TIP3    H273569   5.892   4.591  12.710  0.5118 -3.8368  0.1734
17360TIP3   OH273570   4.121   5.873  15.935  0.2569 -0.2243  0.1543
17360TIP3    H173571   4.127   5.872  15.840  1.8804  0.1602  0.2410
17360TIP3    H273572   4.115   5.966  15.958  0.3785 -0.2936  0.4634
17361TIP3   OH273573   3.688   5.490   1.673 -0.0422 -0.0841  0.4325
17361TIP3    H173574   3.631   5.422   1.708 -0.2324  0.4832  1.2418
17361TIP3    H273575   3.768   5.483   1.724 -0.0023  0.1960  0.4082
17362TIP3   OH273576   5.221   5.115   1.592 -0.0413  0.1919  0.0309
17362TIP3    H173577   5.240   5.077   1.677 -1.1862 -0.3867  0.0568
17362TIP3    H273578   5.170   5.047   1.547 -1.1897  1.2578 -0.3323
17363TIP3   OH273579   3.174   5.819  16.246 -0.1891 -0.1630  0.2907
17363TIP3    H173580   3.117   5.751  16.210 -1.0997  1.0512 -0.6645
17363TIP3    H273581   3.192   5.877  16.172 -0.4181  1.2867  1.3330
17364TIP3   OH273582   4.027   3.906  15.292  0.2631 -0.1732 -0.5850
17364TIP3    H173583   4.058   3.883  15.205  0.8298 -0.3578 -0.3379
17364TIP3    H273584   4.001   3.998  15.285 -0.3529 -0.3795 -1.1226
17365TIP3   OH273585   5.108   3.731  13.808 -0.2820 -0.0964  0.0864
17365TIP3    H173586   5.032   3.673  13.801  0.1931 -0.8629  0.9333
17365TIP3    H273587   5.118   3.769  13.721 -1.9680  0.4572  0.0959
17366TIP3   OH273588   2.661   4.116   1.439 -0.3582 -0.1891 -0.3588
17366TIP3    H173589   2.692   4.116   1.529  1.9266  1.2740 -1.0730
17366TIP3    H273590   2.681   4.028   1.407  1.3223  0.0941 -0.1829
17367TIP3   OH273591   5.366   2.822  13.610  0.3174  0.0817  0.6691
17367TIP3    H173592   5.320   2.761  13.551 -1.0276 -0.5018  2.2568
17367TIP3    H273593   5.427   2.766  13.658  0.3886  0.3072  0.8392
17368TIP3   OH273594   3.738   1.501  16.897 -0.0027  0.4628 -0.9982
17368TIP3    H173595   3.771   1.482  16.985 -0.3340  1.4165 -0.6577
17368TIP3    H273596   3.663   1.443  16.887  1.6591 -1.7145 -1.7717
17369TIP3   OH273597   2.791   2.901  11.711 -0.2502 -0.4304  0.5888
17369TIP3    H173598   2.716   2.907  11.651 -0.4090 -2.4704  0.5115
17369TIP3    H273599   2.861   2.947  11.666 -0.9666 -0.0829 -0.1907
17370TIP3   OH273600   1.434   5.017   2.395  0.2474 -0.4559  0.0004
17370TIP3    H173601   1.371   4.988   2.460 -0.0514 -1.4680 -0.7107
17370TIP3    H273602   1.381   5.035   2.317  0.6032  0.6911  0.0038
17371TIP3   OH273603   0.816   5.109  14.802  0.5153  0.5124  0.2404
17371TIP3    H173604   0.736   5.057  14.802 -0.8568  2.5436 -0.0709
17371TIP3    H273605   0.824   5.141  14.892  0.2071  1.4096 -0.0406
17372TIP3   OH273606   5.736   1.842  11.818  0.7654  0.4471  0.3538
17372TIP3    H173607   5.827   1.869  11.803  0.1138  2.6515 -0.0553
17372TIP3    H273608   5.726   1.842  11.913  1.1598  0.3711  0.3936
17373TIP3   OH273609   2.949   0.597  14.012  0.4352  0.6637  0.9274
17373TIP3    H173610   3.035   0.636  13.995  0.4989  0.0974 -0.0977
17373TIP3    H273611   2.946   0.520  13.955 -0.3226  0.0665  1.7446
17374TIP3   OH273612   2.833   4.383  12.647 -0.5967 -0.1140 -0.1423
17374TIP3    H173613   2.920   4.405  12.679 -0.0874 -0.4921 -1.2439
17374TIP3    H273614   2.780   4.460  12.667 -0.6920 -0.8238  2.8997
17375TIP3   OH273615   0.422   3.140   4.084  0.1298 -0.5769 -0.8815
17375TIP3    H173616   0.500   3.189   4.057  0.3287 -0.0200  0.5669
17375TIP3    H273617   0.457   3.061   4.126 -0.1148 -0.7677 -1.0375
17376TIP3   OH273618   1.858   6.705  15.596 -0.6333  0.1493 -0.6842
17376TIP3    H173619   1.913   6.666  15.527 -0.7519  1.3608 -1.4850
17376TIP3    H273620   1.794   6.758  15.549  0.0599  2.0224  0.3649
17377TIP3   OH273621   0.559   3.558  12.192  0.3599  0.0937  0.1690
17377TIP3    H173622   0.608   3.529  12.116 -0.3671  1.3521 -0.8282
17377TIP3    H273623   0.592   3.505  12.264 -0.3321 -2.5950 -1.3587
17378TIP3   OH273624   0.286   0.924  13.887 -0.2887  0.1346  0.6998
17378TIP3    H173625   0.379   0.930  13.868  0.1636  3.2332  3.1432
17378TIP3    H273626   0.243   0.957  13.808  0.4482 -2.5821 -0.9912
17379TIP3   OH273627   5.370   4.243   6.948 -0.2715 -0.5914  0.4807
17379TIP3    H173628   5.306   4.172   6.939  1.0224 -1.6216 -1.2057
17379TIP3    H273629   5.342   4.309   6.885  0.0110 -0.7946  0.1412
17380TIP3   OH273630   1.894   0.640   1.933 -0.4603 -0.4331 -0.0792
17380TIP3    H173631   1.872   0.730   1.908 -1.0346 -0.8381 -1.1307
17380TIP3    H273632   1.893   0.641   2.028  2.6889  1.4266  0.0673
17381TIP3   OH273633   3.761   1.086  17.373 -0.0826 -0.3626  0.0664
17381TIP3    H173634   3.678   1.070  17.417 -1.5757  2.0028 -1.6620
17381TIP3    H273635   3.750   1.045  17.287 -0.2403  1.4319 -0.8258
17382TIP3   OH273636   1.586   4.115  17.384  0.1120 -0.0545 -0.2169
17382TIP3    H173637   1.605   4.120  17.290  0.6287  1.0478 -0.0755
17382TIP3    H273638   1.555   4.203  17.407  1.0806  0.0363  0.8537
17383TIP3   OH273639   2.541   1.647  13.926 -0.6610 -0.5324 -0.4049
17383TIP3    H173640   2.636   1.647  13.913 -0.7081 -0.7852 -0.7696
17383TIP3    H273641   2.519   1.739  13.939 -0.5955 -0.2430 -2.1206
17384TIP3   OH273642   1.844   4.023   2.237  0.3379  0.3534  0.3163
17384TIP3    H173643   1.786   4.017   2.312  0.8434 -0.8177  0.6312
17384TIP3    H273644   1.909   3.954   2.251  0.9836  0.7235 -0.7278
17385TIP3   OH273645   2.715   1.618  17.289  0.5868  0.1762 -0.2846
17385TIP3    H173646   2.705   1.708  17.320 -0.8383  0.4719 -1.4552
17385TIP3    H273647   2.751   1.627  17.200 -1.3833 -0.2331 -1.1941
17386TIP3   OH273648   2.826   3.074  14.562  0.2951  0.2319 -0.2617
17386TIP3    H173649   2.877   3.008  14.515 -0.6337  0.4974 -1.6894
17386TIP3    H273650   2.892   3.124  14.612  1.3568  0.0794 -1.4508
17387TIP3   OH273651   4.945   2.125  15.989  0.4461 -0.0638  0.5816
17387TIP3    H173652   4.932   2.092  15.900  0.0037  0.8572  0.3012
17387TIP3    H273653   4.877   2.192  16.001 -0.5145 -1.2256  2.1520
17388TIP3   OH273654   2.608   0.453   4.245 -0.2328 -0.4402  0.0273
17388TIP3    H173655   2.611   0.426   4.337  0.4492  1.1888  0.5105
17388TIP3    H273656   2.555   0.532   4.244 -0.5968 -0.6707 -1.0708
17389TIP3   OH273657   5.785   5.433   3.497  0.9533  0.4245  0.1902
17389TIP3    H173658   5.694   5.461   3.495  0.1915 -1.5875  2.0723
17389TIP3    H273659   5.826   5.491   3.561  0.1479 -0.6834  1.7720
17390TIP3   OH273660   0.254   2.419   4.728  0.8365  0.3079 -0.5365
17390TIP3    H173661   0.300   2.396   4.647 -0.8805  1.0321 -1.7780
17390TIP3    H273662   0.228   2.510   4.716  1.2414  0.6941  1.2091
17391TIP3   OH273663   4.913   6.312  14.154  0.0156  0.0742  0.0117
17391TIP3    H173664   4.909   6.405  14.129  0.1445 -0.4576 -2.1762
17391TIP3    H273665   4.844   6.271  14.103  0.5957 -1.1973  0.2199
17392TIP3   OH273666   0.126   4.810   2.295  0.1142 -0.6975  0.7149
17392TIP3    H173667   0.181   4.794   2.219 -0.4103 -2.5441  0.6703
17392TIP3    H273668   0.169   4.882   2.342  1.4137 -0.7350 -0.3672
17393TIP3   OH273669   5.667   0.795   3.094  0.4469  0.4308  0.3932
17393TIP3    H173670   5.746   0.741   3.096 -0.5050 -1.0937  3.4275
17393TIP3    H273671   5.630   0.782   3.007  2.2243 -0.7859 -0.2360
17394TIP3   OH273672   4.381   3.000   2.412 -0.5951  0.1115 -0.1110
17394TIP3    H173673   4.289   3.002   2.439  0.0457 -1.0232  2.4440
17394TIP3    H273674   4.412   2.913   2.439  1.4062  0.7057 -0.3199
17395TIP3   OH273675   5.118   5.626   0.312 -0.2256  0.1080  0.4855
17395TIP3    H173676   5.077   5.548   0.276  0.6669  0.2362 -0.8683
17395TIP3    H273677   5.206   5.627   0.275  0.8608  0.1205  2.9005
17396TIP3   OH273678   2.517   1.033  16.085  0.5547  0.1922  0.0924
17396TIP3    H173679   2.594   0.976  16.088  0.5979  0.1123 -1.6212
17396TIP3    H273680   2.468   1.011  16.165  2.2943  0.2777  1.2430
17397TIP3   OH273681   2.200   5.110   4.563 -0.5682 -0.9727 -0.0342
17397TIP3    H173682   2.168   5.075   4.480 -1.4073  1.3204 -0.7436
17397TIP3    H273683   2.294   5.093   4.561 -0.3619  0.1005 -2.0582
17398TIP3   OH273684   4.447   3.250   5.853  0.8194 -0.1053 -0.0638
17398TIP3    H173685   4.432   3.197   5.774 -0.1214 -1.7870  1.1818
17398TIP3    H273686   4.411   3.197   5.924 -1.0511  2.6077  1.1735
17399TIP3   OH273687   3.942   3.277   6.660 -0.1253  0.0853 -0.0427
17399TIP3    H173688   3.966   3.317   6.743  0.4171  0.7701 -0.5137
17399TIP3    H273689   3.846   3.280   6.658 -0.1294  0.3015  0.4408
17400TIP3   OH273690   1.660   4.547   5.334 -0.6528 -0.0222  0.3213
17400TIP3    H173691   1.621   4.561   5.420  1.3707 -0.8947  1.4535
17400TIP3    H273692   1.754   4.545   5.351 -0.2514 -1.1969 -1.7659
17401TIP3   OH273693   1.953   1.623  14.162  0.1975  0.8461  0.6331
17401TIP3    H173694   1.921   1.566  14.232  0.2990  0.3129  0.2536
17401TIP3    H273695   1.876   1.670  14.132 -0.3367 -0.6351 -0.4686
17402TIP3   OH273696   1.356   6.505  16.855 -0.1439  0.1785 -0.2847
17402TIP3    H173697   1.336   6.415  16.880  1.3912 -0.9001 -2.5781
17402TIP3    H273698   1.405   6.541  16.928 -1.2557 -0.6263  0.8885
17403TIP3   OH273699   1.145   5.107  13.732  0.6061  0.0614 -0.4205
17403TIP3    H173700   1.076   5.096  13.797 -1.4529  2.5403 -2.0122
17403TIP3    H273701   1.226   5.089  13.780 -1.0258 -2.5082  1.6391
17404TIP3   OH273702   2.017   0.115   2.955 -0.1216  0.3735  0.1430
17404TIP3    H173703   2.044   0.198   2.993 -0.6580  0.5814  0.0708
17404TIP3    H273704   2.094   0.058   2.965 -0.1657  0.4868  1.3386
17405TIP3   OH273705   1.975   6.181   3.960 -0.1114  0.1143 -0.2910
17405TIP3    H173706   2.068   6.161   3.945 -0.3357 -0.6235 -0.7431
17405TIP3    H273707   1.975   6.237   4.037  0.7063  0.0347 -0.2234
17406TIP3   OH273708   2.389   4.640   4.619  0.3587 -0.2672 -0.1759
17406TIP3    H173709   2.303   4.634   4.578 -1.2704  0.1244  2.8941
17406TIP3    H273710   2.435   4.707   4.570 -0.9890 -0.5996 -1.9950
17407TIP3   OH273711   0.669   2.552   3.595 -0.1718  0.1021  0.2566
17407TIP3    H173712   0.740   2.498   3.629 -0.9627 -0.4655  1.0525
17407TIP3    H273713   0.633   2.595   3.673 -1.3132 -0.3705  0.0107
17408TIP3   OH273714   1.282   1.439   2.105 -0.1642  0.1838  0.1284
17408TIP3    H173715   1.338   1.361   2.099  0.7933  0.8609 -0.0363
17408TIP3    H273716   1.240   1.446   2.020  2.2561  1.6334 -1.0685
17409TIP3   OH273717   3.145   1.385  17.353  0.4952  0.4239 -0.4133
17409TIP3    H173718   3.111   1.413  17.268 -0.8127 -0.4373 -0.1969
17409TIP3    H273719   3.231   1.426  17.359  1.0390 -0.2566 -2.5753
17410TIP3   OH273720   0.060   0.851  16.633 -0.4278 -0.3271 -0.0708
17410TIP3    H173721   0.010   0.854  16.552 -0.0852 -1.4527 -0.3435
17410TIP3    H273722   0.018   0.781  16.685  0.5707 -0.9864 -0.1250
17411TIP3   OH273723   3.453   2.526   3.647 -0.3522 -0.1279  0.0993
17411TIP3    H173724   3.362   2.505   3.668 -0.0693 -2.0368 -0.3650
17411TIP3    H273725   3.496   2.441   3.638  0.8962  0.6403 -2.2286
17412TIP3   OH273726   0.587   1.709  13.997  0.1620 -0.0879  0.1358
17412TIP3    H173727   0.619   1.669  13.917 -1.4174 -1.5104  0.1810
17412TIP3    H273728   0.497   1.678  14.006 -0.2462  1.3699  1.5919
17413TIP3   OH273729   4.778   4.030  14.173 -0.5134 -0.2804  0.3474
17413TIP3    H173730   4.701   4.012  14.227 -0.3201  0.1397  0.7687
17413TIP3    H273731   4.845   4.059  14.235  1.0329 -3.6249  0.4761
17414TIP3   OH273732   2.974   0.690  11.885  0.2625 -0.2281 -0.3060
17414TIP3    H173733   2.984   0.706  11.791  1.3265 -1.1057 -0.3601
17414TIP3    H273734   2.988   0.596  11.895  1.4044  0.0444  0.8672
17415TIP3   OH273735   1.813   4.564  13.693  0.2848 -0.3953 -0.3001
17415TIP3    H173736   1.806   4.475  13.727  0.2637 -0.3765 -0.2553
17415TIP3    H273737   1.906   4.573  13.669  0.2756 -0.4473 -0.3539
17416TIP3   OH273738   3.864   4.819   1.460  0.2851  0.4516  0.2711
17416TIP3    H173739   3.855   4.837   1.554 -0.6984  1.9906 -0.0820
17416TIP3    H273740   3.892   4.902   1.422  0.9361 -0.2289 -0.7743
17417TIP3   OH273741   0.671   1.783   4.141 -0.2032  0.1917 -0.0873
17417TIP3    H173742   0.735   1.735   4.193 -1.4851 -1.4205  0.1031
17417TIP3    H273743   0.719   1.812   4.063  1.2803  1.0451  1.1010
17418TIP3   OH273744   0.419   0.218  15.383 -0.2657  0.2528 -0.5059
17418TIP3    H173745   0.368   0.240  15.461 -1.8113 -0.6483 -1.2129
17418TIP3    H273746   0.416   0.122  15.378  0.4320  0.2576 -1.2680
17419TIP3   OH273747   5.560   0.186   0.670 -0.0030  0.1429  0.2536
17419TIP3    H173748   5.543   0.257   0.732  0.1488  0.5582 -0.1746
17419TIP3    H273749   5.502   0.204   0.596  1.2711  0.8215 -0.6269
17420TIP3   OH273750   4.009   5.339   5.322 -0.0342 -0.2522 -0.2479
17420TIP3    H173751   4.037   5.430   5.317  0.2870 -0.4083 -1.6272
17420TIP3    H273752   3.960   5.325   5.241 -3.0393 -0.3651  1.4325
17421TIP3   OH273753   2.876   5.041   5.301 -0.1073 -0.1658  0.3478
17421TIP3    H173754   2.803   5.020   5.359 -0.8343  0.6177 -0.2464
17421TIP3    H273755   2.846   5.118   5.252  1.7793  1.2713  1.3202
17422TIP3   OH273756   4.334   1.562  17.327  0.0340  0.4069  0.2339
17422TIP3    H173757   4.407   1.610  17.364 -0.1405  1.5448 -0.8231
17422TIP3    H273758   4.361   1.541  17.238 -0.2600 -0.6840  0.3787
17423TIP3   OH273759   3.378   4.643  13.848  0.3579  0.5135  0.5689
17423TIP3    H173760   3.394   4.676  13.936  1.6421 -1.7441  1.2748
17423TIP3    H273761   3.321   4.567  13.861 -1.4427  1.5311 -0.8336
17424TIP3   OH273762   1.640   6.135   5.486 -0.3453  0.6539  0.2273
17424TIP3    H173763   1.552   6.173   5.480 -0.4411  1.0726  2.8988
17424TIP3    H273764   1.699   6.205   5.458 -0.8245 -0.0240 -2.7891
17425TIP3   OH273765   4.367   0.905  17.058 -0.4189 -0.2029  0.3071
17425TIP3    H173766   4.310   0.830  17.074 -0.2245 -0.9123 -1.9116
17425TIP3    H273767   4.413   0.919  17.141 -1.3530 -1.7620  1.1344
17426TIP3   OH273768   5.767   4.836   6.770  0.5871 -0.1107 -0.5560
17426TIP3    H173769   5.693   4.865   6.824  0.5663  1.4209 -1.3552
17426TIP3    H273770   5.823   4.913   6.762  1.0335 -0.5499 -1.9805
17427TIP3   OH273771   0.404   2.130   3.712 -0.4713  0.0446  0.1917
17427TIP3    H173772   0.461   2.164   3.643  1.0907  2.2672  2.3959
17427TIP3    H273773   0.364   2.051   3.674  2.6459 -0.6041 -2.1530
17428TIP3   OH273774   1.969   2.745  14.649  0.2273 -0.0710  0.0233
17428TIP3    H173775   1.938   2.655  14.653 -1.1385  0.3412 -0.8529
17428TIP3    H273776   1.966   2.776  14.740  1.8736 -1.2510  0.5303
17429TIP3   OH273777   3.034   0.459  13.516 -0.1187 -0.5247 -0.2638
17429TIP3    H173778   3.059   0.397  13.584 -0.5849 -0.3738  0.0435
17429TIP3    H273779   3.091   0.535  13.530  0.4082 -0.8495 -0.6023
17430TIP3   OH273780   0.027   0.209   6.297 -0.0624 -0.2182 -0.1031
17430TIP3    H173781   0.043   0.117   6.274 -0.9825 -0.7599  1.2713
17430TIP3    H273782   0.113   0.249   6.296  0.3815 -1.1533 -0.5490
17431TIP3   OH273783   3.592   1.746   4.138  0.2878  0.2420 -0.3422
17431TIP3    H173784   3.673   1.778   4.098 -1.0328 -0.0572 -3.5212
17431TIP3    H273785   3.601   1.651   4.137  0.0685  0.2212 -0.2913
17432TIP3   OH273786   2.629   4.968  16.760  0.0674 -0.0491  0.4011
17432TIP3    H173787   2.617   4.920  16.841 -0.9400 -0.3041  0.1108
17432TIP3    H273788   2.658   5.055  16.788  0.1644 -0.2702  1.0043
17433TIP3   OH273789   0.558   1.557  13.327 -0.0725  0.2372 -0.2094
17433TIP3    H173790   0.487   1.613  13.297 -0.2962  0.1938  0.2331
17433TIP3    H273791   0.522   1.510  13.402  1.5735  3.2223  2.7593
17434TIP3   OH273792   5.070   4.901  13.259  0.2980  0.2565 -0.5503
17434TIP3    H173793   4.994   4.874  13.208  1.2648  1.1708 -2.6107
17434TIP3    H273794   5.035   4.926  13.344 -1.5555 -0.2872 -1.1136
17435TIP3   OH273795   6.567   0.941  14.174 -0.1988 -0.4073  0.0124
17435TIP3    H173796   6.663   0.934  14.173 -0.0323  1.4399  0.1269
17435TIP3    H273797   6.543   0.929  14.266 -0.0032 -0.1803  0.0952
17436TIP3   OH273798   0.430   1.280   1.616  0.2186  0.2643 -0.4588
17436TIP3    H173799   0.419   1.359   1.669  0.3532 -0.2814  0.3981
17436TIP3    H273800   0.458   1.213   1.678 -0.1777 -0.5340 -1.1257
17437TIP3   OH273801   4.210   6.220  17.456 -0.1037  0.3355  0.5979
17437TIP3    H173802   4.144   6.273  17.413 -1.8465 -3.0175 -1.2684
17437TIP3    H273803   4.292   6.241  17.410 -0.9919  0.4290 -0.9997
17438TIP3   OH273804   1.659   1.247   5.202 -0.3610 -0.0330  0.3095
17438TIP3    H173805   1.638   1.244   5.109  0.5637  0.3116  0.0848
17438TIP3    H273806   1.666   1.340   5.222 -0.8117 -0.0975  0.7874
17439TIP3   OH273807   2.714   5.135   2.465 -0.6657 -0.1631  0.7767
17439TIP3    H173808   2.721   5.147   2.370  1.6690 -0.4344  0.8563
17439TIP3    H273809   2.753   5.214   2.502 -0.5135 -0.5699  1.5039
17440TIP3   OH273810   2.556   1.727  11.581  0.3460  0.5676 -0.5665
17440TIP3    H173811   2.473   1.752  11.620  0.7449 -1.0861  1.5030
17440TIP3    H273812   2.534   1.702  11.491 -1.5475 -0.6141  0.1788
17441TIP3   OH273813   0.194   4.665  14.284 -0.4950 -0.1811  0.3184
17441TIP3    H173814   0.139   4.662  14.363 -0.9722 -2.0205 -0.0369
17441TIP3    H273815   0.155   4.601  14.226  0.3156  0.6022 -1.1399
17442TIP3   OH273816   5.642   1.834  15.660  0.1344 -0.0798 -0.2198
17442TIP3    H173817   5.696   1.865  15.732  1.7968 -1.1231 -0.9319
17442TIP3    H273818   5.580   1.904  15.643 -1.2379 -0.3552  3.0707
17443TIP3   OH273819   0.660   4.740   3.683 -0.0344  0.0968 -0.1367
17443TIP3    H173820   0.568   4.753   3.706  0.1619 -1.3980  1.7251
17443TIP3    H273821   0.658   4.682   3.608 -0.6050  1.3354 -1.1285
17444TIP3   OH273822   4.216   6.016  14.857  0.0695 -0.1440 -0.3356
17444TIP3    H173823   4.220   6.066  14.938  1.9337  0.2478 -0.6042
17444TIP3    H273824   4.307   6.016  14.825 -0.5953 -0.4069 -2.3412
17445TIP3   OH273825   0.268   1.699  17.000 -0.4904 -0.4549  0.7687
17445TIP3    H173826   0.351   1.675  16.957 -1.4563 -0.4320 -1.2244
17445TIP3    H273827   0.218   1.618  17.002 -1.2819 -0.0025 -0.1318
17446TIP3   OH273828   1.867   3.136  17.302  0.0013  0.7263 -0.4978
17446TIP3    H173829   1.806   3.072  17.265 -0.1527  0.9305 -0.5948
17446TIP3    H273830   1.934   3.147  17.234  0.7147 -0.2653  0.0056
17447TIP3   OH273831   4.600   4.555   3.324 -0.5913  0.6146 -0.6808
17447TIP3    H173832   4.669   4.611   3.359 -1.0592  1.1320 -0.5816
17447TIP3    H273833   4.647   4.486   3.276  0.0572  0.0395  0.7277
17448TIP3   OH273834   5.366   2.374   3.726 -0.4211  0.0277 -0.2236
17448TIP3    H173835   5.389   2.281   3.725 -0.4720 -0.2554  4.2130
17448TIP3    H273836   5.444   2.419   3.693  0.4589 -1.5194 -0.3246
17449TIP3   OH273837   6.174   1.084   3.237  0.3282 -0.0687 -0.2037
17449TIP3    H173838   6.238   1.042   3.180 -0.2118 -0.1539 -0.7636
17449TIP3    H273839   6.095   1.090   3.183 -0.2152 -0.2120  0.5572
17450TIP3   OH273840   4.850   4.985   6.330  0.6700  0.1580  0.6266
17450TIP3    H173841   4.820   4.927   6.400  1.0670  1.0162  1.5223
17450TIP3    H273842   4.879   5.064   6.375  0.1693  1.0451 -0.5838
17451TIP3   OH273843   1.514   1.865  15.579 -0.1503  0.1285  0.4564
17451TIP3    H173844   1.591   1.815  15.549  0.6600  0.6337  1.6222
17451TIP3    H273845   1.529   1.877  15.673 -1.1600  1.1244  0.5047
17452TIP3   OH273846   5.361   2.608  12.707  0.0546 -0.2688  0.0524
17452TIP3    H173847   5.301   2.544  12.744 -0.6917  0.1545 -0.3940
17452TIP3    H273848   5.305   2.682  12.682  0.9614  0.8673  1.2002
17453TIP3   OH273849   5.798   1.951   0.081 -0.3464  0.1257 -0.0612
17453TIP3    H173850   5.840   1.978   0.163  0.2363  1.9261 -0.9065
17453TIP3    H273851   5.705   1.944   0.103 -0.3998  1.9973  0.4494
17454TIP3   OH273852   1.913   3.232  13.305  0.2624  0.5633 -0.2073
17454TIP3    H173853   2.006   3.239  13.283  0.6273 -0.5993  0.7943
17454TIP3    H273854   1.913   3.202  13.396 -0.9563 -3.7112 -1.3833
17455TIP3   OH273855   2.892   5.466  11.624 -0.4926  0.0003 -0.0920
17455TIP3    H173856   2.945   5.492  11.700 -0.5062 -0.4636  0.0808
17455TIP3    H273857   2.851   5.547  11.594  0.1304  0.3269 -0.0814
17456TIP3   OH273858   0.641   0.892  15.258 -0.3355  0.1441  0.2074
17456TIP3    H173859   0.649   0.797  15.248 -0.0960  0.0561  1.1516
17456TIP3    H273860   0.555   0.913  15.221 -0.4117 -0.4432  0.0394
17457TIP3   OH273861   2.914   6.069  15.772  0.1266  0.1382 -0.5878
17457TIP3    H173862   2.976   6.132  15.810 -0.4364  0.2918  0.1052
17457TIP3    H273863   2.945   6.056  15.682  1.6583 -0.4406 -0.0192
17458TIP3   OH273864   1.278   2.337  16.927  0.5487 -0.0983  0.6323
17458TIP3    H173865   1.331   2.365  16.852  0.1055  1.7055  0.9427
17458TIP3    H273866   1.189   2.334  16.894  0.1395  2.0935  1.3536
17459TIP3   OH273867   1.899   1.051   3.181  0.0250 -0.0928 -0.1606
17459TIP3    H173868   1.958   1.101   3.237 -0.2962 -0.1721  0.2630
17459TIP3    H273869   1.938   0.964   3.177  0.4822  0.1376 -0.7394
17460TIP3   OH273870   1.911   2.876  17.370 -0.0131 -0.1655  0.2650
17460TIP3    H173871   1.962   2.858  17.291  0.6127  0.0881  0.6134
17460TIP3    H273872   1.821   2.888  17.337  0.3821  0.7825 -0.5161
17461TIP3   OH273873   2.516   4.817   2.397  0.7030  0.8603 -0.4070
17461TIP3    H173874   2.604   4.798   2.429 -0.6320 -1.5617  2.3007
17461TIP3    H273875   2.482   4.732   2.369 -1.4643  1.3072  0.6624
17462TIP3   OH273876   2.432   4.404   2.444 -0.2514 -0.0244  0.3760
17462TIP3    H173877   2.430   4.426   2.351 -0.1728  1.9067  0.7873
17462TIP3    H273878   2.474   4.319   2.447 -0.6883 -0.3543 -1.3838
17463TIP3   OH273879   3.621   0.613   5.725 -0.2168  0.2081 -0.2040
17463TIP3    H173880   3.682   0.617   5.652 -1.9666  1.5315 -1.7040
17463TIP3    H273881   3.543   0.571   5.689 -0.8407  0.1387  1.1477
17464TIP3   OH273882   1.332   3.472   6.379  0.5709 -0.0461 -0.2779
17464TIP3    H173883   1.387   3.399   6.407 -2.0369 -1.2168  2.3044
17464TIP3    H273884   1.280   3.438   6.306 -1.1118 -1.1204  1.3416
17465TIP3   OH273885   6.211   3.359  14.138  0.7299  0.1983  0.0812
17465TIP3    H173886   6.275   3.375  14.069 -0.8872  0.4628 -1.4561
17465TIP3    H273887   6.169   3.444  14.152  0.4363 -0.0478  0.7387
17466TIP3   OH273888   4.748   1.175   6.508 -0.1765 -0.3667 -0.4701
17466TIP3    H173889   4.788   1.221   6.434 -0.2962 -1.1552 -1.0417
17466TIP3    H273890   4.664   1.218   6.521 -0.4982 -0.7342 -1.3097
17467TIP3   OH273891   2.374   1.014  11.986  0.0247  0.1568  0.3086
17467TIP3    H173892   2.395   0.942  12.045 -0.6180 -0.2395  0.0636
17467TIP3    H273893   2.298   1.057  12.026  1.1514  1.4721  1.0991
17468TIP3   OH273894   2.829   5.340   5.677  0.1314  0.1144  0.0389
17468TIP3    H173895   2.902   5.392   5.643  0.0360  0.3729  0.2374
17468TIP3    H273896   2.767   5.404   5.711 -1.4667  0.1076 -2.5765
17469TIP3   OH273897   1.370   4.724   3.433 -0.0550  0.3173 -0.3501
17469TIP3    H173898   1.432   4.656   3.407 -1.5431 -1.9353  1.5775
17469TIP3    H273899   1.412   4.767   3.507 -0.7096 -1.2817  1.0290
17470TIP3   OH273900   1.415   0.477  16.226  0.3078 -0.6419 -0.3375
17470TIP3    H173901   1.366   0.448  16.150  1.9545 -3.1639 -0.5605
17470TIP3    H273902   1.473   0.545  16.193 -1.0910  0.4772 -0.6090
17471TIP3   OH273903   4.500   1.373   2.624  0.1410  0.1639 -0.5280
17471TIP3    H173904   4.565   1.391   2.692 -0.1957  0.7336 -0.3460
17471TIP3    H273905   4.499   1.277   2.616  1.3090  0.1675 -0.8494
17472TIP3   OH273906   1.532   1.418  12.019 -0.0177  0.5803 -0.1214
17472TIP3    H173907   1.582   1.476  12.076  1.0305 -0.3055 -0.1079
17472TIP3    H273908   1.512   1.342  12.074  1.9720 -0.7958 -1.1740
17473TIP3   OH273909   5.977   3.278   5.839  0.1077 -0.1188 -0.8370
17473TIP3    H173910   5.966   3.334   5.762  1.9256  1.7344  0.1828
17473TIP3    H273911   5.995   3.191   5.802 -0.5897  0.3693 -2.4605
17474TIP3   OH273912   2.617   3.231   0.530 -0.7173 -0.3869 -0.4902
17474TIP3    H173913   2.663   3.222   0.447 -0.4598  1.5823 -0.6198
17474TIP3    H273914   2.686   3.257   0.592 -1.1180 -0.6090  0.0503
17475TIP3   OH273915   2.540   0.448   5.240  0.2554 -0.0142  0.2032
17475TIP3    H173916   2.487   0.403   5.175  0.3658 -0.0682  0.1506
17475TIP3    H273917   2.580   0.378   5.292  0.6406  0.0130 -0.0492
17476TIP3   OH273918   5.209   0.096  12.886  0.0757  0.4282  0.8382
17476TIP3    H173919   5.168   0.096  12.973  0.8690  0.0918  1.2192
17476TIP3    H273920   5.290   0.048  12.898 -0.8938 -1.7084 -0.6080
17477TIP3   OH273921   0.859   4.832  17.219 -0.0207  0.1360  0.0516
17477TIP3    H173922   0.857   4.908  17.161  0.0497  0.8169  0.9263
17477TIP3    H273923   0.808   4.858  17.295 -1.1047 -1.1667 -0.1897
17478TIP3   OH273924   5.061   0.366   3.842 -0.1075 -0.5440 -0.3726
17478TIP3    H173925   4.977   0.320   3.840 -1.1930  1.3457 -1.6674
17478TIP3    H273926   5.048   0.442   3.785  1.6601  1.2469  1.4645
17479TIP3   OH273927   0.202   6.457   2.319  0.6766  0.0162  0.3337
17479TIP3    H173928   0.209   6.513   2.241 -1.8087 -1.5067 -1.1092
17479TIP3    H273929   0.253   6.379   2.297  1.7394  0.4515  1.1633
17480TIP3   OH273930   4.162   1.118  15.390  0.6841 -0.0716 -0.3897
17480TIP3    H173931   4.228   1.159  15.447  0.8164 -0.4029 -0.3036
17480TIP3    H273932   4.081   1.167  15.409  0.5965 -0.5282  0.4922
17481TIP3   OH273933   1.386   0.177  15.534  0.3109 -0.4908  0.1878
17481TIP3    H173934   1.388   0.239  15.607  0.2584 -1.0011  0.6289
17481TIP3    H273935   1.297   0.184  15.500  0.2911 -0.3592  0.2624
17482TIP3   OH273936   5.456   5.498  12.005 -0.1010  0.6824  0.0435
17482TIP3    H173937   5.468   5.588  12.034  0.2920  0.7883 -0.4305
17482TIP3    H273938   5.384   5.502  11.942 -1.3215  0.3685  1.3657
17483TIP3   OH273939   4.917   0.484  15.789 -0.1451 -0.3566 -0.2300
17483TIP3    H173940   4.996   0.434  15.809 -0.5173 -1.9024 -2.3183
17483TIP3    H273941   4.926   0.507  15.696 -1.8185  0.0848 -0.3106
17484TIP3   OH273942   1.430   3.945   4.376  0.3656 -0.1885 -0.1830
17484TIP3    H173943   1.368   3.981   4.440  1.9338  0.0731  1.2923
17484TIP3    H273944   1.382   3.876   4.331 -1.2946  0.6971  0.1477
17485TIP3   OH273945   2.415   4.590   0.496  0.2747 -0.6457 -0.5930
17485TIP3    H173946   2.387   4.500   0.513  0.4925 -0.5599  0.2521
17485TIP3    H273947   2.373   4.642   0.564 -0.1062 -0.0505 -1.2652
17486TIP3   OH273948   2.931   0.027  14.977  0.3702  0.4975 -0.2631
17486TIP3    H173949   2.898   0.086  15.045 -0.8991  0.4994 -0.8508
17486TIP3    H273950   2.874  -0.050  14.982  0.3837  0.4198 -1.1916
17487TIP3   OH273951   2.326   2.928  11.357  0.4533  0.5010  0.0800
17487TIP3    H173952   2.231   2.929  11.364  0.5701  1.4539  2.6016
17487TIP3    H273953   2.344   2.951  11.265 -1.7413  3.0039  0.1602
17488TIP3   OH273954   2.727   3.090   4.292 -0.5651  0.0718  0.3386
17488TIP3    H173955   2.679   3.123   4.368 -0.3914  2.3812 -0.4822
17488TIP3    H273956   2.675   3.118   4.217  0.4232 -0.2069 -0.4656
17489TIP3   OH273957   2.563   4.891  14.115  0.0553  0.2024  0.1046
17489TIP3    H173958   2.519   4.879  14.199 -2.1184  1.1545 -0.8195
17489TIP3    H273959   2.569   4.986  14.105  0.2694  0.0989 -0.8100
17490TIP3   OH273960   2.352   2.985  12.369 -0.1632 -0.0565  0.2534
17490TIP3    H173961   2.346   2.895  12.339 -0.0980 -0.6796  1.9716
17490TIP3    H273962   2.385   3.034  12.294 -3.4091 -0.8075 -1.8209
17491TIP3   OH273963   5.457   2.745   5.114  0.5098 -0.3532 -0.4872
17491TIP3    H173964   5.436   2.738   5.207 -1.8918  0.4420 -0.9064
17491TIP3    H273965   5.542   2.790   5.112  0.9014 -0.9266  1.3042
17492TIP3   OH273966   4.584   4.195   3.659  0.4452 -0.1570 -0.3539
17492TIP3    H173967   4.675   4.189   3.630  0.1776 -1.9323 -0.9433
17492TIP3    H273968   4.541   4.119   3.620 -1.3258  0.6771 -0.1445
17493TIP3   OH273969   0.564   4.351  16.511  0.1111 -0.1686 -0.0953
17493TIP3    H173970   0.519   4.334  16.428  1.9773 -0.5578 -1.0661
17493TIP3    H273971   0.631   4.283  16.517  3.2030  2.5684 -0.6723
17494TIP3   OH273972   4.177   2.443  16.387 -0.0036  0.4101  0.3659
17494TIP3    H173973   4.151   2.353  16.368  0.6181  0.4387 -0.7142
17494TIP3    H273974   4.099   2.495  16.367  0.1825  0.2786 -0.7526
17495TIP3   OH273975   2.484   1.444  12.558 -0.3013 -0.3388 -0.2179
17495TIP3    H173976   2.493   1.525  12.507 -0.8545 -0.8961 -1.2051
17495TIP3    H273977   2.500   1.472  12.649  3.0110  0.2813 -0.8497
17496TIP3   OH273978   2.873   3.395   6.891  0.0013  0.5677 -0.2273
17496TIP3    H173979   2.947   3.336   6.877  1.1145  1.6220  1.0165
17496TIP3    H273980   2.801   3.355   6.841  0.1988 -2.7696  1.8409
17497TIP3   OH273981   6.078   6.131   1.129  0.0622 -0.3604 -0.4202
17497TIP3    H173982   6.154   6.187   1.145 -0.4780 -0.5240  3.9504
17497TIP3    H273983   6.098   6.051   1.178 -2.9474 -0.2885  1.1390
17498TIP3   OH273984   0.056   0.590   6.327 -0.2743 -0.1250 -0.1157
17498TIP3    H173985   0.007   0.667   6.355 -0.1043 -0.1759  0.3192
17498TIP3    H273986   0.005   0.516   6.360 -0.1138 -0.1880 -0.0111
17499TIP3   OH273987   4.702   4.186  16.035 -0.3855 -0.7922  0.2173
17499TIP3    H173988   4.764   4.117  16.012 -0.1774 -1.2075  1.8997
17499TIP3    H273989   4.756   4.266  16.039 -0.2164 -0.9103  0.3211
17500TIP3   OH273990   2.330   5.862   6.171 -0.2610  0.1218  0.1386
17500TIP3    H173991   2.256   5.842   6.228  0.2981  0.8359  1.1339
17500TIP3    H273992   2.367   5.942   6.206  0.3939  0.3202 -0.9512
17501TIP3   OH273993   6.649   0.638  13.946  0.1567  0.2333  0.2066
17501TIP3    H173994   6.744   0.624  13.948  0.2345  0.6653 -0.4421
17501TIP3    H273995   6.625   0.646  14.038  0.6336 -0.6092  0.4218
17502TIP3   OH273996   3.187   3.870   6.424  0.3256 -0.2283  0.3116
17502TIP3    H173997   3.194   3.775   6.439 -0.5742 -0.3434  0.0555
17502TIP3    H273998   3.138   3.902   6.500  0.8857  0.0822  0.5450
17503TIP3   OH273999   6.562   1.544   2.382  0.1733  0.1276  0.4427
17503TIP3    H174000   6.586   1.637   2.382  0.5573  0.0335  1.1258
17503TIP3    H274001   6.617   1.505   2.450  0.6853 -0.7799 -0.4580
17504TIP3   OH274002   0.354   5.986  15.210  0.3914 -0.0564  0.1544
17504TIP3    H174003   0.279   5.927  15.215  0.3354 -0.2470 -2.0017
17504TIP3    H274004   0.316   6.074  15.215 -0.0341 -0.1479 -1.1311
17505TIP3   OH274005   6.048   1.028  12.843  0.0063  0.0430 -0.1364
17505TIP3    H174006   6.074   1.039  12.934  0.7877  0.9264 -0.4580
17505TIP3    H274007   6.066   1.112  12.801 -0.2267 -0.3802 -1.1364
17506TIP3   OH274008   1.882   6.023   5.542  0.2049 -0.3321 -0.1276
17506TIP3    H174009   1.901   5.939   5.502 -1.4595 -0.6837 -0.2413
17506TIP3    H274010   1.801   6.052   5.501 -0.4370  0.2770  1.4935
17507TIP3   OH274011   5.527   6.686   4.990 -0.1088 -0.7309  0.3999
17507TIP3    H174012   5.455   6.679   4.927 -0.2630 -1.5792  0.6656
17507TIP3    H274013   5.515   6.771   5.031  1.1128  0.7674 -2.0931
17508TIP3   OH274014   6.352   1.734   2.072 -0.0188 -0.1771 -0.2899
17508TIP3    H174015   6.262   1.756   2.049 -0.4150 -0.8466  0.5283
17508TIP3    H274016   6.351   1.725   2.168  1.1152  0.6442 -0.1813
17509TIP3   OH274017   5.602   6.163   5.142 -0.0888  0.4187  0.0707
17509TIP3    H174018   5.562   6.243   5.109 -0.3228  0.7107  1.0096
17509TIP3    H274019   5.528   6.111   5.176  0.3217  1.3526  2.6502
17510TIP3   OH274020   3.892   2.608  13.481 -0.7211 -0.5424 -0.1247
17510TIP3    H174021   3.857   2.644  13.400  0.7606  1.2611 -0.0324
17510TIP3    H274022   3.848   2.524  13.491 -2.8202  0.3321 -1.4422
17511TIP3   OH274023   3.080   3.532   4.557  0.8228  0.0630 -0.0988
17511TIP3    H174024   3.058   3.604   4.498  0.2242 -0.0744 -0.0570
17511TIP3    H274025   3.175   3.529   4.558  0.8362  0.0283 -1.0981
17512TIP3   OH274026   1.103   2.480  15.225  0.1203 -0.1637 -0.5467
17512TIP3    H174027   1.106   2.553  15.164  0.1930  0.2073 -0.1021
17512TIP3    H274028   1.012   2.478  15.256  0.6844  1.4222  1.4461
17513TIP3   OH274029   5.617   1.276  11.772  0.6872  0.5222 -0.2735
17513TIP3    H174030   5.619   1.205  11.708  0.2957  0.1205  0.1502
17513TIP3    H274031   5.626   1.233  11.857  0.7863  1.0097 -0.0306
17514TIP3   OH274032   6.030   1.602   5.789  0.1607  0.2233  0.3002
17514TIP3    H174033   6.095   1.661   5.827  0.7352 -0.4444  0.3650
17514TIP3    H274034   5.957   1.659   5.764  0.6676  0.9428  0.4545
17515TIP3   OH274035   5.281   0.398  14.405 -0.1271 -0.5354 -0.5944
17515TIP3    H174036   5.211   0.336  14.428  1.0470 -1.4526  0.6698
17515TIP3    H274037   5.333   0.406  14.484  1.4745 -0.2444 -1.6312
17516TIP3   OH274038   3.260   1.191  14.626  0.0664  0.1342 -0.0946
17516TIP3    H174039   3.280   1.284  14.640 -1.8844  0.4344  0.9896
17516TIP3    H274040   3.333   1.145  14.668  0.6143  1.1633  0.1312
17517TIP3   OH274041   6.040   1.239   0.877  0.0345 -0.1137 -1.0780
17517TIP3    H174042   6.003   1.301   0.814 -1.0121 -0.4870 -0.8491
17517TIP3    H274043   5.968   1.178   0.894 -0.0661  0.5901  1.2842
17518TIP3   OH274044   1.906   1.536   5.113 -0.0385  0.5874  0.1365
17518TIP3    H174045   1.981   1.593   5.095  0.8233 -1.2874 -2.9606
17518TIP3    H274046   1.927   1.453   5.069 -2.5196 -1.1608  1.9405
17519TIP3   OH274047   6.276   6.401   4.107 -0.1248 -0.2430 -0.2913
17519TIP3    H174048   6.270   6.320   4.055  0.0111 -0.5518  0.1608
17519TIP3    H274049   6.273   6.371   4.198  0.4906  0.2103 -0.1109
17520TIP3   OH274050   4.126   2.260   5.813  0.4599 -0.9109 -0.0441
17520TIP3    H174051   4.091   2.204   5.881 -0.4983  0.5100  0.6721
17520TIP3    H274052   4.182   2.322   5.859 -1.5734  1.1873 -0.2500
17521TIP3   OH274053   0.919   4.313   1.346 -0.8871  0.0985  0.2170
17521TIP3    H174054   0.907   4.225   1.311 -0.0782  0.9157 -2.3474
17521TIP3    H274055   0.838   4.359   1.324 -0.0148  0.8779 -1.5839
17522TIP3   OH274056   3.223   2.271  11.997 -0.5299 -0.0774  0.2240
17522TIP3    H174057   3.139   2.227  12.003 -1.7849  1.7630 -2.1103
17522TIP3    H274058   3.279   2.225  12.059 -2.9369 -2.0334  1.0969
17523TIP3   OH274059   1.403   3.300  15.456  0.2404 -0.5547  0.0432
17523TIP3    H174060   1.368   3.386  15.434 -0.1001 -0.7377 -0.1311
17523TIP3    H274061   1.472   3.285  15.392 -0.8029 -1.1233 -0.9693
17524TIP3   OH274062   1.709   6.368  17.381  0.2243  0.0915  0.1398
17524TIP3    H174063   1.778   6.434  17.371 -0.1505  0.5086  0.2948
17524TIP3    H274064   1.660   6.395  17.459 -1.8670  1.4194 -1.5358
17525TIP3   OH274065   6.030   4.333  15.835  0.9495 -0.0468 -0.2996
17525TIP3    H174066   5.977   4.376  15.768 -0.2820 -0.3270  0.4697
17525TIP3    H274067   6.075   4.263  15.788  0.3958 -0.0099 -0.8986
17526TIP3   OH274068   4.245   1.834  15.763 -0.0198  0.0314 -0.3970
17526TIP3    H174069   4.315   1.776  15.731 -0.3876 -0.2065 -0.7759
17526TIP3    H274070   4.178   1.774  15.796  0.6269  0.2646  1.4702
17527TIP3   OH274071   3.990   5.108  15.812  0.2990 -0.5416  0.0725
17527TIP3    H174072   4.068   5.153  15.845 -0.1572  0.8981 -0.7518
17527TIP3    H274073   3.969   5.045  15.881  0.7364  0.7769  1.4843
17528TIP3   OH274074   3.223   0.641  14.320 -0.1046  0.1394  0.2415
17528TIP3    H174075   3.174   0.669  14.243  0.7601  0.3720 -0.2352
17528TIP3    H274076   3.277   0.569  14.289 -0.0932 -0.0725  0.7458
17529TIP3   OH274077   2.139   5.772  17.589 -0.3351 -0.1015  0.1914
17529TIP3    H174078   2.223   5.751  17.548 -0.1093 -1.7417  1.4173
17529TIP3    H274079   2.143   5.867  17.604  0.2531  0.2671 -1.9795
17530TIP3   OH274080   3.720   5.006   1.236 -0.6212 -0.5454  0.2198
17530TIP3    H174081   3.658   5.044   1.174 -1.8068 -1.6304  0.6972
17530TIP3    H274082   3.688   4.917   1.251  1.5155 -1.4325 -0.1350
17531TIP3   OH274083   2.171   6.213   5.878  0.0467 -0.3636  0.0656
17531TIP3    H174084   2.170   6.124   5.841 -1.8242 -0.1907 -0.3539
17531TIP3    H274085   2.151   6.200   5.971  0.0263 -0.3880  0.0578
17532TIP3   OH274086   2.025   1.687  13.686 -0.5577  0.2889 -0.6898
17532TIP3    H174087   2.001   1.753  13.621  2.4991  1.3804 -0.8442
17532TIP3    H274088   2.068   1.618  13.636  1.3870  0.9056  0.0723
17533TIP3   OH274089   1.121   4.379   0.269 -0.1114 -0.3003 -0.0876
17533TIP3    H174090   1.039   4.342   0.235 -0.5791 -0.5271  1.2322
17533TIP3    H274091   1.094   4.432   0.343  0.7845  1.0372 -0.6921
17534TIP3   OH274092   6.009   2.315   0.189  0.0478  0.2910  0.0643
17534TIP3    H174093   6.072   2.354   0.250 -0.1769 -1.0497  1.2081
17534TIP3    H274094   6.031   2.222   0.188  0.0991  0.2735 -2.0166
17535TIP3   OH274095   4.278   1.812  11.457 -0.1819 -0.3738  0.2559
17535TIP3    H174096   4.272   1.734  11.512  2.2673 -2.7902 -2.5362
17535TIP3    H274097   4.229   1.789  11.378 -1.5786  2.0166  0.3377
17536TIP3   OH274098   5.458   2.929   3.484  0.5328 -0.5645 -0.3455
17536TIP3    H174099   5.501   2.980   3.416  0.7666 -0.1216  0.1293
17536TIP3    H274100   5.491   2.840   3.472 -0.5765 -0.8325 -1.7671
17537TIP3   OH274101   3.344   4.129   4.055  0.3760 -0.0942  0.6361
17537TIP3    H174102   3.423   4.076   4.062  1.2971  0.6854 -2.2512
17537TIP3    H274103   3.368   4.214   4.092  0.0582 -0.5791  1.9922
17538TIP3   OH274104   1.046   6.173  14.522  0.3314  0.0247 -0.3264
17538TIP3    H174105   1.121   6.150  14.467  0.8935  0.8298  0.0923
17538TIP3    H274106   1.084   6.194  14.607 -0.6010 -2.0589  0.6794
17539TIP3   OH274107   1.182   6.310   5.356 -0.3655  0.4124  0.1249
17539TIP3    H174108   1.138   6.287   5.274 -1.7502  1.1491  0.6215
17539TIP3    H274109   1.111   6.334   5.415  0.6408  0.3141  1.4141
17540TIP3   OH274110   2.561   1.602  11.847  0.3460 -0.0809 -0.3570
17540TIP3    H174111   2.580   1.513  11.817 -0.1502 -0.6662  0.9712
17540TIP3    H274112   2.561   1.655  11.768 -0.4924 -1.4704 -1.3227
17541TIP3   OH274113   2.399   0.805  12.146 -0.4517  0.3618 -0.0754
17541TIP3    H174114   2.326   0.780  12.089 -0.9084  0.3108  0.5177
17541TIP3    H274115   2.443   0.722  12.166 -0.5307  0.3320 -0.0267
17542TIP3   OH274116   5.877   3.618  12.986  0.2386 -0.3061 -0.5218
17542TIP3    H174117   5.944   3.589  13.047  0.3489  0.5356 -0.2315
17542TIP3    H274118   5.821   3.677  13.037 -0.5186 -0.7198 -0.8500
17543TIP3   OH274119   0.498   5.337   0.936  0.1419  0.2140  0.2916
17543TIP3    H174120   0.516   5.281   1.011 -0.6947  0.4764  0.6942
17543TIP3    H274121   0.448   5.410   0.972 -0.3905  0.2696 -0.5417
17544TIP3   OH274122   3.873   1.223  15.942  0.5847 -0.1127  0.1671
17544TIP3    H174123   3.932   1.236  16.017 -0.9138 -0.4651  1.4493
17544TIP3    H274124   3.786   1.238  15.977 -0.2312 -1.1431 -1.3226
17545TIP3   OH274125   5.759   1.799   6.107 -0.3753  0.2747  0.1733
17545TIP3    H174126   5.854   1.793   6.121 -0.6488 -2.4872  1.6609
17545TIP3    H274127   5.725   1.832   6.189 -0.7434  1.0831 -0.2946
17546TIP3   OH274128   5.907   0.949   5.243 -0.1623  0.1409  0.2667
17546TIP3    H174129   5.986   1.000   5.256 -1.0710  2.0840 -1.2176
17546TIP3    H274130   5.840   1.013   5.220 -1.9401 -1.5229  0.4734
17547TIP3   OH274131   5.857   0.225  17.350  0.0192 -0.5162  0.1851
17547TIP3    H174132   5.893   0.140  17.375  0.0442 -0.9385 -1.2112
17547TIP3    H274133   5.783   0.203  17.292  0.1820  0.4127 -0.3881
17548TIP3   OH274134   1.046   3.199   6.791 -0.1742  0.5911 -0.2653
17548TIP3    H174135   0.981   3.235   6.851 -1.5306  0.3344 -1.5108
17548TIP3    H274136   0.994   3.156   6.723  1.3353 -0.4019 -0.8318
17549TIP3   OH274137   3.423   3.047  13.363 -0.2339  0.3345  0.3627
17549TIP3    H174138   3.512   3.020  13.383 -0.7341 -0.5619  1.5316
17549TIP3    H274139   3.430   3.139  13.338  1.0284  0.2228  0.2559
17550TIP3   OH274140   4.377   4.560  12.521  0.0080  0.1734  0.4999
17550TIP3    H174141   4.385   4.518  12.435  1.0311 -0.2118  0.7738
17550TIP3    H274142   4.283   4.576  12.530 -0.6769 -3.1506  0.8791
17551TIP3   OH274143   3.825   1.986   0.278 -0.3345  0.0529  0.2003
17551TIP3    H174144   3.733   1.986   0.253 -0.2344 -0.1128 -0.1802
17551TIP3    H274145   3.827   2.029   0.364 -0.6851  0.6494 -0.0820
17552TIP3   OH274146   5.354   3.725  16.423  0.0894  0.7238 -0.1399
17552TIP3    H174147   5.449   3.732  16.432  0.0026  1.9248  0.0519
17552TIP3    H274148   5.329   3.658  16.486  1.2095 -2.8077 -3.0731
17553TIP3   OH274149   3.286   5.192  11.846 -0.4246 -0.4172  0.2039
17553TIP3    H174150   3.192   5.184  11.829 -0.2289  1.2125 -2.1101
17553TIP3    H274151   3.327   5.131  11.786  0.0349 -1.0339  1.1199
17554TIP3   OH274152   2.645   3.445   2.472 -0.5949 -0.2689 -0.4544
17554TIP3    H174153   2.671   3.473   2.384 -3.7117 -0.6071 -1.5969
17554TIP3    H274154   2.696   3.501   2.531  1.4968  0.0537 -2.4188
17555TIP3   OH274155   4.848   4.207   4.924 -0.0128  0.0154  0.0230
17555TIP3    H174156   4.767   4.248   4.893 -1.4993 -2.7635 -0.0142
17555TIP3    H274157   4.856   4.235   5.015 -0.5114  0.9976 -0.2191
17556TIP3   OH274158   3.147   5.041   3.008  0.6642 -0.0228  0.1125
17556TIP3    H174159   3.134   4.970   2.946 -2.0433  0.6057 -0.1603
17556TIP3    H274160   3.088   5.110   2.978  0.6860  1.0339  2.3026
17557TIP3   OH274161   2.265   0.085  16.433  0.0964 -0.0795  0.1886
17557TIP3    H174162   2.346   0.131  16.414  0.0244  0.6036  1.4430
17557TIP3    H274163   2.201   0.123  16.373  0.3064  0.6221  0.4124
17558TIP3   OH274164   6.327   4.232   1.358  0.1036  0.0496 -0.1622
17558TIP3    H174165   6.407   4.274   1.386 -0.2113 -0.8448  2.3432
17558TIP3    H274166   6.318   4.156   1.415 -1.5186 -1.0134 -1.6963
17559TIP3   OH274167   5.509   3.972   2.633 -0.2362 -0.1456 -1.0444
17559TIP3    H174168   5.568   3.980   2.709  0.9319  1.3569 -2.0496
17559TIP3    H274169   5.559   3.920   2.570 -1.4575 -1.9412 -0.6135
17560TIP3   OH274170   2.144   0.494  14.236  0.1015  0.0227 -0.1538
17560TIP3    H174171   2.103   0.409  14.256  1.8390 -0.9789 -0.5823
17560TIP3    H274172   2.215   0.472  14.176 -0.4499  2.0322 -1.6300
17561TIP3   OH274173   3.510   0.967  12.311 -0.1167  0.2228 -0.8565
17561TIP3    H174174   3.436   1.027  12.319 -0.2371 -0.1620  2.0892
17561TIP3    H274175   3.482   0.889  12.359  2.2543  0.1651  0.5830
17562TIP3   OH274176   2.691   1.055   2.434  0.2757 -0.1236 -0.0249
17562TIP3    H174177   2.674   1.008   2.353  3.2963 -1.3738 -0.0822
17562TIP3    H274178   2.618   1.032   2.492 -2.4197  1.4978 -2.5157
17563TIP3   OH274179   5.172   5.545  12.851 -0.3557  0.2348 -0.5111
17563TIP3    H174180   5.116   5.504  12.916  0.5100 -1.6365 -0.8885
17563TIP3    H274181   5.250   5.573  12.899 -1.1852  2.1108 -0.1398
17564TIP3   OH274182   0.972   1.266   3.658 -0.3745 -0.6417  0.4166
17564TIP3    H174183   1.024   1.187   3.644  1.6838  0.8195 -0.6482
17564TIP3    H274184   1.001   1.299   3.742 -0.1987 -0.2776  0.2148
17565TIP3   OH274185   3.966   4.180  14.952  0.4092 -0.6308 -0.3049
17565TIP3    H174186   3.935   4.253  14.898  1.3427  0.3613  0.4406
17565TIP3    H274187   3.950   4.209  15.042 -1.2547 -2.3088  0.0106
17566TIP3   OH274188   5.623   0.490  16.382 -0.1014 -0.0218  0.6396
17566TIP3    H174189   5.683   0.522  16.314 -1.1071 -0.8338 -0.6693
17566TIP3    H274190   5.552   0.553  16.383 -1.0593 -1.0525 -0.4743
17567TIP3   OH274191   6.471   4.931  12.362 -0.1934  0.5730 -0.2535
17567TIP3    H174192   6.424   4.879  12.427  1.0504 -1.8544 -1.1654
17567TIP3    H274193   6.558   4.945  12.401 -0.9690  3.5318  0.6798
17568TIP3   OH274194   6.674   3.966   5.171 -0.7572  0.1633 -0.0213
17568TIP3    H174195   6.689   3.919   5.089  0.2650 -0.0627  0.2780
17568TIP3    H274196   6.733   4.041   5.167 -1.0158  0.3871  0.3214
17569TIP3   OH274197   2.065   1.545   0.707  0.4799 -0.4168 -0.1357
17569TIP3    H174198   2.006   1.601   0.758  0.5422  0.7200 -1.2640
17569TIP3    H274199   2.007   1.497   0.648  0.5417 -0.5865 -0.0593
17570TIP3   OH274200   2.605   0.356  11.863 -0.1151  0.6721 -0.0466
17570TIP3    H174201   2.693   0.345  11.899 -0.6038 -1.2397  0.7060
17570TIP3    H274202   2.548   0.348  11.939 -1.0836 -1.4188 -0.9253
17571TIP3   OH274203   5.750   2.451  15.938  0.5662 -0.3263 -0.1514
17571TIP3    H174204   5.655   2.459  15.933  0.6085  0.0820 -0.2900
17571TIP3    H274205   5.766   2.408  16.022  0.1682 -1.8095 -0.7976
17572TIP3   OH274206   1.256   1.799   2.863  0.3194 -0.5131 -0.3006
17572TIP3    H174207   1.253   1.860   2.789 -1.4727 -1.4332 -1.0538
17572TIP3    H274208   1.204   1.842   2.931  1.4080  0.0296  0.2141
17573TIP3   OH274209   3.735   0.434   4.071 -0.5925 -0.4863  0.5707
17573TIP3    H174210   3.649   0.437   4.030 -0.4875 -1.7135  0.2274
17573TIP3    H274211   3.743   0.519   4.115 -1.1178  0.4940 -1.0931
17574TIP3   OH274212   2.347   2.886  14.533  0.6906  0.7758 -0.2086
17574TIP3    H174213   2.441   2.876  14.516  0.6488 -0.2239  0.0754
17574TIP3    H274214   2.312   2.797  14.528 -0.0346  0.9789  0.8810
17575TIP3   OH274215   3.638   2.077  17.061 -0.0024 -0.1857  0.1820
17575TIP3    H174216   3.571   2.124  17.112  0.7139  0.7863  0.2379
17575TIP3    H274217   3.589   2.040  16.987 -0.7474 -0.1786  0.6532
17576TIP3   OH274218   0.465   6.135  11.562  0.1453  0.5335  0.7468
17576TIP3    H174219   0.499   6.052  11.530  2.7217  1.2186  1.5092
17576TIP3    H274220   0.415   6.171  11.488 -0.9558 -1.5947  0.3883
17577TIP3   OH274221   1.502   3.339  11.918 -0.0928  0.0260  0.1447
17577TIP3    H174222   1.438   3.274  11.888 -0.6342  0.4053  0.4653
17577TIP3    H274223   1.459   3.383  11.991  1.1079 -0.6900  1.3213
17578TIP3   OH274224   1.716   2.468   2.899 -0.7247  0.0904 -0.3363
17578TIP3    H174225   1.623   2.452   2.880 -0.7520 -0.2686  0.0880
17578TIP3    H274226   1.754   2.380   2.906 -0.5416  0.2266  0.4027
17579TIP3   OH274227   6.715   2.235  12.881  0.2658 -0.6767  0.5122
17579TIP3    H174228   6.802   2.227  12.841  0.2736 -0.0181  0.3852
17579TIP3    H274229   6.674   2.150  12.867 -0.4844  0.0824 -2.6202
17580TIP3   OH274230   1.292   5.409  11.027 -0.1391  0.2755  0.0816
17580TIP3    H174231   1.343   5.447  10.955 -1.3209  1.8443  0.0281
17580TIP3    H274232   1.244   5.337  10.986  1.2560 -0.6289 -0.0631
17581TIP3   OH274233   1.435   2.157   4.489 -0.5411 -0.3720 -0.4343
17581TIP3    H174234   1.516   2.208   4.491 -0.6817 -0.1559 -0.1689
17581TIP3    H274235   1.421   2.137   4.396 -0.5212  0.1278 -0.5447
17582TIP3   OH274236   1.974   6.247  16.014  0.5505 -0.1936  0.6517
17582TIP3    H174237   1.978   6.342  16.024  1.4278 -0.1591  0.1089
17582TIP3    H274238   1.891   6.230  15.969  1.0983  0.4642 -0.6664
17583TIP3   OH274239   0.411   2.440  16.608 -0.0295 -0.6364 -0.4361
17583TIP3    H174240   0.335   2.463  16.555 -0.4926 -0.4555  0.2938
17583TIP3    H274241   0.464   2.520  16.609 -0.0670 -0.6096 -0.5352
17584TIP3   OH274242   0.056   2.114   2.203 -0.3079  0.6275 -0.1488
17584TIP3    H174243   0.105   2.196   2.193  0.9851 -0.1173 -0.0788
17584TIP3    H274244   0.050   2.102   2.298 -1.8841  1.4258 -0.1171
17585TIP3   OH274245   0.098   6.127   3.036  0.4413  0.1911 -0.4500
17585TIP3    H174246   0.107   6.084   3.121  1.3108 -0.2202 -0.7434
17585TIP3    H274247   0.128   6.217   3.051  0.1561  0.2509 -0.2219
17586TIP3   OH274248   6.006   5.760   4.032  0.2408  0.5328  0.1762
17586TIP3    H174249   6.073   5.697   4.007  0.2402 -0.3730  2.2521
17586TIP3    H274250   5.930   5.706   4.055 -0.9601  1.4970 -1.3292
17587TIP3   OH274251   1.290   5.111   2.778  0.7134 -0.3783 -0.3486
17587TIP3    H174252   1.271   5.132   2.686 -1.9431 -0.7664  0.0283
17587TIP3    H274253   1.329   5.023   2.774  0.3398 -0.5221 -1.0994
17588TIP3   OH274254   5.516   0.307   1.709  0.2231 -0.6518  0.2749
17588TIP3    H174255   5.587   0.324   1.771 -0.9743  2.0563  1.0379
17588TIP3    H274256   5.461   0.241   1.752  1.4692 -1.7339  0.2740
17589TIP3   OH274257   3.078   5.561   2.507  0.1100 -0.2662 -0.1646
17589TIP3    H174258   3.035   5.615   2.574  0.0533 -1.2526  0.6251
17589TIP3    H274259   3.031   5.478   2.509  0.4443 -0.4876 -1.0784
17590TIP3   OH274260   2.588   5.404  17.103  0.1169  0.3671  0.0359
17590TIP3    H174261   2.514   5.460  17.079  0.3423  0.7005  0.1240
17590TIP3    H274262   2.578   5.391  17.197  0.4108  0.7533  0.1178
17591TIP3   OH274263   0.549   4.185  12.272  0.0267  0.2243 -0.3085
17591TIP3    H174264   0.585   4.172  12.184  0.5164 -1.4090  0.0979
17591TIP3    H274265   0.562   4.278  12.290  1.1947  0.3011 -1.4105
17592TIP3   OH274266   4.380   1.965   0.245 -0.4670  0.7865  0.2199
17592TIP3    H174267   4.376   1.870   0.241  1.7154  0.6309  0.2249
17592TIP3    H274268   4.334   1.989   0.325 -1.4013 -0.2058 -0.0048
17593TIP3   OH274269   3.307   1.089   6.273 -0.0074 -0.5113  0.5306
17593TIP3    H174270   3.289   1.016   6.332 -0.7210 -0.9928 -0.2439
17593TIP3    H274271   3.362   1.051   6.204 -0.3214 -0.3010  0.1600
17594TIP3   OH274272   2.052   3.601  16.624 -0.1018 -0.2427  0.0263
17594TIP3    H174273   2.126   3.662  16.627 -0.4328  0.1234  1.0827
17594TIP3    H274274   2.045   3.567  16.713 -1.8293  0.4912  0.2203
17595TIP3   OH274275   2.677   2.283   2.942 -0.0386 -0.0189  0.6942
17595TIP3    H174276   2.619   2.243   3.007  0.4831 -3.3918 -0.6806
17595TIP3    H274277   2.761   2.289   2.986 -0.0987 -0.6101  0.9092
17596TIP3   OH274278   2.535   4.908   4.005 -0.0189  0.7183 -0.5068
17596TIP3    H174279   2.492   4.986   3.969  0.8741  0.7862 -1.4941
17596TIP3    H274280   2.528   4.843   3.935  1.9515  0.9194 -0.9545
17597TIP3   OH274281   0.629   3.752   2.998 -0.0320  0.0536  0.3406
17597TIP3    H174282   0.701   3.737   3.059  0.6470  0.7263 -0.2695
17597TIP3    H274283   0.550   3.724   3.046  0.7578 -2.1647  0.4496
17598TIP3   OH274284   1.380   5.146  13.890  1.0120 -0.4384  0.3154
17598TIP3    H174285   1.440   5.190  13.829 -0.3992 -0.6754 -1.3111
17598TIP3    H274286   1.409   5.055  13.891  0.4970 -0.6380 -0.7733
17599TIP3   OH274287   2.387   5.409   1.723  0.0425 -0.4612 -0.0106
17599TIP3    H174288   2.440   5.487   1.710 -1.0658  0.2087 -0.6446
17599TIP3    H274289   2.334   5.401   1.644 -2.3663  0.1593  1.4197
17600TIP3   OH274290   5.695   3.965   4.774 -0.4266 -0.4747  0.0041
17600TIP3    H174291   5.626   4.012   4.728 -0.3505 -0.3715 -0.0051
17600TIP3    H274292   5.651   3.888   4.812 -0.7781  0.1785  0.9501
17601TIP3   OH274293   6.035   6.494  12.183 -0.5268 -0.3334  0.1804
17601TIP3    H174294   6.002   6.461  12.099 -1.0515  1.4755 -0.3687
17601TIP3    H274295   6.123   6.525  12.163  0.1599 -1.7857  0.8071
17602TIP3   OH274296   1.363   6.624   6.169 -0.9015  0.2751  0.2291
17602TIP3    H174297   1.382   6.699   6.224 -2.5125  0.9719 -0.1005
17602TIP3    H274298   1.364   6.549   6.229 -0.0109  0.6353  0.6892
17603TIP3   OH274299   4.373   5.255  13.474 -0.0057 -0.3745 -0.4215
17603TIP3    H174300   4.280   5.241  13.494 -0.7150  1.4894 -2.0584
17603TIP3    H274301   4.387   5.209  13.391  0.9857 -1.9445  0.5690
17604TIP3   OH274302   3.435   6.190  11.910 -0.4852  0.2056 -0.0849
17604TIP3    H174303   3.376   6.208  11.983 -3.0372 -1.4085 -1.5992
17604TIP3    H274304   3.516   6.236  11.933 -1.1867 -0.1153  3.6521
17605TIP3   OH274305   4.285   6.101   0.005  0.0533 -0.0488  0.0409
17605TIP3    H174306   4.263   6.138  -0.081  2.6514 -1.5213 -1.3970
17605TIP3    H274307   4.203   6.060   0.034 -1.8987  3.4469  0.0466
17606TIP3   OH274308   0.343   2.727   1.495  0.6987 -0.3505  0.0156
17606TIP3    H174309   0.254   2.753   1.521  0.5859  0.6376 -1.2798
17606TIP3    H274310   0.349   2.635   1.521  0.8870  0.6444  4.1919
17607TIP3   OH274311   2.958   0.316  16.506 -0.9919  0.3745 -0.5766
17607TIP3    H174312   2.997   0.279  16.427 -1.0053 -0.6946 -0.0883
17607TIP3    H274313   3.009   0.395  16.524 -0.0160 -0.2028 -0.7930
17608TIP3   OH274314   2.193   1.046  12.223 -0.3614  0.3845 -1.1811
17608TIP3    H174315   2.274   1.079  12.262  1.1222 -1.9362 -2.0740
17608TIP3    H274316   2.162   0.979  12.283 -0.3364 -0.3435 -1.9608
17609TIP3   OH274317   3.552   4.499   1.513  0.1048 -0.6298 -0.7236
17609TIP3    H174318   3.476   4.552   1.490  0.7021  0.2129 -0.8110
17609TIP3    H274319   3.526   4.451   1.591  0.9523  3.1385  2.1875
17610TIP3   OH274320   3.308   1.137  15.262 -0.5223  0.6459 -0.3524
17610TIP3    H174321   3.305   1.168  15.352  0.4596  1.1066 -0.4676
17610TIP3    H274322   3.374   1.069  15.262 -1.1648  0.0115 -0.5463
17611TIP3   OH274323   2.872   4.817   6.198 -0.2653  0.4258  0.1673
17611TIP3    H174324   2.845   4.834   6.288 -1.8518  1.4659 -0.4604
17611TIP3    H274325   2.799   4.768   6.160  1.3510 -2.0432  0.0249
17612TIP3   OH274326   3.173   4.935  16.659 -0.2058 -0.2385 -0.4976
17612TIP3    H174327   3.096   4.947  16.715 -0.3029  0.1834 -0.7131
17612TIP3    H274328   3.137   4.902  16.576 -0.2843  0.9601 -0.9598
17613TIP3   OH274329   5.532   6.489   5.809 -0.2490 -0.6169 -0.4928
17613TIP3    H174330   5.494   6.567   5.768  0.3710 -0.5123 -0.8754
17613TIP3    H274331   5.564   6.437   5.735  0.4845 -0.6327 -0.1702
17614TIP3   OH274332   2.006   2.797  17.142  0.0134 -0.3647  0.2625
17614TIP3    H174333   1.983   2.856  17.070  2.6586  1.4142  0.7606
17614TIP3    H274334   2.006   2.710  17.102  1.5483  0.5829 -1.9887
17615TIP3   OH274335   3.211   0.427   3.851 -0.5865  0.0443  0.6689
17615TIP3    H174336   3.210   0.446   3.757 -0.7119 -0.0276  0.6560
17615TIP3    H274337   3.156   0.495   3.890  1.2740  1.4529  0.9482
17616TIP3   OH274338   6.523   3.771   5.737  0.2806 -0.4954  0.4863
17616TIP3    H174339   6.500   3.826   5.662 -0.1361 -0.9721  0.2625
17616TIP3    H274340   6.534   3.834   5.809  1.9352  0.0907 -0.2363
17617TIP3   OH274341   2.637   0.999  12.592 -0.4554 -0.0025 -0.2342
17617TIP3    H174342   2.698   1.022  12.662 -2.3448  1.9089  0.8586
17617TIP3    H274343   2.636   1.076  12.535 -1.4847 -0.2016 -0.4947
17618TIP3   OH274344   0.365   1.594   3.391 -0.7224 -0.2350  0.1768
17618TIP3    H174345   0.418   1.664   3.352 -0.5445  0.0811  0.9726
17618TIP3    H274346   0.295   1.579   3.327 -1.8245  1.9162  0.7627
17619TIP3   OH274347   2.505   0.693   3.794  0.5831 -0.3911  0.5685
17619TIP3    H174348   2.437   0.746   3.837  0.0979  0.1365 -0.7788
17619TIP3    H274349   2.506   0.611   3.843  0.1766  0.2472  1.6773
17620TIP3   OH274350   2.227   4.571  12.391  0.1955 -0.3391  0.0017
17620TIP3    H174351   2.163   4.558  12.461  0.0504 -1.4803 -0.3307
17620TIP3    H274352   2.206   4.658  12.356 -1.3976 -0.8171 -0.3050
17621TIP3   OH274353   4.008   4.835   4.887 -0.4904 -0.2354 -0.3130
17621TIP3    H174354   3.918   4.864   4.875 -1.0901 -2.2698 -1.0904
17621TIP3    H274355   4.043   4.893   4.956 -2.3106  0.6920 -0.1148
17622TIP3   OH274356   2.382   5.029   5.904 -0.1747  0.1121  0.1339
17622TIP3    H174357   2.475   5.045   5.887 -0.3511 -0.4516 -1.5296
17622TIP3    H274358   2.346   5.004   5.819 -1.5316 -1.1974  1.0377
17623TIP3   OH274359   1.018   3.927  15.268 -0.1112 -0.7462 -0.1443
17623TIP3    H174360   0.967   3.908  15.346  1.5572 -0.3563  1.0918
17623TIP3    H274361   1.095   3.870  15.275  0.9195  0.5364 -0.5666
17624TIP3   OH274362   5.209   1.780   4.896  0.1812  0.2761 -0.0375
17624TIP3    H174363   5.222   1.748   4.806  1.9213  0.7250  0.0206
17624TIP3    H274364   5.160   1.710   4.939 -0.4210 -0.0863 -1.2443
17625TIP3   OH274365   4.277   6.371   1.807  0.2734 -0.0012  0.2973
17625TIP3    H174366   4.346   6.332   1.754  0.3834 -0.3372  0.6768
17625TIP3    H274367   4.196   6.343   1.764  0.2984 -2.0570  1.4680
17626TIP3   OH274368   2.937   2.139   4.621 -0.5679  0.0603  0.2789
17626TIP3    H174369   2.847   2.136   4.652 -0.4548  0.0401  0.6142
17626TIP3    H274370   2.937   2.204   4.550 -0.5762  1.0646  1.1787
17627TIP3   OH274371   2.393   5.385  16.439 -0.1254  0.0886  1.1540
17627TIP3    H174372   2.301   5.363  16.451  0.6198 -2.2879  3.1395
17627TIP3    H274373   2.440   5.329  16.500  2.6494  1.5164  0.5016
17628TIP3   OH274374   2.929   4.917  16.805  0.5161  0.1647 -0.6324
17628TIP3    H174375   2.842   4.957  16.810  1.2607  1.9000 -0.8213
17628TIP3    H274376   2.912   4.826  16.780 -1.3104  0.0959  0.6410
17629TIP3   OH274377   1.157   5.013  16.342 -0.2718  0.0049 -0.7753
17629TIP3    H174378   1.095   5.047  16.278 -1.7715 -0.2789  0.4612
17629TIP3    H274379   1.146   5.069  16.419 -0.2351 -1.0832  0.0500
17630TIP3   OH274380   6.072   0.622   0.344 -0.4149 -0.2029  0.7068
17630TIP3    H174381   6.034   0.623   0.432 -0.3225 -1.0710  0.7611
17630TIP3    H274382   5.996   0.620   0.285 -0.4709 -0.5812  0.7887
17631TIP3   OH274383   3.749   2.724   3.440 -0.9917  0.1209 -0.2169
17631TIP3    H174384   3.692   2.654   3.408  0.1030 -0.9564  0.0919
17631TIP3    H274385   3.797   2.684   3.513 -1.1185  1.5405  0.6803
17632TIP3   OH274386   4.179   1.556   0.871 -0.0186 -0.6107 -0.1674
17632TIP3    H174387   4.224   1.639   0.888  1.0641 -1.2226  0.0008
17632TIP3    H274388   4.218   1.494   0.932 -2.9659 -0.6158  1.9897
17633TIP3   OH274389   3.402   3.382  15.207 -0.1515 -0.8502 -0.4945
17633TIP3    H174390   3.487   3.418  15.183 -0.5069 -0.0125 -0.5244
17633TIP3    H274391   3.388   3.311  15.145  0.4570 -0.8976 -0.5841
17634TIP3   OH274392   1.071   1.253  14.566  0.3142  0.0586  0.4326
17634TIP3    H174393   1.062   1.188  14.497  0.8580  1.1151 -0.6701
17634TIP3    H274394   1.161   1.244  14.597  0.5696  0.6568 -0.1205
17635TIP3   OH274395   4.668   5.751  16.226 -0.4373  0.1561 -1.0365
17635TIP3    H174396   4.575   5.728  16.222 -0.4891  0.5129 -2.2211
17635TIP3    H274397   4.687   5.789  16.140  0.8693 -0.1531 -0.9046
17636TIP3   OH274398   0.982   1.210  12.318 -0.3261 -0.2321  0.2847
17636TIP3    H174399   1.020   1.126  12.292 -1.3549 -0.8859  0.8172
17636TIP3    H274400   1.015   1.272  12.253  1.8069 -0.6963  0.8499
17637TIP3   OH274401   2.110   2.334   4.931 -0.1560 -0.4940  0.1682
17637TIP3    H174402   2.114   2.367   4.841 -0.4750 -1.4162 -0.1979
17637TIP3    H274403   2.066   2.250   4.923  1.2101 -1.3173  0.9831
17638TIP3   OH274404   3.975   6.142  16.596 -0.1198 -0.8308  0.3051
17638TIP3    H174405   4.010   6.166  16.681  0.1635 -0.2350  0.0286
17638TIP3    H274406   4.028   6.067  16.568 -0.2283 -1.0399  0.6582
17639TIP3   OH274407   3.081   5.982  12.577 -0.0855 -0.2338 -0.1167
17639TIP3    H174408   3.009   5.979  12.515 -0.7379 -0.1855  0.6333
17639TIP3    H274409   3.049   6.035  12.650  1.6446  2.1269 -0.9456
17640TIP3   OH274410   0.347   2.096  11.275 -0.0715  0.0169  0.3272
17640TIP3    H174411   0.342   2.151  11.196 -0.6993  0.3398  0.5807
17640TIP3    H274412   0.348   2.006  11.241  0.4037  0.1695 -0.0736
17641TIP3   OH274413   6.145   6.425  15.337 -0.6267 -0.3017 -0.4743
17641TIP3    H174414   6.137   6.448  15.429  0.3552  2.4236 -0.9770
17641TIP3    H274415   6.204   6.349  15.336  0.5563  0.5370  1.0910
17642TIP3   OH274416   6.233   4.198   0.347 -0.0779 -1.0262  0.0073
17642TIP3    H174417   6.214   4.275   0.401 -0.0154 -2.0843  1.6121
17642TIP3    H274418   6.150   4.176   0.306 -0.0168  0.0846 -0.7452
17643TIP3   OH274419   4.551   1.363  15.185  0.6116  0.2360 -0.0452
17643TIP3    H174420   4.563   1.454  15.214 -0.9368  0.3711  0.2781
17643TIP3    H274421   4.640   1.330  15.171  1.2019  2.2470 -1.5850
17644TIP3   OH274422   6.256   2.766  15.176 -0.0502  0.1876  0.8126
17644TIP3    H174423   6.215   2.681  15.192 -1.3386  0.0735 -2.3940
17644TIP3    H274424   6.183   2.826  15.166  0.6154  0.6680 -1.7076
17645TIP3   OH274425   4.347   4.972  12.115 -0.1129 -0.6307  0.6746
17645TIP3    H174426   4.274   4.972  12.054 -1.0283  0.1993  1.7385
17645TIP3    H274427   4.341   4.888  12.160 -0.1655 -0.7257  0.4935
17646TIP3   OH274428   0.912   1.528   3.993 -0.7833 -0.3129  0.6953
17646TIP3    H174429   0.956   1.452   3.955  1.1074  0.0016  2.1190
17646TIP3    H274430   0.948   1.603   3.945  0.9225  0.0065  2.3498
17647TIP3   OH274431   3.257   0.005   3.178  0.0821 -0.0387 -0.2441
17647TIP3    H174432   3.255  -0.069   3.238 -1.2724  0.5043  0.4265
17647TIP3    H274433   3.244   0.082   3.234  0.2848  0.6046 -1.0627
17648TIP3   OH274434   2.145   4.092   0.030 -0.5490  0.1214 -0.0326
17648TIP3    H174435   2.178   4.088   0.120 -2.3070  2.0248  0.7838
17648TIP3    H274436   2.115   4.003   0.012  1.3021 -0.6861  0.6142
17649TIP3   OH274437   1.427   5.197  11.497  0.6023  0.0656 -0.0869
17649TIP3    H174438   1.399   5.106  11.487 -2.2924  0.8705 -0.0480
17649TIP3    H274439   1.466   5.219  11.412  0.2421 -0.8537 -0.5020
17650TIP3   OH274440   1.037   6.357  11.901  0.8306 -0.4123 -0.3060
17650TIP3    H174441   1.090   6.281  11.926  0.8547 -0.9142 -1.7923
17650TIP3    H274442   1.070   6.383  11.815  2.2975  2.6703  1.0143
17651TIP3   OH274443   5.798   5.781  11.823  0.4990 -0.2464  0.7482
17651TIP3    H174444   5.826   5.742  11.905  0.2134  2.0945  2.0533
17651TIP3    H274445   5.866   5.757  11.760  1.6388 -0.6642  2.0907
17652TIP3   OH274446   1.673   3.864   2.039 -0.0992  0.1285 -0.1922
17652TIP3    H174447   1.712   3.841   2.123  0.9033  2.3144  0.0259
17652TIP3    H274448   1.593   3.811   2.033  0.6015 -1.1700  1.4206
17653TIP3   OH274449   2.348   3.255   5.567 -0.3941  0.3053  0.3225
17653TIP3    H174450   2.285   3.292   5.628  0.3675  1.9433  0.1541
17653TIP3    H274451   2.433   3.268   5.609  0.0316  0.3420 -0.5289
17654TIP3   OH274452   0.041   2.433  11.822  0.0005 -0.6029  0.5769
17654TIP3    H174453   0.006   2.357  11.867  0.7618 -0.7849  0.8810
17654TIP3    H274454   0.004   2.428  11.734 -1.4256 -0.2909  1.1274
17655TIP3   OH274455   6.577   6.097   3.969  0.2318  0.9851 -0.1941
17655TIP3    H174456   6.672   6.090   3.969  0.2763  1.3816 -1.1560
17655TIP3    H274457   6.559   6.190   3.973 -0.1521  0.8759  1.1105
17656TIP3   OH274458   3.153   3.358   0.975 -0.0993  0.2593 -0.8147
17656TIP3    H174459   3.112   3.442   0.956  0.5244  0.7076 -0.2265
17656TIP3    H274460   3.245   3.379   0.991  0.0631 -0.5360 -0.6530
17657TIP3   OH274461   6.417   1.636   0.930  0.7049 -0.0575 -0.2476
17657TIP3    H174462   6.480   1.687   0.879  0.0966  2.8015  1.6108
17657TIP3    H274463   6.339   1.691   0.932 -0.5481 -1.8105  0.6040
17658TIP3   OH274464   5.861   3.729  16.547  0.1186  0.3700  0.0658
17658TIP3    H174465   5.852   3.640  16.514 -2.6676  1.2698 -1.9112
17658TIP3    H274466   5.822   3.727  16.635 -0.6166 -0.2147 -0.2714
17659TIP3   OH274467   5.824   0.765   1.846 -0.3231  0.3512 -0.1398
17659TIP3    H174468   5.882   0.727   1.913  0.5712  0.1844 -0.9762
17659TIP3    H274469   5.743   0.715   1.853  0.6284 -1.3825 -0.8254
17660TIP3   OH274470   1.488   0.374  14.335 -0.2336 -0.1384  0.2455
17660TIP3    H174471   1.453   0.433  14.269 -0.2575  0.3606  0.7002
17660TIP3    H274472   1.534   0.431  14.397 -1.2406 -0.4514  1.3145
17661TIP3   OH274473   3.346   1.156  12.211 -0.4281 -0.4181 -0.0132
17661TIP3    H174474   3.323   1.244  12.182  0.6336  0.0635  0.5266
17661TIP3    H274475   3.270   1.126  12.261 -0.5806  0.4321  0.2801
17662TIP3   OH274476   6.688   0.584   5.954  0.1052 -0.4057  0.3302
17662TIP3    H174477   6.743   0.661   5.940 -0.4205 -0.2071 -0.7955
17662TIP3    H274478   6.744   0.522   6.001  0.3858  0.8195  1.6968
17663TIP3   OH274479   1.722   1.300   2.370  0.3489  0.3922 -0.7499
17663TIP3    H174480   1.701   1.224   2.424  1.1663 -0.4560 -1.5925
17663TIP3    H274481   1.810   1.326   2.399  0.5197  0.3441 -1.2282
17664TIP3   OH274482   3.878   3.494   2.380 -0.0193  0.6409 -0.3649
17664TIP3    H174483   3.972   3.492   2.360 -0.0763 -0.1639 -0.6271
17664TIP3    H274484   3.860   3.584   2.405  1.3963  0.2495  2.4948
17665TIP3   OH274485   2.192   2.382   1.661  0.6494 -0.3155  0.2743
17665TIP3    H174486   2.103   2.372   1.627 -0.2349  0.9588  2.0570
17665TIP3    H274487   2.232   2.296   1.650 -1.4651 -1.4878  1.2484
17666TIP3   OH274488   0.573   4.854  15.808  0.5785  0.0008 -0.2217
17666TIP3    H174489   0.556   4.895  15.893 -0.1572 -0.1147 -0.3002
17666TIP3    H274490   0.516   4.902  15.748  2.2055  1.1101 -0.9504
17667TIP3   OH274491   0.956   4.461   1.904 -0.0496 -0.0400  0.6502
17667TIP3    H174492   0.874   4.476   1.857 -1.9723  0.6370  3.9171
17667TIP3    H274493   1.018   4.521   1.863 -1.9080  1.3924 -0.2245
17668TIP3   OH274494   3.925   4.044  16.582 -0.2415 -0.3855 -0.2435
17668TIP3    H174495   3.912   4.002  16.667 -1.5048  1.0885  0.3400
17668TIP3    H274496   3.859   4.004  16.525 -0.0880 -0.6399 -0.2425
17669TIP3   OH274497   4.602   1.719  12.567 -0.0867  0.3045 -0.0395
17669TIP3    H174498   4.616   1.813  12.558  1.9539 -0.0491 -1.0044
17669TIP3    H274499   4.526   1.700  12.512 -0.4745  1.3622  0.1155
17670TIP3   OH274500   6.094   1.801  13.762 -0.2645  0.2146  0.1726
17670TIP3    H174501   6.002   1.826  13.767  0.3728  3.2260 -0.9040
17670TIP3    H274502   6.101   1.755  13.679 -0.8597 -0.5154  0.5109
17671TIP3   OH274503   2.845   0.951  13.601 -0.7609  0.1547 -0.5109
17671TIP3    H174504   2.798   0.932  13.683 -2.0162  1.7040 -0.8267
17671TIP3    H274505   2.854   0.866  13.558  2.1501 -1.1686  2.2925
17672TIP3   OH274506   4.904   0.607   4.239 -0.2714  0.3010 -0.0086
17672TIP3    H174507   4.952   0.576   4.162  1.2133 -1.7944  1.6350
17672TIP3    H274508   4.954   0.683   4.270  0.3433 -0.1212  0.0541
17673TIP3   OH274509   5.394   5.396   1.248 -0.2217  0.2235  0.8104
17673TIP3    H174510   5.381   5.314   1.201  1.0089  0.5578 -0.1630
17673TIP3    H274511   5.382   5.373   1.340  0.9341 -1.2431  0.6308
17674TIP3   OH274512   4.414   3.298  13.416 -0.4353 -0.4167  0.5367
17674TIP3    H174513   4.447   3.226  13.470  0.6822 -0.1853  0.1852
17674TIP3    H274514   4.462   3.290  13.334 -1.0450  0.1251  0.1225
17675TIP3   OH274515   2.475   5.781  14.272  0.1047 -0.1388  0.0565
17675TIP3    H174516   2.404   5.761  14.332  2.8743 -0.6589  3.4539
17675TIP3    H274517   2.468   5.715  14.203 -2.2794 -0.5367  0.6032
17676TIP3   OH274518   5.023   6.559   1.935  0.1387  0.5668  0.4965
17676TIP3    H174519   5.089   6.626   1.950  1.8628 -1.1533  1.0371
17676TIP3    H274520   5.019   6.510   2.017 -1.7267  0.5283  0.4270
17677TIP3   OH274521   5.626   4.980   0.087 -0.3600  0.5578 -0.6490
17677TIP3    H174522   5.673   4.950   0.166 -1.9703 -1.3731 -0.3399
17677TIP3    H274523   5.664   4.927   0.016 -0.9785  0.1217 -0.6575
17678TIP3   OH274524   3.433   2.196   2.560 -0.5384  0.1669  1.0195
17678TIP3    H174525   3.469   2.107   2.557 -1.8662 -0.4345  1.8650
17678TIP3    H274526   3.338   2.182   2.563 -0.8221  1.6582 -0.1227
17679TIP3   OH274527   5.343   5.735  17.611 -0.0707  0.6002  0.5014
17679TIP3    H174528   5.266   5.757  17.664 -0.2819 -1.0757  0.9706
17679TIP3    H274529   5.307   5.683  17.539  0.5342  0.4103  0.3342
17680TIP3   OH274530   1.174   1.297   5.287 -0.0372  0.2445 -0.8880
17680TIP3    H174531   1.113   1.238   5.243 -0.0001  0.1335 -0.7933
17680TIP3    H274532   1.123   1.335   5.359  0.1808 -0.3382 -0.4110
17681TIP3   OH274533   2.547   1.682   3.438  0.2210 -0.2703  0.4348
17681TIP3    H174534   2.590   1.700   3.354 -1.7779  1.4938 -0.2827
17681TIP3    H274535   2.515   1.592   3.429 -2.1432  0.6778 -1.7802
17682TIP3   OH274536   1.255   3.020   0.529  0.2257  0.6027  0.5707
17682TIP3    H174537   1.227   2.928   0.528  0.5280  0.5018  0.9795
17682TIP3    H274538   1.196   3.064   0.467  1.9299 -0.3811 -1.8900
17683TIP3   OH274539   2.263   0.885  13.040 -0.7960  0.1526  0.1366
17683TIP3    H174540   2.296   0.817  13.098 -1.3927  0.6895  1.1434
17683TIP3    H274541   2.336   0.906  12.982 -0.5575 -1.2194 -0.0861
17684TIP3   OH274542   3.027   6.230   3.426  0.4435 -0.1528 -0.0092
17684TIP3    H174543   3.071   6.159   3.473  0.4615 -0.6413 -0.7542
17684TIP3    H274544   3.047   6.308   3.477 -1.2079 -0.9282  1.9612
17685TIP3   OH274545   2.986   5.773   1.199 -0.4967  0.5450  0.2151
17685TIP3    H174546   3.030   5.820   1.129 -1.1952  0.0260 -0.5805
17685TIP3    H274547   2.937   5.841   1.246  0.9007  1.0863  0.9569
17686TIP3   OH274548   2.814   5.556   2.981 -0.2616 -0.4525  0.7970
17686TIP3    H174549   2.840   5.603   3.060  0.7093 -1.0945  0.8839
17686TIP3    H274550   2.779   5.623   2.923  0.0203  0.1913  1.3627
17687TIP3   OH274551   0.037   2.459  14.919  0.2210 -0.2165  0.1099
17687TIP3    H174552  -0.007   2.408  14.988 -0.4612  1.6329  1.0960
17687TIP3    H274553   0.007   2.418  14.838 -1.1344 -0.7514  0.8432
17688TIP3   OH274554   3.546   5.408   6.145 -0.2986 -0.4625 -0.1023
17688TIP3    H174555   3.506   5.461   6.078  0.4582  1.3938  0.8481
17688TIP3    H274556   3.551   5.465   6.222  2.4924 -1.1262  0.3405
17689TIP3   OH274557   4.884   4.543  14.035 -0.3225 -0.1729 -0.3188
17689TIP3    H174558   4.963   4.594  14.017  0.3158 -1.5522 -1.6163
17689TIP3    H274559   4.830   4.553  13.957 -2.0601  1.7276  1.0060
17690TIP3   OH274560   0.839   6.531  17.664 -0.3901 -0.2192 -0.1465
17690TIP3    H174561   0.929   6.500  17.657  0.2993  0.1113  4.2037
17690TIP3    H274562   0.789   6.454  17.690 -0.4754  0.3231  1.4409
17691TIP3   OH274563   2.906   4.430  15.876  0.2970 -0.4967 -0.3864
17691TIP3    H174564   2.855   4.400  15.801  0.9967  0.2029 -1.1607
17691TIP3    H274565   2.844   4.483  15.927  0.3370  0.7585 -1.5783
17692TIP3   OH274566   6.465   5.636  12.587 -0.3042  0.0856 -1.3212
17692TIP3    H174567   6.429   5.722  12.609 -0.8017 -0.5595  0.5425
17692TIP3    H274568   6.423   5.575  12.648 -1.5240 -1.8691 -3.8731
17693TIP3   OH274569   4.904   3.265  14.848 -0.0737  0.2003  0.1930
17693TIP3    H174570   4.827   3.226  14.807 -0.0314  0.2718  0.0457
17693TIP3    H274571   4.965   3.278  14.776  0.4307 -0.6885  0.4374
17694TIP3   OH274572   6.572   0.011  13.708 -0.0810  0.8154  0.0256
17694TIP3    H174573   6.565   0.107  13.707  0.6035  0.8714 -0.9732
17694TIP3    H274574   6.632  -0.008  13.781  1.4327  1.3074 -1.0325
17695TIP3   OH274575   0.316   4.410  13.952 -0.2781 -0.7090  0.2924
17695TIP3    H174576   0.271   4.332  13.920  1.7039 -1.5339 -0.6728
17695TIP3    H274577   0.385   4.425  13.887 -0.0376  1.3002  0.9740
17696TIP3   OH274578   5.088   6.693  16.557  0.4004 -0.8382 -0.3565
17696TIP3    H174579   5.097   6.770  16.612  1.1118 -1.6417  0.6986
17696TIP3    H274580   5.087   6.727  16.468  0.5503  0.3916  0.0938
17697TIP3   OH274581   0.247   2.078  12.833  0.0904  0.4006 -0.1517
17697TIP3    H174582   0.221   1.987  12.821  1.2169  0.2796 -1.8615
17697TIP3    H274583   0.337   2.074  12.864  0.6864  0.9362 -1.7446
17698TIP3   OH274584   2.744   3.663   0.084 -0.1965  0.2437  0.5109
17698TIP3    H174585   2.777   3.575   0.104  2.5155  0.7809 -1.0959
17698TIP3    H274586   2.727   3.661  -0.010  0.9479  1.6970  0.2421
17699TIP3   OH274587   6.119   2.120  13.829 -0.1323 -0.0216  0.2284
17699TIP3    H174588   6.181   2.048  13.839 -0.6081 -0.2640  1.5221
17699TIP3    H274589   6.091   2.141  13.918 -0.5585  1.2802 -0.1916
17700TIP3   OH274590   4.961   3.058  13.292 -0.5422  0.1279  0.6850
17700TIP3    H174591   5.038   3.003  13.306  0.3337  1.3086  0.6599
17700TIP3    H274592   4.980   3.139  13.340 -0.6275  1.4401 -1.3993
17701TIP3   OH274593   3.407   5.319   3.338 -0.1792  0.6245 -0.1624
17701TIP3    H174594   3.401   5.278   3.424  1.4781  1.8246  0.5729
17701TIP3    H274595   3.320   5.354   3.322 -0.9060 -0.8678  0.3464
17702TIP3   OH274596   3.124   2.241   1.447 -0.1662 -0.1939 -0.3139
17702TIP3    H174597   3.171   2.188   1.383 -0.6907  0.6336 -1.4152
17702TIP3    H274598   3.077   2.306   1.394 -0.4753  0.6170  0.9283
17703TIP3   OH274599   6.191   5.027   0.475 -0.1271 -0.5827  0.0661
17703TIP3    H174600   6.108   4.980   0.481  0.6620 -2.1122 -0.4146
17703TIP3    H274601   6.183   5.099   0.538 -2.2021 -0.0419 -0.7221
17704TIP3   OH274602   3.945   0.726   3.855  0.2179  0.1627 -0.1394
17704TIP3    H174603   3.940   0.815   3.819 -0.0520  0.7611  1.2897
17704TIP3    H274604   3.866   0.683   3.825 -0.2691  0.8197  0.1686
17705TIP3   OH274605   0.279   4.900   2.093  0.1726  0.2883 -0.1025
17705TIP3    H174606   0.237   4.951   2.024  1.9792  3.1508  0.7423
17705TIP3    H274607   0.349   4.853   2.049 -0.0401  0.3826 -0.5411
17706TIP3   OH274608   2.826   4.537  12.229  0.1402 -0.7288  0.3116
17706TIP3    H174609   2.883   4.583  12.290 -0.5845 -1.5925  1.6982
17706TIP3    H274610   2.885   4.502  12.162  0.8957  0.6171  0.2510
17707TIP3   OH274611   5.794   5.307  15.814  0.1715 -0.2282 -0.8745
17707TIP3    H174612   5.701   5.288  15.809  0.4125 -2.0418  0.2197
17707TIP3    H274613   5.831   5.270  15.733  0.2454 -1.9594 -0.0920
17708TIP3   OH274614   4.088   6.507  14.649  0.2246  0.1662  0.3057
17708TIP3    H174615   4.008   6.484  14.696 -0.5689  0.5694 -0.8022
17708TIP3    H274616   4.074   6.597  14.620 -0.4969 -0.8770 -2.9932
17709TIP3   OH274617   5.795   1.882   4.907  0.0173  0.3781 -0.0354
17709TIP3    H174618   5.810   1.883   5.001 -2.3740 -0.1073  0.4272
17709TIP3    H274619   5.865   1.827   4.872  1.9081  1.8694  1.1993
17710TIP3   OH274620   6.180   5.890   3.262 -0.4499 -0.2678  0.2144
17710TIP3    H174621   6.242   5.817   3.268 -1.5913 -1.3358 -0.5145
17710TIP3    H274622   6.100   5.856   3.302 -0.0954  1.7159  2.8900
17711TIP3   OH274623   2.739   6.234  16.075  0.3707 -0.0220  0.3889
17711TIP3    H174624   2.765   6.145  16.054 -2.8592 -0.7133 -1.4565
17711TIP3    H274625   2.659   6.224  16.127  0.5426  1.8107  1.0899
17712TIP3   OH274626   2.544   0.208   3.355 -0.2450  0.3305  0.2630
17712TIP3    H174627   2.619   0.218   3.296  0.5630 -1.2748  0.9492
17712TIP3    H274628   2.556   0.277   3.420  0.7834 -0.0175  0.4765
17713TIP3   OH274629   3.545   2.812  13.575  0.2889  0.2051 -0.2350
17713TIP3    H174630   3.639   2.811  13.556  0.7056 -2.1777  1.5829
17713TIP3    H274631   3.531   2.896  13.620  1.6582  0.3442 -0.0198
17714TIP3   OH274632   2.845   4.345  14.970 -0.1538 -0.4437  0.5624
17714TIP3    H174633   2.794   4.314  15.045  0.0653 -1.4109  0.3258
17714TIP3    H274634   2.823   4.438  14.963 -1.2329 -0.6468  0.9912
17715TIP3   OH274635   2.429   3.110  15.019  0.2463 -0.2736  0.6355
17715TIP3    H174636   2.520   3.113  15.048  0.7929 -0.6594 -0.9079
17715TIP3    H274637   2.411   3.017  15.008  0.2156 -0.1408 -0.6000
17716TIP3   OH274638   4.052   0.441  15.433 -0.0962  0.3468  0.2917
17716TIP3    H174639   3.966   0.475  15.456 -0.0705  1.3295 -0.9343
17716TIP3    H274640   4.045   0.346  15.444 -1.2026  0.4573  0.5941
17717TIP3   OH274641   2.443   2.852  14.847  0.2684  0.2825 -0.3007
17717TIP3    H174642   2.450   2.907  14.770 -2.2678 -0.9338 -1.4969
17717TIP3    H274643   2.417   2.766  14.814 -0.0363 -0.5185  1.8291
17718TIP3   OH274644   3.602   6.612   2.150  0.2485 -0.5182 -0.8546
17718TIP3    H174645   3.512   6.620   2.182  0.8415  0.4179  0.6627
17718TIP3    H274646   3.635   6.702   2.149  1.7396 -1.0129  0.3797
17719TIP3   OH274647   3.114   5.261  15.266 -0.2681  0.1414 -0.1713
17719TIP3    H174648   3.049   5.319  15.306  1.0621  1.2968  0.3929
17719TIP3    H274649   3.083   5.173  15.284 -0.2497  0.6260  2.5275
17720TIP3   OH274650   1.635   3.812   4.190 -0.0927  0.1392 -0.7445
17720TIP3    H174651   1.595   3.848   4.270 -0.7290 -1.5538 -0.2606
17720TIP3    H274652   1.565   3.763   4.148  0.8586 -0.9568 -1.1034
17721TIP3   OH274653   1.030   4.399   3.413 -0.2375  0.2181  0.1571
17721TIP3    H174654   0.994   4.432   3.495  1.3440  1.7604  0.2710
17721TIP3    H274655   1.123   4.389   3.429 -0.0823 -0.5798 -1.1039
17722TIP3   OH274656   4.286   4.161   2.426 -0.3083  0.2237  0.4555
17722TIP3    H174657   4.208   4.199   2.386 -0.6678 -0.2686  0.6825
17722TIP3    H274658   4.265   4.154   2.519 -0.5089 -1.1588  0.3181
17723TIP3   OH274659   5.740   6.558   5.601  0.4437 -0.6279  0.2887
17723TIP3    H174660   5.788   6.622   5.548 -0.3937 -0.3369 -0.1539
17723TIP3    H274661   5.795   6.542   5.677  1.6955 -1.0713 -0.6862
17724TIP3   OH274662   4.435   1.233  12.979 -0.0977 -0.3044 -0.4617
17724TIP3    H174663   4.384   1.158  13.009  0.2424 -0.1631  0.4974
17724TIP3    H274664   4.421   1.300  13.045 -1.4524  0.9801 -1.9665
17725TIP3   OH274665   6.211   0.694   0.134  0.0148 -0.1237  0.4060
17725TIP3    H174666   6.213   0.611   0.087 -0.2075 -0.4833  1.0167
17725TIP3    H274667   6.184   0.671   0.223 -3.4850  0.9740 -0.2359
17726TIP3   OH274668   2.463   0.677   1.062  0.1967  0.0738 -0.2165
17726TIP3    H174669   2.535   0.689   1.000 -0.1387 -3.0284 -1.3756
17726TIP3    H274670   2.504   0.639   1.140  0.0358 -0.4155 -0.3618
17727TIP3   OH274671   4.136   6.126  12.937  0.5714  0.1494  0.2401
17727TIP3    H174672   4.185   6.206  12.918  0.2623  0.8133  2.0351
17727TIP3    H274673   4.045   6.150  12.924  0.5039 -0.0449  0.3428
17728TIP3   OH274674   6.293   5.244  11.247  0.6269  0.1967 -0.1771
17728TIP3    H174675   6.259   5.301  11.177 -0.6227  0.0477  0.2778
17728TIP3    H274676   6.235   5.261  11.321  1.3433 -0.3674  0.5256
17729TIP3   OH274677   3.894   4.160   6.599 -0.3191 -0.3437  0.7363
17729TIP3    H174678   3.974   4.109   6.613  0.2634  0.4407  0.3507
17729TIP3    H274679   3.869   4.190   6.686 -0.5749 -1.1296  0.9440
17730TIP3   OH274680   2.602   4.048  14.410  0.5104  0.0776  0.9346
17730TIP3    H174681   2.654   4.060  14.331 -0.7968 -0.1563  0.0049
17730TIP3    H274682   2.513   4.035  14.378 -0.1016  0.3246  2.4701
17731TIP3   OH274683   2.793   0.522  17.506  0.0850 -0.3763 -0.0356
17731TIP3    H174684   2.717   0.479  17.468  0.4562 -1.0318 -0.0525
17731TIP3    H274685   2.806   0.601  17.453 -2.3178  1.3464  1.7171
17732TIP3   OH274686   4.937   1.183  12.475 -0.2490 -0.0839  0.1044
17732TIP3    H174687   4.970   1.132  12.401 -0.8545 -1.3102  0.6647
17732TIP3    H274688   5.005   1.249  12.491  0.6141 -0.8022 -0.5363
17733TIP3   OH274689   0.865   0.959   0.355  0.1348  0.0949  0.1777
17733TIP3    H174690   0.859   1.055   0.357 -0.6107  0.0563 -0.0523
17733TIP3    H274691   0.796   0.932   0.295 -2.3528 -0.8130  3.2057
17734TIP3   OH274692   3.195   0.222   1.009 -0.3870  0.4646  0.0371
17734TIP3    H174693   3.189   0.263   0.923 -1.9632  0.2487  0.0133
17734TIP3    H274694   3.152   0.284   1.068 -1.2152 -0.3354  0.2976
17735TIP3   OH274695   5.190   6.130  12.623 -0.5988 -0.0657  0.3493
17735TIP3    H174696   5.227   6.043  12.611  0.1710  0.1579  1.0086
17735TIP3    H274697   5.168   6.134  12.716  0.5691  0.8847  0.6060
17736TIP3   OH274698   4.311   0.644   4.684 -0.4992  0.7452 -0.7338
17736TIP3    H174699   4.329   0.655   4.590  0.2152  0.6078 -0.6215
17736TIP3    H274700   4.340   0.555   4.703  1.5744  1.5403  0.0897
17737TIP3   OH274701   3.609   2.763   5.177 -0.4233  0.2618 -0.2066
17737TIP3    H174702   3.599   2.669   5.162  0.6888 -0.2623  1.8782
17737TIP3    H274703   3.657   2.795   5.100 -0.1386 -1.0178 -0.5863
17738TIP3   OH274704   0.845   2.431  15.302  0.0893 -0.5353 -0.3962
17738TIP3    H174705   0.807   2.366  15.361  0.3710  0.9172  1.4666
17738TIP3    H274706   0.795   2.421  15.221 -0.2880 -2.6186  0.0189
17739TIP3   OH274707   3.796   0.682   0.971 -0.2603 -0.1682  0.1481
17739TIP3    H174708   3.786   0.746   1.041 -0.1759 -1.0349  0.9751
17739TIP3    H274709   3.840   0.730   0.900  1.5488  0.2158  1.4607
17740TIP3   OH274710   2.354   0.303   5.101 -0.4735  0.2101  0.0760
17740TIP3    H174711   2.277   0.355   5.079 -1.0547 -0.9967 -0.8277
17740TIP3    H274712   2.320   0.227   5.147  0.3225  0.3772  0.9703
17741TIP3   OH274713   3.290   3.626   6.730 -0.6594 -0.0166 -0.4404
17741TIP3    H174714   3.209   3.672   6.751 -0.2367  0.7997 -0.5384
17741TIP3    H274715   3.275   3.589   6.643 -1.0033 -0.0609 -0.3637
17742TIP3   OH274716   5.023   6.441   3.390  0.1353 -0.0315  0.1386
17742TIP3    H174717   5.002   6.495   3.466  1.3324 -0.6827  0.9648
17742TIP3    H274718   5.087   6.493   3.341 -2.3189  1.4248 -1.7374
17743TIP3   OH274719   5.540   1.640   1.991 -0.6383  0.0710  0.0985
17743TIP3    H174720   5.494   1.653   2.074 -0.9218  0.1721 -0.0715
17743TIP3    H274721   5.505   1.709   1.933  1.4722  1.7270  0.6661
17744TIP3   OH274722   0.042   6.436   6.171  0.5367 -0.3137  0.1757
17744TIP3    H174723  -0.011   6.379   6.116 -0.6559  0.7048  0.2534
17744TIP3    H274724   0.031   6.524   6.135  1.2271  0.0944  0.9116
17745TIP3   OH274725   4.163   5.401   1.817 -0.6555  0.4521 -0.3265
17745TIP3    H174726   4.232   5.335   1.823  1.2060  2.3628  0.2559
17745TIP3    H274727   4.090   5.363   1.865  0.5294 -0.9618  0.4363
17746TIP3   OH274728   1.119   4.108   0.541 -0.1508 -0.4287  0.1125
17746TIP3    H174729   1.078   4.123   0.626 -0.4184 -1.4649  0.1778
17746TIP3    H274730   1.048   4.079   0.484  0.1716 -0.4923 -0.2616
17747TIP3   OH274731   1.443   5.158   6.641 -0.3660 -0.2357 -0.0957
17747TIP3    H174732   1.453   5.208   6.722 -0.0872 -0.2657 -0.1080
17747TIP3    H274733   1.429   5.224   6.573 -2.3394 -0.2892  0.2120
17748TIP3   OH274734   4.340   0.457  10.915 -0.4317  0.0870 -0.8176
17748TIP3    H174735   4.369   0.504  10.837 -2.3505  0.4616 -1.3671
17748TIP3    H274736   4.270   0.399  10.883 -0.1517 -0.9451  0.3645
17749TIP3   OH274737   5.369   4.488  14.912 -0.6499 -0.4913 -0.2870
17749TIP3    H174738   5.416   4.488  14.995 -0.1616 -0.2187 -0.5557
17749TIP3    H274739   5.348   4.580  14.896  0.0320 -0.4237 -0.8800
17750TIP3   OH274740   6.416   0.118   4.263  0.4649  0.4216 -0.5360
17750TIP3    H174741   6.346   0.091   4.204  1.9172 -2.3765 -1.1878
17750TIP3    H274742   6.394   0.078   4.347  1.5833 -1.2281 -0.9624
17751TIP3   OH274743   3.766   5.910  16.547  0.0738 -0.4522 -0.8460
17751TIP3    H174744   3.764   5.942  16.456 -0.5574  2.8858  0.1772
17751TIP3    H274745   3.827   5.969  16.591 -1.6209 -0.2220  1.3946
17752TIP3   OH274746   3.152   0.502   5.624 -0.6719 -0.7507 -0.8497
17752TIP3    H174747   3.130   0.502   5.717  1.0335 -0.0626 -0.4054
17752TIP3    H274748   3.138   0.593   5.597  0.0040 -0.6705 -0.9478
17753TIP3   OH274749   0.643   5.951  14.564 -0.5796 -0.2487 -0.0512
17753TIP3    H174750   0.606   5.919  14.482 -0.6741  0.4778 -0.2967
17753TIP3    H274751   0.680   6.037  14.542 -0.8590  0.0750  0.7251
17754TIP3   OH274752   6.055   0.303   2.619  0.5476  0.4563 -0.0504
17754TIP3    H174753   6.086   0.369   2.557 -1.1536 -0.2865 -1.7842
17754TIP3    H274754   6.034   0.353   2.699  2.0337  1.5441 -0.3103
17755TIP3   OH274755   6.359   0.765  14.116 -0.2377 -0.1568  0.0095
17755TIP3    H174756   6.426   0.833  14.111 -0.5966  0.2261  0.4139
17755TIP3    H274757   6.401   0.694  14.166  0.6757 -0.8845 -1.7032
17756TIP3   OH274758   2.481   4.282  12.123  0.4868  0.3217  0.1245
17756TIP3    H174759   2.390   4.294  12.096  0.0373 -1.0745  0.9095
17756TIP3    H274760   2.497   4.353  12.186 -0.1644  0.3769  0.2303
17757TIP3   OH274761   1.574   2.848   6.335 -0.1000  0.0461 -0.1384
17757TIP3    H174762   1.589   2.838   6.429 -1.4495 -0.2630  0.0701
17757TIP3    H274763   1.586   2.760   6.299  0.1842  0.1190 -0.2276
17758TIP3   OH274764   0.025   2.055  11.770 -0.6642 -0.3287 -0.2368
17758TIP3    H174765   0.005   2.101  11.851 -1.7524  0.7643 -1.0946
17758TIP3    H274766   0.040   1.964  11.797  0.3107  0.2485  1.3287
17759TIP3   OH274767   3.847   0.658  11.274 -0.1693  0.0429 -0.4968
17759TIP3    H174768   3.792   0.733  11.298  0.7968  0.1038  1.7697
17759TIP3    H274769   3.791   0.604  11.218 -0.9854  2.2702 -1.9412
17760TIP3   OH274770   5.648   2.386  14.169 -0.0965 -0.2836 -0.7846
17760TIP3    H174771   5.665   2.308  14.223 -0.0442 -0.0040 -0.3950
17760TIP3    H274772   5.736   2.418  14.146 -0.0949  0.2553 -0.0773
17761TIP3   OH274773   6.395   5.225   5.940  1.0661 -0.4235 -0.3856
17761TIP3    H174774   6.359   5.232   6.028 -0.2881 -1.0161 -0.8541
17761TIP3    H274775   6.488   5.242   5.950  0.3695  4.0672  0.4969
17762TIP3   OH274776   5.683   5.991   1.614  0.3449  0.3588  0.0534
17762TIP3    H174777   5.701   5.902   1.583  0.7714  0.2829  0.5003
17762TIP3    H274778   5.609   6.021   1.561  1.3267  0.4052 -1.3507
17763TIP3   OH274779   2.707   0.022  15.424  0.2425 -0.0469 -0.0485
17763TIP3    H174780   2.757  -0.027  15.490  0.7086 -1.0952 -1.1372
17763TIP3    H274781   2.694  -0.040  15.353 -0.2248  1.0609 -0.9647
17764TIP3   OH274782   5.171   0.240   2.339 -0.4702 -0.5690  0.1475
17764TIP3    H174783   5.095   0.186   2.320 -1.1938  0.3287  0.3919
17764TIP3    H274784   5.168   0.309   2.273  0.0145 -0.4140  0.2849
17765TIP3   OH274785   1.189   4.442  13.042  1.0100  0.0035  0.2463
17765TIP3    H174786   1.164   4.357  13.079  0.7375  0.6019  1.5066
17765TIP3    H274787   1.109   4.473  12.999  1.0514 -0.2891 -0.0441
17766TIP3   OH274788   3.636   3.832  16.913 -0.0162  0.6994  0.5323
17766TIP3    H174789   3.623   3.815  16.820 -0.3440  1.7332  0.3769
17766TIP3    H274790   3.572   3.777  16.957  1.7253 -1.6632  0.3253
17767TIP3   OH274791   3.154   4.824  12.577  0.1895 -0.2286 -0.5532
17767TIP3    H174792   3.192   4.907  12.548  2.7097 -1.0974  0.0191
17767TIP3    H274793   3.125   4.841  12.667  0.3429  0.1183 -0.5663
17768TIP3   OH274794   5.950   6.121   0.887  0.2353  0.1529 -0.1566
17768TIP3    H174795   6.016   6.178   0.847 -1.2574  2.0867 -0.0272
17768TIP3    H274796   5.984   6.104   0.975  0.6771  0.9568 -0.1547
17769TIP3   OH274797   0.869   6.631  14.641  0.2071 -0.4664  0.5257
17769TIP3    H174798   0.792   6.616  14.587  2.0260  0.1460 -2.4888
17769TIP3    H274799   0.835   6.645  14.730 -2.8750 -2.9450 -0.0892
17770TIP3   OH274800   6.180   3.615   6.748 -0.5392  0.2584  0.7629
17770TIP3    H174801   6.112   3.651   6.805 -1.4857  0.0602 -0.2185
17770TIP3    H274802   6.192   3.525   6.779 -1.5926 -0.0904  0.1809
17771TIP3   OH274803   6.644   0.968  14.734  0.0593 -0.4514 -0.2326
17771TIP3    H174804   6.597   0.885  14.722  1.1187 -1.0836 -0.2200
17771TIP3    H274805   6.736   0.942  14.736  0.6601  1.0360 -3.1652
17772TIP3   OH274806   2.906   2.968   3.136 -0.1016 -0.3896  0.4193
17772TIP3    H174807   2.892   2.984   3.043  2.5079 -1.9468 -0.3471
17772TIP3    H274808   2.866   3.043   3.180 -0.5062  0.9086 -2.0026
17773TIP3   OH274809   5.157   4.472  15.219 -0.4061 -0.2464 -0.2509
17773TIP3    H174810   5.092   4.487  15.287 -1.8255  1.2742 -1.8428
17773TIP3    H274811   5.170   4.377  15.218 -1.1197 -0.3861  1.4143
17774TIP3   OH274812   0.466   0.456   0.671 -0.0102  0.8724  0.4355
17774TIP3    H174813   0.459   0.533   0.616  0.4692  1.5808  1.3242
17774TIP3    H274814   0.418   0.479   0.751  0.7932  0.5598  1.0230
17775TIP3   OH274815   4.956   1.146  15.298 -0.3878 -0.3297  0.4853
17775TIP3    H174816   5.050   1.150  15.286 -0.3873 -0.9056  0.2483
17775TIP3    H274817   4.944   1.147  15.393 -0.0541 -1.6111  0.5623
17776TIP3   OH274818   5.956   6.478  16.044  0.6619  0.4173  0.2804
17776TIP3    H174819   6.018   6.493  16.115 -0.2072 -2.5619  1.8638
17776TIP3    H274820   5.991   6.527  15.970  3.3773  1.0531  1.8591
17777TIP3   OH274821   5.904   6.147  15.765  0.2470 -0.0429 -0.2962
17777TIP3    H174822   5.896   6.213  15.696  0.4435  0.2076 -0.0799
17777TIP3    H274823   5.814   6.118  15.780  0.1697  0.1059 -0.4612
17778TIP3   OH274824   2.548   2.080  17.325  0.6860  0.1930 -0.1461
17778TIP3    H174825   2.526   2.172  17.337  0.6042  0.0853  0.6228
17778TIP3    H274826   2.463   2.036  17.313  0.2832 -0.2978  3.3487
17779TIP3   OH274827   6.019   1.995   1.719  0.2088 -0.1089 -0.2230
17779TIP3    H174828   6.067   2.075   1.742 -2.3910  1.6074 -0.3174
17779TIP3    H274829   5.998   1.955   1.804  1.0718 -0.4200 -0.1517
17780TIP3   OH274830   4.874   2.097  16.938  0.1649 -0.0393  0.1234
17780TIP3    H174831   4.920   2.180  16.923 -2.5304  1.3184 -1.5315
17780TIP3    H274832   4.787   2.111  16.899 -0.2687 -3.8277 -0.6289
17781TIP3   OH274833   5.853   2.052   3.332  0.6147  0.6914  0.5942
17781TIP3    H174834   5.894   1.965   3.334 -1.6797 -0.4867 -0.3640
17781TIP3    H274835   5.908   2.102   3.271 -0.5914 -1.5838 -2.6196
17782TIP3   OH274836   2.371   0.931   6.144 -0.0202 -0.3851  0.1398
17782TIP3    H174837   2.353   0.996   6.076 -0.9480 -1.0020 -0.2217
17782TIP3    H274838   2.291   0.926   6.195  0.2425 -0.8307  0.5194
17783TIP3   OH274839   2.559   1.002   2.665  0.0158 -0.0163  0.1574
17783TIP3    H174840   2.508   0.977   2.741 -1.6968 -1.1367 -1.2627
17783TIP3    H274841   2.649   1.004   2.696 -0.3877 -2.4227  1.7717
17784TIP3   OH274842   3.963   3.062   4.421 -0.0752 -0.4350 -0.0593
17784TIP3    H174843   3.945   3.034   4.331  0.1437 -1.6529  0.2605
17784TIP3    H274844   3.934   2.989   4.475 -2.1773  1.1130  1.0330
17785TIP3   OH274845   0.112   0.098  11.496  0.4059  0.0826  0.0687
17785TIP3    H174846   0.059   0.130  11.423 -0.4566  0.3580  0.8002
17785TIP3    H274847   0.090   0.005  11.504 -1.2896  0.5386  1.4193
17786TIP3   OH274848   4.970   6.393   0.967 -0.1334 -0.2568  0.0636
17786TIP3    H174849   4.938   6.318   1.016 -0.0359 -0.1155  0.3463
17786TIP3    H274850   4.944   6.376   0.877 -1.0446 -0.1199  0.2972
17787TIP3   OH274851   1.856   4.486   4.440 -0.6812  0.0765 -0.1238
17787TIP3    H174852   1.949   4.508   4.447 -0.4463 -1.2102  1.5293
17787TIP3    H274853   1.829   4.467   4.530 -2.1416 -1.0925 -0.7606
17788TIP3   OH274854   2.443   4.507   1.686 -0.3601 -0.1938  0.1608
17788TIP3    H174855   2.499   4.466   1.619 -0.0682 -1.7595  1.3034
17788TIP3    H274856   2.356   4.470   1.670 -0.3051 -0.5155  0.5778
17789TIP3   OH274857   4.659   3.584   4.354 -0.0669  0.0081  0.1662
17789TIP3    H174858   4.672   3.493   4.380 -0.9688 -0.8241 -2.0142
17789TIP3    H274859   4.648   3.581   4.259  0.7265  2.5096 -0.0968
17790TIP3   OH274860   0.556   4.246  15.828 -0.5543 -0.0656 -0.1645
17790TIP3    H174861   0.512   4.207  15.752 -1.5002  1.3759 -0.4127
17790TIP3    H274862   0.632   4.290  15.791 -0.4046 -0.2955 -0.1263
17791TIP3   OH274863   2.001   2.684  11.619  0.0632 -0.5456  0.5442
17791TIP3    H174864   1.973   2.684  11.528  1.4024  2.1458  0.0280
17791TIP3    H274865   1.948   2.616  11.661 -0.4388 -2.0114 -2.2379
17792TIP3   OH274866   2.216   1.285  13.633  0.0720 -0.2551 -0.0870
17792TIP3    H174867   2.258   1.363  13.670 -2.0830  0.4140  1.1308
17792TIP3    H274868   2.122   1.301  13.644 -0.4537 -2.7741 -0.3422
17793TIP3   OH274869   2.732   3.298   1.553 -0.3164 -0.3411  0.8997
17793TIP3    H174870   2.796   3.342   1.498  0.3432  0.1421  2.0213
17793TIP3    H274871   2.734   3.345   1.636 -1.3901 -0.9569  1.3096
17794TIP3   OH274872   4.402   2.468  17.211 -0.3156 -0.2472 -0.0267
17794TIP3    H174873   4.372   2.530  17.277 -1.8033 -1.1358  0.1654
17794TIP3    H274874   4.495   2.489  17.199 -0.6368  1.6198  0.4488
17795TIP3   OH274875   2.114   1.775  12.714 -0.5259 -0.4730  0.1101
17795TIP3    H174876   2.108   1.766  12.809  0.1382 -1.3439  0.0772
17795TIP3    H274877   2.059   1.704  12.679  0.8002 -1.4205 -0.1421
17796TIP3   OH274878   6.676   1.098   3.835 -0.4549 -0.0826 -1.2619
17796TIP3    H174879   6.731   1.031   3.795  1.0607  0.5378 -0.3037
17796TIP3    H274880   6.622   1.050   3.898  1.6565 -0.2884  0.5006
17797TIP3   OH274881   2.746   6.276   6.475 -0.0476  0.1400  0.8960
17797TIP3    H174882   2.786   6.302   6.558  0.7484  1.0600  0.2543
17797TIP3    H274883   2.789   6.193   6.453 -1.3199 -0.8817  2.0897
17798TIP3   OH274884   1.964   5.639  15.192  0.0158 -0.0993 -0.0921
17798TIP3    H174885   2.050   5.662  15.227 -1.2872  0.8786  2.7411
17798TIP3    H274886   1.914   5.720  15.196 -1.2129 -0.7838 -1.1565
17799TIP3   OH274887   6.224   5.128  15.331  0.0707 -0.1694  0.0562
17799TIP3    H174888   6.259   5.156  15.416  1.5716  1.2691 -0.9638
17799TIP3    H274889   6.143   5.082  15.352  0.0643  0.7137  2.2213
17800TIP3   OH274890   2.652   5.544   5.823  0.1389  0.6506 -1.1177
17800TIP3    H174891   2.599   5.612   5.864 -0.1896 -1.2494  1.8879
17800TIP3    H274892   2.742   5.564   5.850  0.0865  0.1530 -0.5444
17801TIP3   OH274893   4.257   1.111   2.444  0.5017 -0.6591 -0.3163
17801TIP3    H174894   4.273   1.096   2.351  0.6952  1.5551 -0.7124
17801TIP3    H274895   4.213   1.032   2.475 -0.8272 -0.8881 -2.6017
17802TIP3   OH274896   2.936   2.086   1.609 -0.6909 -0.4404  0.1751
17802TIP3    H174897   2.868   2.063   1.546  0.4062  0.2928 -1.3213
17802TIP3    H274898   2.987   2.155   1.566  0.8675 -0.8041  1.3381
17803TIP3   OH274899   2.629   6.497  15.610 -0.4217  0.5398  0.1016
17803TIP3    H174900   2.632   6.505  15.706 -0.2421  2.9933 -0.0692
17803TIP3    H274901   2.538   6.515  15.587 -0.4315  0.1033 -0.2127
17804TIP3   OH274902   6.308   1.600  15.924 -0.1100  0.6786 -0.7692
17804TIP3    H174903   6.336   1.637  16.008 -1.7330  0.5027 -0.1075
17804TIP3    H274904   6.389   1.583  15.877  0.8496  0.7212  0.7927
17805TIP3   OH274905   0.100   2.727   5.858  0.0323 -0.6491 -0.3078
17805TIP3    H174906   0.166   2.707   5.791  1.3009 -1.3564  1.0920
17805TIP3    H274907   0.100   2.822   5.864  0.0081 -0.5801 -1.1880
17806TIP3   OH274908   4.248   2.423  15.340 -0.0788 -0.1434  0.2493
17806TIP3    H174909   4.341   2.402  15.345  0.0036  0.2910  0.6114
17806TIP3    H274910   4.208   2.375  15.413 -0.3052 -1.1539 -0.5194
17807TIP3   OH274911   5.110   4.406   6.261  0.8803 -0.2886 -0.5052
17807TIP3    H174912   5.157   4.358   6.193  1.4031 -1.1528  0.4444
17807TIP3    H274913   5.104   4.345   6.334  0.4715  0.6765  0.2884
17808TIP3   OH274914   2.034   6.387  13.587 -0.4034 -0.0732 -0.5965
17808TIP3    H174915   2.016   6.445  13.661 -2.0118  0.7888 -1.6181
17808TIP3    H274916   2.128   6.370  13.593 -0.3371  0.6829  1.1221
17809TIP3   OH274917   0.851   4.725   4.494  0.3753  0.2834  0.3002
17809TIP3    H174918   0.827   4.633   4.484 -0.1152  0.3658  0.6836
17809TIP3    H274919   0.925   4.737   4.434 -0.9126  0.1887 -1.3732
17810TIP3   OH274920   2.788   0.036   2.460 -0.2741 -0.0538 -0.5056
17810TIP3    H174921   2.766   0.108   2.400 -0.6366  0.8138  0.6258
17810TIP3    H274922   2.879   0.013   2.438 -0.4367  0.1745 -1.4443
17811TIP3   OH274923   2.657   0.857   3.304 -0.1258  0.3051  0.2084
17811TIP3    H174924   2.732   0.866   3.363 -0.1095  1.7028  0.0214
17811TIP3    H274925   2.602   0.791   3.344  1.6639 -1.5070 -0.1598
17812TIP3   OH274926   6.388   2.010  14.130 -0.0630 -0.1254  0.5459
17812TIP3    H174927   6.308   2.035  14.178 -1.1833 -2.7374  0.2071
17812TIP3    H274928   6.378   2.051  14.044  0.0843  1.3962  1.2216
17813TIP3   OH274929   2.527   5.957  16.507  0.0594  0.3704 -0.2213
17813TIP3    H174930   2.437   5.974  16.534 -0.6734 -1.4402 -1.3201
17813TIP3    H274931   2.541   6.012  16.430  0.0203  0.9145  0.1585
17814TIP3   OH274932   1.274   2.569  12.548 -0.2210 -0.4585  0.2226
17814TIP3    H174933   1.188   2.543  12.582 -0.7141 -0.4874 -0.9805
17814TIP3    H274934   1.316   2.486  12.526  0.9767 -0.5953  2.6619
17815TIP3   OH274935   1.615   4.640  17.275  0.4039 -0.1779  0.5032
17815TIP3    H174936   1.554   4.569  17.254  0.6842 -0.3001  0.0884
17815TIP3    H274937   1.605   4.701  17.203  1.5887 -0.7404 -0.1535
17816TIP3   OH274938   5.497   1.923  11.742 -0.1128  0.2289 -0.3086
17816TIP3    H174939   5.587   1.890  11.744 -0.4623 -1.4273 -3.8419
17816TIP3    H274940   5.442   1.844  11.739 -1.7432  1.2023  1.4525
17817TIP3   OH274941   6.062   3.847  16.378  0.0481 -0.5675  0.5288
17817TIP3    H174942   6.057   3.772  16.319  0.8339 -0.5068  0.3699
17817TIP3    H274943   5.984   3.840  16.433 -0.7808 -0.5269 -0.6225
17818TIP3   OH274944   0.380   0.608   1.170 -0.2470  0.1170  0.0968
17818TIP3    H174945   0.376   0.513   1.178  0.4124 -0.0346 -1.0893
17818TIP3    H274946   0.339   0.627   1.085  0.6053  0.7797 -0.1814
17819TIP3   OH274947   2.977   4.918  11.528 -0.3533  0.2024 -0.2334
17819TIP3    H174948   2.998   4.987  11.465  0.5704 -1.3584 -1.7260
17819TIP3    H274949   3.062   4.894  11.566  0.0924 -2.9265 -2.8470
17820TIP3   OH274950   5.045   4.966  12.223 -0.1079 -0.5953 -0.1694
17820TIP3    H174951   4.987   4.934  12.155  0.9658  0.0931 -1.4421
17820TIP3    H274952   5.125   4.992  12.177  0.8282 -0.5446  1.3991
17821TIP3   OH274953   5.558   4.369   6.590 -0.1864  0.1785  0.0621
17821TIP3    H174954   5.621   4.330   6.530 -3.1276 -1.8178 -2.0342
17821TIP3    H274955   5.549   4.459   6.561  0.3413 -0.0454 -0.8454
17822TIP3   OH274956   5.534   5.532   3.981 -1.0879 -0.1689 -0.1382
17822TIP3    H174957   5.573   5.609   3.940 -0.2849 -0.8933 -0.7817
17822TIP3    H274958   5.459   5.509   3.926  0.5620 -1.7260 -1.8683
17823TIP3   OH274959   5.087   3.363   6.024 -0.0379  0.2654 -0.4790
17823TIP3    H174960   5.008   3.394   5.980 -0.7561  0.5242  0.9404
17823TIP3    H274961   5.062   3.355   6.116  1.5825  0.3190 -0.0017
17824TIP3   OH274962   3.979   2.318  17.082  0.3089  0.1559  0.5411
17824TIP3    H174963   4.044   2.340  17.149  0.0847  0.5058  0.6450
17824TIP3    H274964   3.910   2.384  17.093  0.2355  0.1688  0.0137
17825TIP3   OH274965   1.623   1.027   5.850 -0.3535  0.2244  0.3327
17825TIP3    H174966   1.602   0.936   5.869 -0.4190  0.1593 -0.0458
17825TIP3    H274967   1.682   1.053   5.921 -1.0383  0.1592  0.9281
17826TIP3   OH274968   1.482   1.802  14.423 -0.0885 -0.0420  0.3138
17826TIP3    H174969   1.488   1.707  14.437 -0.1216 -0.2411 -0.8980
17826TIP3    H274970   1.399   1.827  14.464  0.3355 -0.3719  1.4186
17827TIP3   OH274971   2.404   5.454   0.350 -0.3674 -0.6273 -0.2753
17827TIP3    H174972   2.488   5.484   0.386 -0.6825  0.2397 -0.2420
17827TIP3    H274973   2.428   5.395   0.279  0.3122  0.7993 -1.2830
17828TIP3   OH274974   6.250   2.780   5.301 -0.0807  0.2044 -0.5317
17828TIP3    H174975   6.267   2.721   5.227  0.1035 -3.3377  2.0459
17828TIP3    H274976   6.336   2.818   5.321 -0.0598  0.8886 -1.8582
17829TIP3   OH274977   4.936   3.318   5.241  0.3072  0.1712  0.0833
17829TIP3    H174978   5.003   3.304   5.175 -0.0216  0.3322 -0.2957
17829TIP3    H274979   4.854   3.291   5.198  0.0218  0.7528  0.2398
17830TIP3   OH274980   3.007   2.317   0.190 -0.6091 -0.5433 -0.1157
17830TIP3    H174981   3.078   2.302   0.252 -0.0558  0.3907 -0.5075
17830TIP3    H274982   2.957   2.389   0.228 -0.4876 -0.2175 -0.5731
17831TIP3   OH274983   1.088   5.998   2.761  0.4547 -0.0195 -0.0520
17831TIP3    H174984   1.181   5.976   2.766 -0.0564 -2.1244  1.7215
17831TIP3    H274985   1.042   5.917   2.783 -1.8834  0.6529 -1.9709
17832TIP3   OH274986   1.506   4.897   0.249  0.2256  0.3990  0.3988
17832TIP3    H174987   1.424   4.849   0.236 -1.4724  2.3953  2.7546
17832TIP3    H274988   1.549   4.852   0.322  1.0283 -0.3045 -0.4723
17833TIP3   OH274989   4.131   1.921  15.339  0.8735 -0.0794 -0.4828
17833TIP3    H174990   4.060   1.857  15.331 -1.2565  2.1492 -0.5316
17833TIP3    H274991   4.121   1.978  15.262  1.2728  1.6536  0.6890
17834TIP3   OH274992   3.643   2.747   1.614 -0.3722  0.8665 -0.2605
17834TIP3    H174993   3.652   2.829   1.664  0.0982 -0.0553  1.2132
17834TIP3    H274994   3.656   2.774   1.523  0.2144  2.3705  0.2298
17835TIP3   OH274995   4.637   4.387  12.046  0.3935 -0.3681  0.2171
17835TIP3    H174996   4.673   4.402  11.959  0.3281  0.4383  0.3270
17835TIP3    H274997   4.565   4.449  12.054 -0.8020 -1.6879  0.1555
17836TIP3   OH274998   3.418   0.236  11.153  0.3151 -0.0150 -0.1685
17836TIP3    H174999   3.419   0.145  11.125  1.0265 -0.8345  2.3275
17836TIP3    H275000   3.505   0.252  11.188  0.3802  1.8190 -1.0582
17837TIP3   OH275001   5.315   2.439   3.997 -0.0533 -0.0404 -0.0600
17837TIP3    H175002   5.312   2.534   3.990 -0.9508 -0.0246  0.4602
17837TIP3    H275003   5.352   2.410   3.914  1.6519  0.8309  0.3437
17838TIP3   OH275004   6.705   3.049   2.457 -0.0026  0.1247  0.4136
17838TIP3    H175005   6.648   3.047   2.380 -0.8341 -2.0564  1.0134
17838TIP3    H275006   6.787   3.009   2.428 -0.0299  0.0398  0.4534
17839TIP3   OH275007   3.842   3.258  17.626  0.5290  0.5062 -0.1965
17839TIP3    H175008   3.909   3.324  17.604  0.6350  1.1457  1.8964
17839TIP3    H275009   3.891   3.185  17.662  0.1098  1.6499  2.9836
17840TIP3   OH275010   1.206   3.932   4.678  0.6655  0.5827 -0.3048
17840TIP3    H175011   1.209   3.841   4.648  0.4540  1.4554 -3.3278
17840TIP3    H275012   1.258   3.933   4.757 -0.2799 -2.3759  0.4907
17841TIP3   OH275013   0.505   4.966   2.426  0.6922 -0.2987 -0.2700
17841TIP3    H175014   0.531   4.991   2.337  0.9939 -0.4812 -0.2369
17841TIP3    H275015   0.420   5.009   2.439  1.2535  0.8292 -0.1611
17842TIP3   OH275016   5.906   2.913  17.355 -0.4285  0.4509  0.0356
17842TIP3    H175017   5.868   2.856  17.422 -0.5987 -0.8680 -1.1385
17842TIP3    H275018   5.926   2.854  17.282 -0.9991  1.9502 -1.3873
17843TIP3   OH275019   1.943   6.307   2.745  0.4823  0.2791 -0.2147
17843TIP3    H175020   1.961   6.277   2.834 -1.6546  1.1142  0.5548
17843TIP3    H275021   1.944   6.402   2.751 -1.0227  0.3568 -0.7386
17844TIP3   OH275022   6.163   2.526  11.721 -0.8680  0.3042 -0.4844
17844TIP3    H175023   6.135   2.459  11.783  1.8590 -0.2401  0.3266
17844TIP3    H275024   6.145   2.487  11.635  1.4030 -2.0272 -0.0674
17845TIP3   OH275025   4.626   2.316  16.909 -0.6022 -0.0909 -0.5918
17845TIP3    H175026   4.543   2.302  16.954 -0.3077 -1.0560 -0.3278
17845TIP3    H275027   4.687   2.343  16.977 -1.3938  3.9941 -1.2011
17846TIP3   OH275028   4.607   4.348   2.132  0.4193  0.5605  0.2950
17846TIP3    H175029   4.575   4.409   2.199  0.5826  0.7862  0.1678
17846TIP3    H275030   4.553   4.270   2.144  1.3777  0.0803  1.5984
17847TIP3   OH275031   5.894   2.299   6.047 -0.1032  0.0619 -0.3497
17847TIP3    H175032   5.872   2.322   5.957  0.0266 -2.0024 -0.9418
17847TIP3    H275033   5.989   2.284   6.046  0.1421  1.3177  0.4697
17848TIP3   OH275034   0.282   2.776  13.386 -0.0879 -0.5604 -0.0404
17848TIP3    H175035   0.248   2.831  13.316  0.0983 -0.7605 -0.2926
17848TIP3    H275036   0.329   2.836  13.444 -0.3199 -0.3815 -0.0384
17849TIP3   OH275037   4.788   5.024   6.869 -0.2748  0.0859 -0.3771
17849TIP3    H175038   4.710   5.031   6.814 -0.4214 -0.7523 -0.2804
17849TIP3    H275039   4.858   4.998   6.808  0.3056  2.2701 -0.7614
17850TIP3   OH275040   3.270   3.698  14.223  1.3798  0.3575  0.0993
17850TIP3    H175041   3.272   3.752  14.302  1.2399 -0.4646  0.6771
17850TIP3    H275042   3.271   3.608  14.255 -1.1663 -0.0421 -0.7108
17851TIP3   OH275043   4.961   3.306   1.057 -0.4427 -0.1075 -0.5712
17851TIP3    H175044   5.002   3.219   1.056 -0.3393 -0.0593 -0.5902
17851TIP3    H275045   4.899   3.303   1.130 -0.1120 -0.0497 -0.2795
17852TIP3   OH275046   4.788   4.608  13.438 -0.0009  0.0406  0.7802
17852TIP3    H175047   4.811   4.641  13.351  0.6010  0.3641  1.0604
17852TIP3    H275048   4.710   4.553  13.423  0.3415 -0.2388 -0.0185
17853TIP3   OH275049   0.188   0.782  16.240 -0.2472  0.1589 -0.0325
17853TIP3    H175050   0.139   0.804  16.161 -0.5002  0.5814  0.2377
17853TIP3    H275051   0.213   0.867  16.278  0.5157 -0.0447 -0.0532
17854TIP3   OH275052   1.832   1.943   3.996  0.0924  0.5217  0.4002
17854TIP3    H175053   1.751   1.899   3.972 -0.3342  0.9686  1.0048
17854TIP3    H275054   1.855   1.996   3.920  0.9659 -1.2015 -0.6113
17855TIP3   OH275055   2.000   4.571   3.198 -0.1058  0.2161 -0.2912
17855TIP3    H175056   1.983   4.663   3.218 -0.3467  0.2354 -0.5816
17855TIP3    H275057   2.008   4.529   3.284 -0.2931  0.4539 -0.1572
17856TIP3   OH275058   4.568   2.945   2.717  0.2306 -0.4228  0.0783
17856TIP3    H175059   4.599   2.937   2.626 -1.0212 -1.3204 -0.2859
17856TIP3    H275060   4.504   2.875   2.727 -2.6209  2.0606  0.3999
17857TIP3   OH275061   3.173   6.293   2.669 -0.5411 -0.3197 -0.4107
17857TIP3    H175062   3.137   6.382   2.658  0.4561  0.3806  1.5220
17857TIP3    H275063   3.190   6.263   2.580 -0.3111  1.6872 -1.0947
17858TIP3   OH275064   1.641   2.532  12.662 -0.2723  0.5854  0.7099
17858TIP3    H175065   1.556   2.488  12.671  0.0975 -0.4132 -0.4438
17858TIP3    H275066   1.694   2.495  12.733 -0.1619 -0.3954  0.1380
17859TIP3   OH275067   2.071   4.503  12.642  0.0137  0.7155  0.5465
17859TIP3    H175068   2.138   4.550  12.691  0.1108  0.1496  0.9720
17859TIP3    H275069   2.085   4.411  12.664  0.3338  0.3974 -0.8894
17860TIP3   OH275070   3.693   2.996   6.337  0.3866  0.0468  0.4620
17860TIP3    H175071   3.788   3.005   6.342  0.6812 -1.7832 -0.8078
17860TIP3    H275072   3.677   2.953   6.253 -1.8336  3.2916 -0.9894
17861TIP3   OH275073   3.021   2.526   2.539 -0.1540 -0.5684  0.5762
17861TIP3    H175074   3.060   2.520   2.626  1.8507 -1.4126 -0.3225
17861TIP3    H275075   2.935   2.565   2.554  1.1166  1.6799  2.6525
17862TIP3   OH275076   4.558   3.774  11.759  1.0558  0.1484  0.9405
17862TIP3    H175077   4.653   3.765  11.763  1.1333 -0.1625 -0.8070
17862TIP3    H275078   4.527   3.686  11.740  0.5106  0.4204  0.5385
17863TIP3   OH275079   3.201   3.693   2.674 -0.2365 -0.1715 -0.5004
17863TIP3    H175080   3.274   3.737   2.629 -0.8432 -1.3325 -2.8098
17863TIP3    H275081   3.132   3.759   2.675  0.5133  0.6428  0.9110
17864TIP3   OH275082   5.933   5.435   0.792 -1.0692  0.0854  0.4289
17864TIP3    H175083   5.933   5.357   0.737  0.4754 -1.3915  2.3664
17864TIP3    H275084   5.900   5.405   0.877  0.4207  1.3006  1.4912
17865TIP3   OH275085   0.942   2.633   2.239  0.1862 -0.0035  0.7779
17865TIP3    H175086   1.016   2.587   2.279 -0.3252 -0.7950  0.8367
17865TIP3    H275087   0.897   2.674   2.313  1.2575  1.5458  0.6173
17866TIP3   OH275088   6.345   1.571  13.171  0.3246  0.2703 -0.4554
17866TIP3    H175089   6.312   1.618  13.095 -0.0589  0.5385 -0.1267
17866TIP3    H275090   6.398   1.500  13.135 -1.3252 -0.7299 -1.0127
17867TIP3   OH275091   4.482   5.958   1.950 -0.4291 -0.6929 -0.0783
17867TIP3    H175092   4.489   6.020   1.878  0.8668 -1.9722 -1.1370
17867TIP3    H275093   4.390   5.934   1.954 -0.7107  0.3216 -0.4963
17868TIP3   OH275094   0.695   4.673  16.708 -0.3458 -0.2049  0.2581
17868TIP3    H175095   0.715   4.625  16.627 -0.3572 -1.2361  0.8467
17868TIP3    H275096   0.607   4.645  16.731  0.1247 -0.8900  1.2876
17869TIP3   OH275097   5.980   1.825   3.320 -0.2315  0.0731 -0.7441
17869TIP3    H175098   6.070   1.791   3.320 -0.0083  0.6507 -0.3531
17869TIP3    H275099   5.926   1.751   3.293  0.2547 -0.5679  0.0108
17870TIP3   OH275100   6.355   4.582  11.831 -0.1555  0.3587 -0.0172
17870TIP3    H175101   6.413   4.591  11.756 -0.2091  0.0537 -0.0971
17870TIP3    H275102   6.298   4.659  11.826  0.5405  0.9135  0.3324
17871TIP3   OH275103   3.845   1.342   3.998  0.5853 -0.3638  0.3738
17871TIP3    H175104   3.926   1.366   3.953  0.3113 -0.8635 -0.3855
17871TIP3    H275105   3.775   1.372   3.940  0.2088 -3.2291 -0.7855
17872TIP3   OH275106   3.119   6.011  17.359 -0.7390 -0.4535  0.3424
17872TIP3    H175107   3.161   5.927  17.339  1.2655  0.7686 -0.9102
17872TIP3    H275108   3.074   6.035  17.278  1.2855  1.0634 -0.4182
17873TIP3   OH275109   6.386   5.803  12.312 -0.3569  0.8735 -0.3327
17873TIP3    H175110   6.376   5.873  12.376 -0.0102 -0.0356  0.7588
17873TIP3    H275111   6.339   5.729  12.350 -0.0772  0.2876 -1.0955
17874TIP3   OH275112   6.017   6.108  11.945 -0.1845  0.2816  0.1182
17874TIP3    H175113   6.011   6.170  11.872 -0.6356  0.5960  0.4159
17874TIP3    H275114   6.098   6.060  11.929  1.2940  2.3357  0.9568
17875TIP3   OH275115   2.068   5.739   1.527  0.2184 -0.0057  0.0380
17875TIP3    H175116   2.115   5.662   1.560  1.5758  0.9604  0.4227
17875TIP3    H275117   1.987   5.740   1.579  0.2296 -1.0921  0.1171
17876TIP3   OH275118   2.107   3.930   1.686 -0.5906 -0.9340 -0.2283
17876TIP3    H175119   2.169   3.995   1.655  0.4806 -1.8771 -0.1226
17876TIP3    H275120   2.121   3.927   1.781 -1.0288 -0.9241 -0.1599
17877TIP3   OH275121   1.612   4.952  14.561  0.6064 -0.0015  0.2966
17877TIP3    H175122   1.572   5.032  14.595  0.2728 -0.2367  0.4662
17877TIP3    H275123   1.539   4.901  14.527  0.7044 -0.6268  0.9988
17878TIP3   OH275124   6.337   2.641  16.852  0.4231  0.1588  0.1487
17878TIP3    H175125   6.286   2.576  16.805  1.1295 -0.4200  0.1734
17878TIP3    H275126   6.275   2.679  16.915  0.1853 -0.9682  0.6033
17879TIP3   OH275127   0.299   2.687   2.180 -0.3041 -0.3383 -0.2441
17879TIP3    H175128   0.243   2.760   2.155  0.0191 -0.4148 -1.2595
17879TIP3    H275129   0.356   2.722   2.248  0.4781  0.6564 -1.3613
17880TIP3   OH275130   5.947   6.187  16.840  0.1963  0.9934  0.3997
17880TIP3    H175131   5.904   6.255  16.788 -0.5695  0.2950  0.0876
17880TIP3    H275132   5.952   6.112  16.782 -0.3371  0.3167  1.1956
17881TIP3   OH275133   5.508   0.759  14.602 -0.1000  0.3292  0.2873
17881TIP3    H175134   5.476   0.774  14.691 -0.8473 -1.3484  0.3373
17881TIP3    H275135   5.493   0.666  14.587 -1.3853  0.8619 -2.1660
17882TIP3   OH275136   0.246   6.588  14.887 -0.1342 -0.2277 -0.4741
17882TIP3    H175137   0.233   6.503  14.930 -0.6509  0.1042  0.0494
17882TIP3    H275138   0.339   6.590  14.864 -0.3283 -1.4022 -1.5120
17883TIP3   OH275139   5.409   1.652   2.273  0.2139 -0.0845  0.7469
17883TIP3    H175140   5.322   1.690   2.266  0.9422  1.3666 -1.3472
17883TIP3    H275141   5.394   1.557   2.276 -1.4677  0.1901  2.1145
17884TIP3   OH275142   5.242   3.176   6.203 -0.1423  0.0689  0.3297
17884TIP3    H175143   5.283   3.194   6.287  0.0122  0.1326  0.2429
17884TIP3    H275144   5.216   3.084   6.207  1.1792 -0.3525 -0.0864
17885TIP3   OH275145   4.238   1.748   3.105 -0.0602  0.6140 -0.0511
17885TIP3    H175146   4.253   1.829   3.057  0.0681 -0.3664 -1.7171
17885TIP3    H275147   4.311   1.691   3.081 -0.7774 -0.4179  0.1517
17886TIP3   OH275148   5.625   1.493   0.347 -0.1242 -0.2098 -0.1130
17886TIP3    H175149   5.672   1.442   0.413 -1.0322  1.4197  1.8661
17886TIP3    H275150   5.682   1.490   0.270  2.4430  0.3308  1.6614
17887TIP3   OH275151   6.353   4.307  13.019 -0.3033  0.4418 -0.2253
17887TIP3    H175152   6.354   4.378  12.955 -1.1059  0.3529 -0.3496
17887TIP3    H275153   6.326   4.230  12.969  1.5079 -0.1910 -0.3071
17888TIP3   OH275154   3.579   4.810   3.897 -0.1237 -0.1399 -0.4899
17888TIP3    H175155   3.602   4.858   3.817 -0.0382 -0.6306 -0.7634
17888TIP3    H275156   3.632   4.850   3.965 -0.2264  0.3096 -0.6689
17889TIP3   OH275157   6.607   1.798   1.416  0.2904 -0.1943  0.0251
17889TIP3    H175158   6.526   1.824   1.460  1.0042 -0.5999  1.6676
17889TIP3    H275159   6.646   1.732   1.474  1.2457 -0.8407 -1.2921
17890TIP3   OH275160   2.275   3.675  17.144 -0.2596 -0.0740  0.0756
17890TIP3    H175161   2.247   3.717  17.225 -1.0749 -0.5624  0.0495
17890TIP3    H275162   2.195   3.662  17.094  0.1287 -0.5873 -0.4293
17891TIP3   OH275163   3.573   3.979   0.859 -0.0356 -0.1952 -0.2270
17891TIP3    H175164   3.633   4.051   0.878  0.1671 -0.4982  0.2953
17891TIP3    H275165   3.502   3.989   0.922 -0.6468  0.2758 -0.9688
17892TIP3   OH275166   5.114   0.444   5.386 -0.2870 -0.1842  0.0177
17892TIP3    H175167   5.028   0.487   5.383 -0.1041  0.1519 -0.4154
17892TIP3    H275168   5.151   0.459   5.300  1.0507  1.4096  0.8096
17893TIP3   OH275169   6.105   2.369  16.074 -0.1208 -0.4634  0.7797
17893TIP3    H175170   6.096   2.456  16.112  0.2265 -1.1009  2.4281
17893TIP3    H275171   6.161   2.381  15.997 -4.1197  1.5336 -2.1290
17894TIP3   OH275172   2.042   6.589   6.108 -0.6032  0.5353  0.2031
17894TIP3    H175173   2.011   6.624   6.025  0.0463  2.0638  0.5689
17894TIP3    H275174   1.975   6.526   6.134 -1.5543  1.1067 -0.7703
17895TIP3   OH275175   1.311   0.689  10.820  0.0226 -0.2772  0.5264
17895TIP3    H175176   1.329   0.663  10.911 -0.3707 -1.3286  0.3200
17895TIP3    H275177   1.294   0.606  10.775  0.7858  0.1823 -0.6406
17896TIP3   OH275178   3.179   0.896  14.165 -0.4876  0.1727 -0.0555
17896TIP3    H175179   3.196   0.962  14.233  1.0028 -0.4356  0.2118
17896TIP3    H275180   3.266   0.875  14.131 -0.9930 -1.2335 -0.5381
17897TIP3   OH275181   2.074   0.087   2.117 -0.6761 -0.9025 -0.5391
17897TIP3    H175182   2.075  -0.008   2.104  1.7574 -0.9499 -0.4368
17897TIP3    H275183   2.161   0.116   2.090 -1.8063  1.5316 -1.9277
17898TIP3   OH275184   5.717   3.749   6.563 -0.3061 -0.0697 -0.4534
17898TIP3    H175185   5.732   3.765   6.656 -0.7606 -0.6101 -0.2769
17898TIP3    H275186   5.804   3.736   6.526 -0.1700 -0.7647  0.0841
17899TIP3   OH275187   2.267   5.580  12.011 -0.0763  0.1050 -0.4088
17899TIP3    H175188   2.218   5.535  12.079 -0.3544  0.2572 -0.5059
17899TIP3    H275189   2.299   5.510  11.953 -0.3599  0.0210 -0.4635
17900TIP3   OH275190   2.917   2.236  14.944 -0.2320  0.6838  0.5578
17900TIP3    H175191   2.826   2.246  14.973 -0.2118 -0.4614  1.0579
17900TIP3    H275192   2.967   2.232  15.025  0.0817 -0.2881  0.3236
17901TIP3   OH275193   3.662   2.820  12.671 -0.4971 -0.0182  0.3353
17901TIP3    H175194   3.643   2.896  12.616 -1.1557 -1.1309 -1.0239
17901TIP3    H275195   3.582   2.768  12.669 -0.0439 -0.7888  1.2237
17902TIP3   OH275196   0.861   5.944  17.465 -0.4981  0.1325 -1.0685
17902TIP3    H175197   0.938   5.918  17.414 -1.2133 -1.3211 -1.4769
17902TIP3    H275198   0.842   5.868  17.520  0.4036  1.7322  1.6509
17903TIP3   OH275199   3.212   3.535   4.069  1.0371  0.3547 -0.0393
17903TIP3    H175200   3.214   3.626   4.039  1.8189  0.3430 -0.0463
17903TIP3    H275201   3.267   3.487   4.007 -0.7934 -0.4739 -1.0783
17904TIP3   OH275202   4.748   5.361   2.133 -0.0912  0.8811  0.9281
17904TIP3    H175203   4.728   5.450   2.163 -0.1864  1.2642 -0.2133
17904TIP3    H275204   4.835   5.343   2.168  0.0268  1.5180  0.9724
17905TIP3   OH275205   1.742   2.921   0.717 -0.4782 -0.1874  0.6316
17905TIP3    H175206   1.740   2.839   0.766  1.6382 -0.9464 -0.4303
17905TIP3    H275207   1.654   2.931   0.683 -0.4124 -2.9563 -0.6360
17906TIP3   OH275208   3.032   0.062   2.298  0.2312 -0.4878 -0.2452
17906TIP3    H175209   3.072   0.135   2.250  0.5075 -0.9945 -0.8152
17906TIP3    H275210   3.071   0.066   2.385 -2.0666  1.9157  0.8032
17907TIP3   OH275211   2.781   2.471   2.315  0.2910 -0.0272  0.1514
17907TIP3    H175212   2.749   2.397   2.263 -1.0987  0.6606 -0.0309
17907TIP3    H275213   2.736   2.462   2.399  0.9577  0.0141  0.5217
17908TIP3   OH275214   3.509   0.446   4.343 -0.0465  0.3110 -0.8820
17908TIP3    H175215   3.444   0.476   4.280  0.1899  1.7857 -0.4617
17908TIP3    H275216   3.584   0.504   4.330  1.1834 -1.3064 -1.3002
17909TIP3   OH275217   4.232   2.295   3.532 -0.2925  0.1477 -0.7058
17909TIP3    H175218   4.257   2.380   3.568  0.2130 -0.4826  0.4926
17909TIP3    H275219   4.312   2.264   3.488 -0.6831  0.5743 -1.7712
17910TIP3   OH275220   4.264   5.597  11.821  0.2806 -0.7027 -0.0049
17910TIP3    H175221   4.288   5.686  11.844 -1.5658  0.3867 -1.9728
17910TIP3    H275222   4.232   5.602  11.731 -1.1541 -3.1014  0.2676
17911TIP3   OH275223   0.199   3.011   5.940 -0.0619 -0.3078 -0.0632
17911TIP3    H175224   0.214   3.043   6.029 -0.3775 -0.0936 -0.0840
17911TIP3    H275225   0.204   3.090   5.885  3.2227 -0.7890 -0.6648
17912TIP3   OH275226   4.772   1.437  15.532 -0.3172  0.7260 -0.4707
17912TIP3    H175227   4.700   1.473  15.481  0.0829  1.2448 -0.6760
17912TIP3    H275228   4.842   1.502  15.526 -0.7376  1.5072  1.9631
17913TIP3   OH275229   5.824   2.037   1.191  0.2577 -0.0481 -0.3011
17913TIP3    H175230   5.812   1.981   1.115 -0.1893  1.8428 -1.7052
17913TIP3    H275231   5.831   2.126   1.154 -1.1438  1.0751  1.9319
17914TIP3   OH275232   3.970   6.137   4.176  0.1630  0.8315  0.2411
17914TIP3    H175233   3.874   6.137   4.181  0.0016  2.8120 -1.4394
17914TIP3    H275234   3.992   6.050   4.141 -1.1236  0.7410 -0.4000
17915TIP3   OH275235   3.955   6.395  16.426  0.1637  0.5825  0.5510
17915TIP3    H175236   4.024   6.455  16.454  0.8499  0.0078  0.1248
17915TIP3    H275237   3.977   6.311  16.466 -1.2188  0.7629  1.7934
17916TIP3   OH275238   1.227   3.487   4.933 -0.4078 -0.0231 -0.1020
17916TIP3    H175239   1.216   3.508   4.840 -0.0602 -0.0396 -0.1449
17916TIP3    H275240   1.184   3.560   4.978 -1.8305 -0.7157 -0.2861
17917TIP3   OH275241   5.181   2.669  15.356 -0.2084 -0.4132  0.0050
17917TIP3    H175242   5.106   2.725  15.378 -0.9035 -1.7496  1.1873
17917TIP3    H275243   5.153   2.623  15.277  0.5277  1.1255 -1.2180
17918TIP3   OH275244   3.145   3.385  13.623 -0.0326  0.2916  0.6138
17918TIP3    H175245   3.105   3.454  13.570  3.1351  0.7947 -1.4010
17918TIP3    H275246   3.107   3.303  13.589 -0.6840  0.8126  0.0639
17919TIP3   OH275247   0.879   5.083   0.314  0.9557  0.7487  0.1509
17919TIP3    H175248   0.910   5.068   0.224 -0.3006 -0.7485 -0.0798
17919TIP3    H275249   0.862   4.996   0.348  0.4370  1.3538  1.4952
17920TIP3   OH275250   6.258   6.247  14.951  0.4625  0.4239 -0.2624
17920TIP3    H175251   6.329   6.210  15.004  1.9144  0.2704 -2.2027
17920TIP3    H275252   6.287   6.234  14.860 -1.9297  0.6330 -1.1257
17921TIP3   OH275253   6.685   5.576   6.145  0.2554 -0.2676 -0.5217
17921TIP3    H175254   6.661   5.663   6.175  0.5799 -0.8770  1.6854
17921TIP3    H275255   6.610   5.547   6.093 -1.3429  0.1027  1.4557
17922TIP3   OH275256   1.426   2.225   1.809  0.2982  0.1181 -0.4271
17922TIP3    H175257   1.348   2.227   1.754  0.8605 -0.7454 -1.3008
17922TIP3    H275258   1.393   2.223   1.899 -0.6827 -0.3628 -0.7883
17923TIP3   OH275259   0.358   1.216  16.139  0.9706  0.2018 -0.1599
17923TIP3    H175260   0.274   1.250  16.107  0.5104 -0.2388  0.5717
17923TIP3    H275261   0.391   1.162  16.067 -0.3538 -1.2781  0.2972
17924TIP3   OH275262   5.655   0.022  16.857 -0.2285 -0.2773 -0.4375
17924TIP3    H175263   5.568  -0.007  16.830 -0.4763 -0.7696  0.8353
17924TIP3    H275264   5.652   0.118  16.849 -1.0083 -0.2639 -0.0328
17925TIP3   OH275265   1.472   3.209  14.335 -0.2193  0.3882 -0.6495
17925TIP3    H175266   1.563   3.187  14.317 -0.7294 -1.2322 -1.4479
17925TIP3    H275267   1.473   3.243  14.425  1.2187  0.8253 -0.8086
17926TIP3   OH275268   1.510   4.377  17.184 -0.2229  0.4225  0.2654
17926TIP3    H175269   1.467   4.350  17.265 -0.2185 -0.1882  0.0616
17926TIP3    H275270   1.477   4.318  17.117  0.4084  0.3841 -0.0215
17927TIP3   OH275271   4.264   0.707  13.490  0.0027 -0.2140  0.0129
17927TIP3    H175272   4.328   0.637  13.481 -0.9045 -0.9869 -0.7831
17927TIP3    H275273   4.194   0.682  13.429 -1.3173  0.2806  1.2767
17928TIP3   OH275274   0.614   4.620   0.053 -0.5189 -0.2270 -0.4193
17928TIP3    H175275   0.615   4.525   0.057 -1.3507 -0.2110  1.8707
17928TIP3    H275276   0.540   4.645   0.108 -0.4968  1.7491 -1.2097
17929TIP3   OH275277   0.041   4.938   1.644 -0.2562 -0.2428 -0.0300
17929TIP3    H175278  -0.044   4.895   1.641  0.1051 -0.9188 -1.1997
17929TIP3    H275279   0.102   4.873   1.610  1.3296 -1.0139  3.7577
17930TIP3   OH275280   2.899   6.426   3.270  0.7664 -0.3138 -0.0839
17930TIP3    H175281   2.944   6.343   3.285  1.8392  0.4154  0.9948
17930TIP3    H275282   2.854   6.415   3.186  1.7997 -1.6005 -0.5012
17931TIP3   OH275283   3.204   4.920  11.722 -0.6162 -0.6598 -0.1080
17931TIP3    H175284   3.248   4.841  11.754  0.7017  0.1936  0.2689
17931TIP3    H275285   3.256   4.948  11.647 -0.1786  0.6621  0.6575
17932TIP3   OH275286   2.976   5.839   2.219  0.3158  0.6940 -0.3254
17932TIP3    H175287   3.021   5.822   2.302  1.3209 -0.0529 -0.9935
17932TIP3    H275288   2.889   5.870   2.245  0.4294 -0.0023  0.9988
17933TIP3   OH275289   4.418   2.920   5.417  0.2797  0.1904 -0.2468
17933TIP3    H175290   4.494   2.863   5.413 -0.5921 -1.0514  0.4289
17933TIP3    H275291   4.348   2.870   5.376 -0.7883  0.2801  1.3962
17934TIP3   OH275292   0.410   5.830   5.020 -0.0771 -0.2588  0.3855
17934TIP3    H175293   0.430   5.886   4.945 -0.3214  0.1670  0.6398
17934TIP3    H275294   0.429   5.884   5.096  1.0236 -0.9794  0.6550
17935TIP3   OH275295   0.602   6.396   1.305  0.3832 -0.3287  0.7112
17935TIP3    H175296   0.528   6.355   1.350 -0.1517  0.8615  0.9418
17935TIP3    H275297   0.588   6.376   1.212  0.1147 -0.6386  0.8183
17936TIP3   OH275298   3.797   3.589  16.054  0.1169 -0.2556 -0.7903
17936TIP3    H175299   3.818   3.503  16.091 -0.0516 -0.4346 -1.1077
17936TIP3    H275300   3.877   3.640  16.065 -0.5334  0.3520  1.6696
17937TIP3   OH275301   1.227   2.400  13.917  0.6410  0.4201 -0.1263
17937TIP3    H175302   1.264   2.334  13.857  0.9452  1.3000 -0.9438
17937TIP3    H275303   1.290   2.404  13.989  0.5267 -0.2984  0.0279
17938TIP3   OH275304   2.293   4.918   3.455 -0.3573  0.3679 -0.3803
17938TIP3    H175305   2.347   4.950   3.527 -0.7709 -0.2667  0.2187
17938TIP3    H275306   2.218   4.976   3.453 -0.5757  0.0964  0.0019
17939TIP3   OH275307   6.350   5.484   6.752  0.2784 -0.0135 -0.0235
17939TIP3    H175308   6.351   5.572   6.788  0.8033 -0.3117  0.7176
17939TIP3    H275309   6.320   5.495   6.662 -1.7900  0.6830  0.6925
17940TIP3   OH275310   3.857   4.187  16.233 -0.5407 -0.3513 -0.0819
17940TIP3    H175311   3.907   4.196  16.314 -0.7076 -0.2821  0.0138
17940TIP3    H275312   3.766   4.198  16.259 -0.5783 -0.1044 -0.3135
17941TIP3   OH275313   4.757   3.598  14.897  0.2636  0.6781 -0.0790
17941TIP3    H175314   4.673   3.562  14.869  0.3152  0.4074  0.1089
17941TIP3    H275315   4.737   3.654  14.972  0.2107  0.8754 -0.2399
17942TIP3   OH275316   5.268   1.293   0.105 -0.2264  0.5399 -0.0656
17942TIP3    H175317   5.186   1.243   0.105 -0.1937  0.4872 -0.0664
17942TIP3    H275318   5.330   1.237   0.059 -0.3744  0.8727 -0.6882
17943TIP3   OH275319   1.274   2.612   3.494  0.0451  0.4380 -0.4189
17943TIP3    H175320   1.233   2.695   3.518 -0.8345 -0.3825  1.0760
17943TIP3    H275321   1.326   2.588   3.571 -1.1716 -1.2649 -0.0701
17944TIP3   OH275322   0.101   4.055  11.187 -0.5517  0.2721  0.1610
17944TIP3    H175323   0.164   4.115  11.224 -0.9204 -0.0301  1.3074
17944TIP3    H275324   0.146   4.015  11.112  0.8682 -0.4423  1.3572
17945TIP3   OH275325   5.972   2.258  15.026 -0.0259  0.4671  0.0961
17945TIP3    H175326   5.882   2.256  15.058 -0.2142 -0.5611 -0.4656
17945TIP3    H275327   5.977   2.338  14.974 -1.0101 -0.1263 -0.9506
17946TIP3   OH275328   6.695   4.800  11.503 -0.1188  0.2109 -0.2559
17946TIP3    H175329   6.741   4.834  11.426 -0.5112 -1.4513 -1.2886
17946TIP3    H275330   6.760   4.744  11.546 -0.9159 -1.7791 -1.4681
17947TIP3   OH275331   1.392   1.397  13.818 -0.2170  0.2688 -0.6074
17947TIP3    H175332   1.424   1.470  13.871 -0.2401 -0.2893  0.1952
17947TIP3    H275333   1.470   1.344  13.800 -0.4881 -0.5417  0.4803
17948TIP3   OH275334   3.833   2.327  14.496  0.8837  0.2034 -1.3240
17948TIP3    H175335   3.813   2.256  14.557  0.3442 -0.1296 -1.8721
17948TIP3    H275336   3.866   2.398  14.551  1.4218 -0.4631 -0.7676
17949TIP3   OH275337   3.097   1.678  17.262  0.1695  0.2706  0.1431
17949TIP3    H175338   3.030   1.651  17.326 -0.5266  2.1799  0.2731
17949TIP3    H275339   3.156   1.735  17.312  1.6164 -0.9163 -0.1183
17950TIP3   OH275340   5.386   4.014   0.805  0.1966  0.0184  0.3979
17950TIP3    H175341   5.374   3.981   0.894  1.6300  2.0897  1.4666
17950TIP3    H275342   5.314   4.076   0.792  0.7390  0.7223  0.6728
17951TIP3   OH275343   2.224   4.908   3.098  0.3731 -0.0268  0.0085
17951TIP3    H175344   2.259   4.834   3.149 -0.8144 -0.3500  0.3978
17951TIP3    H275345   2.134   4.881   3.076  0.4613  0.6346 -1.2192
17952TIP3   OH275346   2.939   3.498  15.305  0.6632  0.4641 -0.0292
17952TIP3    H175347   3.024   3.540  15.317  2.0418 -2.1017 -0.2853
17952TIP3    H275348   2.876   3.570  15.311  2.7611  2.3256  1.0357
17953TIP3   OH275349   5.425   6.213  12.982  0.3776  0.8494 -0.6658
17953TIP3    H175350   5.472   6.134  12.956 -0.5574  0.2864 -0.6693
17953TIP3    H275351   5.418   6.264  12.901 -0.0189  0.4089 -0.9126
17954TIP3   OH275352   5.297   3.531  13.509  0.2507  0.3565 -0.1165
17954TIP3    H175353   5.262   3.443  13.500  0.2501  0.4235 -0.7781
17954TIP3    H275354   5.392   3.520  13.503  0.3299  0.2621  0.9920
17955TIP3   OH275355   0.188   5.672  17.637  0.4423 -0.0983 -0.3819
17955TIP3    H175356   0.226   5.620  17.566 -0.5514  0.4942 -1.3712
17955TIP3    H275357   0.097   5.645  17.641 -0.2859  2.0169 -1.4006
17956TIP3   OH275358   5.980   5.908   0.681 -0.3868  0.3254  0.1431
17956TIP3    H175359   5.912   5.841   0.689  0.7421 -0.6673  2.5341
17956TIP3    H275360   5.952   5.979   0.738 -0.0991  0.5379  0.0242
17957TIP3   OH275361   5.868   2.645   4.649 -0.2395  0.2783  0.0659
17957TIP3    H175362   5.866   2.558   4.689  1.1208  0.5315  0.7199
17957TIP3    H275363   5.801   2.695   4.697  1.3108  0.5576  2.0535
17958TIP3   OH275364   2.726   5.806   6.248 -0.2120  0.2961  0.1120
17958TIP3    H175365   2.684   5.829   6.332  0.4632  1.8233  0.0576
17958TIP3    H275366   2.793   5.742   6.272  1.3638  2.2159  1.0981
17959TIP3   OH275367   5.214   3.599   5.757 -0.0895  0.6504  0.2161
17959TIP3    H175368   5.148   3.529   5.753  0.9472 -0.4305  1.3460
17959TIP3    H275369   5.260   3.594   5.674  0.0271 -0.0898  0.3160
17960TIP3   OH275370   3.714   5.990   0.709  0.1732 -0.5083 -0.6491
17960TIP3    H175371   3.760   5.917   0.667 -0.4207 -1.0102 -0.4451
17960TIP3    H275372   3.638   5.949   0.750  0.1667  0.1408 -0.0035
17961TIP3   OH275373   3.884   1.578  13.287 -0.5253  0.2217 -0.2184
17961TIP3    H175374   3.875   1.559  13.194 -1.1048 -0.7422  0.0168
17961TIP3    H275375   3.795   1.599  13.316 -0.4978 -0.3344  0.2846
17962TIP3   OH275376   4.556   3.318  17.591 -0.4880 -0.2594 -0.3989
17962TIP3    H175377   4.472   3.364  17.601 -0.0632  0.6605 -0.9231
17962TIP3    H275378   4.537   3.228  17.615 -1.1504  0.3498  1.5214
17963TIP3   OH275379   4.664   2.499   5.525  0.1126  0.2699  0.4009
17963TIP3    H175380   4.757   2.518   5.528 -0.1816  2.1593 -0.5318
17963TIP3    H275381   4.632   2.548   5.449 -1.2615 -2.2035 -0.7326
17964TIP3   OH275382   3.385   1.214   2.072 -0.1115 -0.1489  0.4788
17964TIP3    H175383   3.325   1.174   2.010  0.6127 -0.8087  0.1872
17964TIP3    H275384   3.368   1.169   2.155 -1.6675  1.3049  1.0131
17965TIP3   OH275385   4.979   0.194   5.193 -0.4454  0.3665  0.5606
17965TIP3    H175386   5.070   0.218   5.211 -0.3804  1.6964 -1.2686
17965TIP3    H275387   4.930   0.232   5.266  0.4160 -0.0524  1.3805
17966TIP3   OH275388   6.653   3.073  16.232 -0.0084  0.4054  0.2754
17966TIP3    H175389   6.600   3.074  16.311 -1.4129  1.5642 -0.6401
17966TIP3    H275390   6.741   3.098  16.262 -0.2712 -0.1356  1.5887
17967TIP3   OH275391   5.293   3.278  14.223 -0.1239 -0.4059 -0.1834
17967TIP3    H175392   5.321   3.338  14.154 -0.1495 -0.1966 -0.0130
17967TIP3    H275393   5.277   3.334  14.299  1.3753 -0.7800  0.4557
17968TIP3   OH275394   4.769   3.851  13.958  0.1384  0.1854 -0.4513
17968TIP3    H175395   4.764   3.893  14.043 -1.5073 -0.2566 -0.2821
17968TIP3    H275396   4.725   3.911  13.898 -1.8743 -1.0126 -0.2807
17969TIP3   OH275397   2.379   3.281   1.938 -0.3246 -0.2931  0.1159
17969TIP3    H175398   2.342   3.283   1.850 -1.6726  0.2450  0.6709
17969TIP3    H275399   2.305   3.298   1.996  0.4026 -1.3556  1.4109
17970TIP3   OH275400   5.572   5.786   3.842 -0.0944 -0.7617 -0.1482
17970TIP3    H175401   5.660   5.776   3.805 -0.6989  1.5759 -2.5658
17970TIP3    H275402   5.569   5.877   3.871 -2.1267 -0.3474 -1.4562
17971TIP3   OH275403   1.926   0.605   2.603 -0.2694  0.5700 -0.3607
17971TIP3    H175404   2.002   0.616   2.546  0.2159  0.0137  0.1651
17971TIP3    H275405   1.958   0.629   2.690 -0.3573 -0.8478  0.0803
17972TIP3   OH275406   5.674   5.931  12.631 -0.1709  0.5612 -0.6839
17972TIP3    H175407   5.648   5.842  12.654 -0.1517  0.4890 -0.9392
17972TIP3    H275408   5.642   5.942  12.541  0.0296  0.7311 -0.7336
17973TIP3   OH275409   0.064   3.146  14.204 -0.0940  0.1763 -0.0551
17973TIP3    H175410   0.108   3.086  14.144 -0.7542 -0.5882  0.2097
17973TIP3    H275411   0.017   3.089  14.264 -0.1103  0.9533  0.6806
17974TIP3   OH275412   3.056   4.109   1.672  0.5984 -0.4655  0.6684
17974TIP3    H175413   3.069   4.090   1.765  0.8860 -1.5407  0.4224
17974TIP3    H275414   3.130   4.067   1.628 -1.1840 -2.7700 -0.3430
17975TIP3   OH275415   2.559   3.131  13.566 -0.0227  0.1560 -0.2848
17975TIP3    H175416   2.643   3.177  13.575 -0.3367  0.6779  0.0381
17975TIP3    H275417   2.561   3.063  13.634 -0.1763  0.6697  0.2468
17976TIP3   OH275418   5.545   0.242  11.884  0.0309  0.3769  0.6050
17976TIP3    H175419   5.557   0.154  11.848  3.9982  1.0053 -0.0271
17976TIP3    H275420   5.564   0.301  11.811  3.3573  1.6483  2.2808
17977TIP3   OH275421   0.514   0.418  16.985 -0.3885 -0.1477  0.2775
17977TIP3    H175422   0.421   0.421  16.962 -1.5753 -1.0079  4.1670
17977TIP3    H275423   0.539   0.510  16.998 -1.1461  0.0089  0.6728
17978TIP3   OH275424   4.699   0.782  11.627 -0.0443 -0.2451 -0.5895
17978TIP3    H175425   4.646   0.817  11.698 -0.5933 -0.4031 -0.9173
17978TIP3    H275426   4.656   0.812  11.547 -0.0117 -0.9044 -0.8640
17979TIP3   OH275427   0.708   3.037   2.523 -0.4186 -0.4897  0.0530
17979TIP3    H175428   0.666   3.026   2.609  0.6386 -0.5013  0.5842
17979TIP3    H275429   0.670   3.118   2.489 -0.4954 -0.2177  0.7547
17980TIP3   OH275430   0.535   2.686   3.858 -0.2293 -0.4716  0.4249
17980TIP3    H175431   0.537   2.590   3.858 -2.2811 -0.5471  0.7299
17980TIP3    H275432   0.533   2.710   3.765  1.1994 -0.6522  0.3198
17981TIP3   OH275433   2.175   6.360   6.174 -0.0456 -0.2054 -0.0590
17981TIP3    H175434   2.192   6.378   6.266  0.8112  1.5022 -0.5170
17981TIP3    H275435   2.142   6.443   6.138 -1.0447 -1.0280 -1.1568
17982TIP3   OH275436   5.497   6.244   4.798 -0.1915 -0.5529 -0.6862
17982TIP3    H175437   5.587   6.219   4.776  0.0707  1.2524 -1.8547
17982TIP3    H275438   5.445   6.212   4.725 -0.2265 -0.0111 -0.9020
17983TIP3   OH275439   4.541   0.264   1.206 -0.5478  0.5086  0.0297
17983TIP3    H175440   4.517   0.189   1.151 -0.3681 -0.3596  1.1041
17983TIP3    H275441   4.536   0.339   1.147 -0.2820 -0.4004 -1.1945
17984TIP3   OH275442   6.454   5.916  11.597 -0.9900 -0.6297 -0.1590
17984TIP3    H175443   6.454   6.010  11.582  1.0123 -0.3267  1.2654
17984TIP3    H275444   6.508   5.880  11.527 -0.8182 -0.5789 -0.0526
17985TIP3   OH275445   4.128   5.931   1.300  0.3646 -0.2624  0.4880
17985TIP3    H175446   4.075   5.966   1.372 -0.9966 -2.3787  0.6322
17985TIP3    H275447   4.133   5.837   1.319 -0.3331 -0.9505 -2.3191
17986TIP3   OH275448   1.505   1.715  12.181 -0.1774  0.2656  0.5212
17986TIP3    H175449   1.589   1.759  12.172 -0.0316 -0.0780  0.1537
17986TIP3    H275450   1.481   1.727  12.273  1.0491 -0.9883  1.0457
17987TIP3   OH275451   2.463   1.651   5.844 -0.4345  0.4197  0.0437
17987TIP3    H175452   2.475   1.742   5.869  2.0337  0.1918 -0.1157
17987TIP3    H275453   2.420   1.656   5.758  0.7458  1.5017 -0.5193
17988TIP3   OH275454   3.030   6.500  15.068 -0.0541 -0.9056  0.5004
17988TIP3    H175455   3.048   6.487  15.161 -2.4589 -0.8383  1.0273
17988TIP3    H275456   3.040   6.594  15.055  0.2543 -0.9103  0.6802
17989TIP3   OH275457   3.237   6.162  13.353 -0.4098  0.1999  0.1172
17989TIP3    H175458   3.159   6.162  13.409 -1.4158  0.7185 -1.2343
17989TIP3    H275459   3.310   6.158  13.414 -1.4947 -0.8386  1.4156
17990TIP3   OH275460   3.724   0.285   0.985  0.2395  0.1015 -0.5739
17990TIP3    H175461   3.753   0.196   1.006 -1.1178 -0.1296  0.4789
17990TIP3    H275462   3.665   0.274   0.910  0.1712  0.1469 -0.5261
17991TIP3   OH275463   5.286   4.313   2.499 -0.2469  0.3499  0.8315
17991TIP3    H175464   5.213   4.344   2.446 -0.0860 -2.1212 -1.0024
17991TIP3    H275465   5.363   4.331   2.447  0.0486 -0.7268  0.8601
17992TIP3   OH275466   0.574   2.139  16.421  0.0843  0.2074  1.1898
17992TIP3    H175467   0.659   2.168  16.387 -0.3614 -0.0232 -0.1947
17992TIP3    H275468   0.542   2.077  16.355 -1.0804  0.1573  1.7814
17993TIP3   OH275469   4.816   5.399   1.843 -0.3263 -0.2296  0.5355
17993TIP3    H175470   4.739   5.364   1.799 -0.0608 -0.2362  0.0699
17993TIP3    H275471   4.798   5.387   1.937 -0.8958 -0.2090  0.4322
17994TIP3   OH275472   4.896   1.303  12.802  0.0644  0.0015 -0.1429
17994TIP3    H175473   4.875   1.252  12.725 -0.3263  0.0069 -0.0409
17994TIP3    H275474   4.896   1.240  12.874  1.2937 -0.1664 -0.2686
17995TIP3   OH275475   1.852   1.793  11.517  0.1176 -0.0830 -0.1527
17995TIP3    H175476   1.769   1.804  11.565  0.7629  0.6699  0.8280
17995TIP3    H275477   1.919   1.792  11.586  0.8769 -1.4628 -0.8654
17996TIP3   OH275478   1.769   5.698  12.239 -0.4595 -0.1295 -0.3310
17996TIP3    H175479   1.737   5.608  12.230 -0.8159  0.0821 -1.2197
17996TIP3    H275480   1.749   5.722  12.330  0.6780 -1.3367  0.2837
17997TIP3   OH275481   3.377   6.205   3.458 -0.1969 -0.5307 -0.1827
17997TIP3    H175482   3.394   6.292   3.420  1.9829 -0.6640  0.3907
17997TIP3    H275483   3.325   6.224   3.536  0.4374  0.2874  0.0573
17998TIP3   OH275484   5.056   2.279  16.854  0.4500  0.6672  0.6087
17998TIP3    H175485   5.119   2.285  16.782 -0.3921 -1.0805 -0.3317
17998TIP3    H275486   5.043   2.370  16.882  1.2548  1.3304 -1.0525
17999TIP3   OH275487   6.034   2.090   6.224  0.6174 -0.2274  0.3546
17999TIP3    H175488   5.975   2.120   6.292  0.5243 -0.2332  0.2770
17999TIP3    H275489   6.109   2.150   6.229  0.4295  0.0239  0.1953
18000TIP3   OH275490   5.829   4.973  12.655 -0.4031 -0.6937  0.3796
18000TIP3    H175491   5.740   4.967  12.622 -0.1429 -0.8344 -0.3171
18000TIP3    H275492   5.829   5.051  12.712  0.1505  2.3741 -3.3893
18001TIP3   OH275493   2.277   2.868  15.058  0.1774 -0.2251 -0.5514
18001TIP3    H175494   2.325   2.847  14.978  0.4820  0.6674 -0.6167
18001TIP3    H275495   2.191   2.896  15.028 -1.0361 -3.4048 -0.3508
18002TIP3   OH275496   6.307   3.533   6.216 -0.3884  0.0797 -0.7982
18002TIP3    H175497   6.277   3.604   6.271 -0.2482  0.3312 -1.0419
18002TIP3    H275498   6.305   3.455   6.272  0.2212  0.4189 -0.2955
18003TIP3   OH275499   1.510   3.750   3.206  0.0703 -0.1864  0.2338
18003TIP3    H175500   1.493   3.728   3.115  1.5316  1.9385 -0.6148
18003TIP3    H275501   1.588   3.699   3.229  1.2079  1.1551 -0.5389
18004TIP3   OH275502   1.650   1.009   3.871 -0.4577 -0.2466  0.4169
18004TIP3    H175503   1.637   0.943   3.939 -0.3612 -0.0107  0.6619
18004TIP3    H275504   1.734   0.987   3.831 -0.6729 -0.5908  0.1411
18005TIP3   OH275505   5.491   4.075  15.058 -0.1771 -0.2411 -0.2656
18005TIP3    H175506   5.522   4.165  15.071  1.3705 -0.8633  0.5446
18005TIP3    H275507   5.463   4.073  14.966 -0.4407  1.1069 -0.2486
18006TIP3   OH275508   4.749   0.631  16.581 -0.3285  0.0024  0.2267
18006TIP3    H175509   4.760   0.584  16.498  3.1544  0.3123  0.3870
18006TIP3    H275510   4.702   0.570  16.637 -1.4533 -0.7866 -1.4873
18007TIP3   OH275511   4.713   5.208   0.747 -0.1502  0.2622 -0.1205
18007TIP3    H175512   4.722   5.207   0.842  0.5980  0.2623 -0.1823
18007TIP3    H275513   4.742   5.295   0.721 -1.6999  0.7711 -0.2420
18008TIP3   OH275514   1.157   3.360  11.502 -0.6769 -0.4713  0.2419
18008TIP3    H175515   1.161   3.386  11.594  0.7297  0.2625 -0.0018
18008TIP3    H275516   1.121   3.437  11.457  0.0710 -0.2539 -0.0038
18009TIP3   OH275517   1.714   6.687  14.472  0.4125  0.0059 -0.6776
18009TIP3    H175518   1.683   6.725  14.390  0.5000 -0.1968 -0.8070
18009TIP3    H275519   1.678   6.599  14.472 -0.3871  0.3273 -0.0366
18010TIP3   OH275520   3.775   3.991  13.022  0.4768  0.0301 -0.0476
18010TIP3    H175521   3.741   3.962  13.107  1.7437 -1.3349  0.0284
18010TIP3    H275522   3.802   4.082  13.038  2.6123 -0.8073  1.6691
18011TIP3   OH275523   0.252   5.809   5.508 -0.2581 -0.6386 -0.1298
18011TIP3    H175524   0.230   5.902   5.501  1.0097 -0.3829 -1.1965
18011TIP3    H275525   0.195   5.776   5.577 -0.2871  1.0711  0.7240
18012TIP3   OH275526   5.520   4.210   2.039 -0.5755 -0.1283  0.4662
18012TIP3    H175527   5.568   4.153   1.980 -0.3462 -0.5811  1.0800
18012TIP3    H275528   5.565   4.294   2.033 -2.9266  1.1012 -3.0518
18013TIP3   OH275529   2.345   3.845  11.899 -0.2286 -0.2212 -0.2400
18013TIP3    H175530   2.250   3.829  11.898 -0.0858 -1.1513 -0.8968
18013TIP3    H275531   2.372   3.829  11.809  0.1418  2.8589 -0.7680
18014TIP3   OH275532   4.610   0.290   2.301  0.1225 -0.2718 -0.1616
18014TIP3    H175533   4.610   0.342   2.220  1.5917  1.3678  0.8266
18014TIP3    H275534   4.631   0.202   2.272  0.5360  0.2657 -1.5863
18015TIP3   OH275535   1.176   6.081   1.584  0.5033  0.2393 -0.2472
18015TIP3    H175536   1.084   6.076   1.610  0.5990 -1.8014 -0.1805
18015TIP3    H275537   1.190   6.174   1.566 -0.7604  1.0921  2.6452
18016TIP3   OH275538   1.920   6.127  13.662 -0.0591 -0.1745 -0.3366
18016TIP3    H175539   1.962   6.201  13.618  0.8714 -1.8857 -2.5278
18016TIP3    H275540   1.832   6.124  13.626 -0.1977  0.0512 -0.0156
18017TIP3   OH275541   2.525   0.951  16.359  0.1778 -0.3697  0.0120
18017TIP3    H175542   2.589   1.011  16.397 -0.0032  0.0235 -0.2979
18017TIP3    H275543   2.572   0.868  16.352  0.7106 -0.0471 -0.3572
18018TIP3   OH275544   0.342   4.896  14.044  0.0394 -0.0753  0.1453
18018TIP3    H175545   0.351   4.895  14.139 -0.0897 -1.5391  0.1741
18018TIP3    H275546   0.422   4.854  14.012 -0.7102 -1.2245 -0.2817
18019TIP3   OH275547   3.453   2.403   4.711 -0.7945 -0.8074 -0.5482
18019TIP3    H175548   3.521   2.469   4.723 -1.1370 -0.2303 -1.5977
18019TIP3    H275549   3.485   2.326   4.758 -1.2074  0.6101  2.2734
18020TIP3   OH275550   5.518   6.076  16.696 -0.2690 -0.2932 -0.1139
18020TIP3    H175551   5.563   6.158  16.717 -0.5551 -0.2565  0.3719
18020TIP3    H275552   5.461   6.098  16.622 -0.4543 -0.0174  0.1098
18021TIP3   OH275553   3.629   3.025  14.364 -0.2220  0.6711  0.2171
18021TIP3    H175554   3.700   3.083  14.339  0.2504 -0.0991 -0.2951
18021TIP3    H275555   3.609   2.977  14.283 -1.2943  0.8434  0.3626
18022TIP3   OH275556   3.187   5.708   5.886  0.2761 -0.1574 -0.1026
18022TIP3    H175557   3.140   5.745   5.961 -0.7761 -0.5758 -0.5444
18022TIP3    H275558   3.225   5.626   5.920  1.3422  0.5429  0.4561
18023TIP3   OH275559   5.305   3.988  14.553  0.6393 -0.3726  0.3069
18023TIP3    H175560   5.362   3.937  14.610  1.2499  0.4074  0.3998
18023TIP3    H275561   5.264   4.052  14.611 -0.0027 -0.6318  0.1574
18024TIP3   OH275562   0.523   1.096   5.404 -0.2865 -0.5089 -0.2172
18024TIP3    H175563   0.471   1.143   5.339 -0.3395 -0.5034 -0.1714
18024TIP3    H275564   0.464   1.029   5.439 -0.4986 -0.0472  0.3410
18025TIP3   OH275565   5.552   5.085  13.233 -0.0049 -0.2707 -0.5980
18025TIP3    H175566   5.628   5.132  13.198 -0.5124 -0.2915 -1.7709
18025TIP3    H275567   5.526   5.026  13.162 -1.0432 -0.3489 -0.1627
18026TIP3   OH275568   0.850   5.077  17.032  0.7176 -0.0843 -0.0214
18026TIP3    H175569   0.800   5.009  16.987 -0.3383  1.4610 -1.2927
18026TIP3    H275570   0.938   5.040  17.042  0.2420 -1.5268 -0.8891
18027TIP3   OH275571   1.554   4.236   5.938  0.4179 -0.1127  0.9547
18027TIP3    H175572   1.513   4.218   5.853  0.3625 -1.2799  1.2153
18027TIP3    H275573   1.482   4.268   5.993  0.3298  0.0434  0.7513
18028TIP3   OH275574   4.510   6.365  15.152 -0.1688  0.8222 -0.2417
18028TIP3    H175575   4.432   6.416  15.130 -2.2521 -1.8472  0.3303
18028TIP3    H275576   4.580   6.429  15.160 -2.2190  3.3363 -1.1271
18029TIP3   OH275577   3.601   6.105  13.408 -0.0512 -0.1808  0.5986
18029TIP3    H175578   3.599   6.016  13.375  1.5374 -0.3490  0.8808
18029TIP3    H275579   3.694   6.130  13.406 -0.3943  1.2492  1.0660
18030TIP3   OH275580   3.161   1.043  12.382  0.1836 -0.0553  0.6028
18030TIP3    H175581   3.222   1.028  12.454 -0.2761  0.4446  1.1070
18030TIP3    H275582   3.076   1.019  12.417 -0.2513  1.5048  0.7113
18031TIP3   OH275583   3.789   2.971   5.738 -0.0814  0.6500  0.2566
18031TIP3    H175584   3.745   3.010   5.662 -0.6416 -0.9081 -0.2544
18031TIP3    H275585   3.825   3.046   5.786 -0.7117  1.7458 -0.9249
18032TIP3   OH275586   5.993   2.964   3.409  0.7742  0.1180 -0.3031
18032TIP3    H175587   6.035   3.046   3.383  1.2587  0.1314  0.4568
18032TIP3    H275588   6.041   2.938   3.488 -1.2077  0.5790  1.1228
18033TIP3   OH275589   0.432   4.409  15.252  0.1800 -0.0961  0.0876
18033TIP3    H175590   0.473   4.468  15.316 -0.5741  1.2913 -0.6504
18033TIP3    H275591   0.372   4.465  15.203  1.0384 -1.0126 -2.1351
18034TIP3   OH275592   1.584   5.362   5.361 -0.4488 -0.6903 -0.3498
18034TIP3    H175593   1.614   5.425   5.296 -0.1843 -0.9490 -0.4809
18034TIP3    H275594   1.633   5.383   5.441 -0.7567 -0.3878 -0.2359
18035TIP3   OH275595   2.686   3.426  15.620  0.2774 -0.0804 -0.2671
18035TIP3    H175596   2.687   3.521  15.627  2.4807  0.0395 -1.2722
18035TIP3    H275597   2.777   3.402  15.602 -0.2275 -2.3787 -0.1132
18036TIP3   OH275598   4.131   6.397   6.439 -0.1901 -0.1793  0.5632
18036TIP3    H175599   4.213   6.445   6.457  0.2058 -1.6416  3.1079
18036TIP3    H275600   4.107   6.358   6.523 -0.7560 -4.0204 -1.1578
18037TIP3   OH275601   5.037   3.022   3.979  0.0243 -0.2595  0.2255
18037TIP3    H175602   5.100   2.964   3.936 -0.7863 -0.9081 -0.1164
18037TIP3    H275603   5.090   3.077   4.036  0.7923 -1.5788  0.8399
18038TIP3   OH275604   5.286   2.395  16.607  0.4295  0.5142  0.3264
18038TIP3    H175605   5.351   2.436  16.550  0.5916 -1.4355 -0.9806
18038TIP3    H275606   5.229   2.347  16.548 -2.4108  2.2943  1.4170
18039TIP3   OH275607   3.540   5.402   4.311  0.3025 -0.5054  0.0618
18039TIP3    H175608   3.578   5.478   4.357  0.9630  0.1403 -1.4911
18039TIP3    H275609   3.454   5.391   4.351  0.8961 -0.0542  1.5369
18040TIP3   OH275610   3.114   2.964  15.011 -0.3436  0.2610  0.5434
18040TIP3    H175611   3.130   3.055  14.986 -1.7459  0.3116 -0.2672
18040TIP3    H275612   3.081   2.969  15.101  1.6169  0.3443  1.3045
18041TIP3   OH275613   5.286   4.259   6.556 -0.0182 -0.1996 -0.2535
18041TIP3    H175614   5.376   4.227   6.565 -0.0502 -1.3049 -2.9429
18041TIP3    H275615   5.276   4.322   6.628  2.3699 -1.1605  1.0470
18042TIP3   OH275616   1.728   4.112   3.633 -0.6450  0.2149  0.1344
18042TIP3    H175617   1.704   4.070   3.715 -0.5889 -1.0652 -0.4732
18042TIP3    H275618   1.648   4.109   3.580 -0.4727  0.3068 -0.1333
18043TIP3   OH275619   4.034   1.060  11.857  0.2413  0.0318 -0.3748
18043TIP3    H175620   4.021   1.147  11.820  0.8803  0.2060 -0.2036
18043TIP3    H275621   3.956   1.046  11.911  0.7545  1.0912  0.7108
18044TIP3   OH275622   0.932   5.177  13.500 -0.4601 -0.0531 -0.4024
18044TIP3    H175623   0.980   5.099  13.473 -1.2844 -1.2338  1.3322
18044TIP3    H275624   0.959   5.245  13.439 -0.0578 -1.8059 -2.2667
18045TIP3   OH275625   1.389   0.434   5.738  0.1995 -0.2757  0.0110
18045TIP3    H175626   1.393   0.529   5.739  0.0496 -0.2496 -0.8627
18045TIP3    H275627   1.423   0.409   5.652  1.4705 -1.0787  0.7074
18046TIP3   OH275628   5.928   4.720   4.883  0.4005  0.7063 -0.2648
18046TIP3    H175629   5.838   4.738   4.854  0.2170  1.3563  0.6476
18046TIP3    H275630   5.923   4.633   4.922  0.1536  0.7561 -0.1804
18047TIP3   OH275631   2.634   2.384  16.414  0.4395  0.1453  0.4715
18047TIP3    H175632   2.560   2.434  16.451  0.2579  1.8702 -1.9726
18047TIP3    H275633   2.630   2.299  16.458 -1.4439  1.0560  2.2436
18048TIP3   OH275634   5.847   0.327  15.987  0.2213  0.2004  0.3595
18048TIP3    H175635   5.870   0.335  16.079  2.4954  1.8747 -0.2775
18048TIP3    H275636   5.914   0.377  15.940 -0.9411 -0.4541 -2.2098
18049TIP3   OH275637   0.237   2.456   2.689  0.0872  0.7531  0.0650
18049TIP3    H175638   0.321   2.444   2.644  0.6049  0.1361  1.1483
18049TIP3    H275639   0.177   2.395   2.646  0.9155 -0.7921  1.0191
18050TIP3   OH275640   4.139   2.461   3.292  0.1430 -0.6077  0.2829
18050TIP3    H175641   4.182   2.395   3.237 -1.0137 -0.4314 -0.8779
18050TIP3    H275642   4.080   2.507   3.233  0.5716  1.1711  1.1713
18051TIP3   OH275643   1.561   6.505   1.286 -0.1099 -0.0139 -0.0053
18051TIP3    H175644   1.630   6.555   1.330 -0.6357  0.4329  0.3246
18051TIP3    H275645   1.480   6.548   1.311 -0.5087 -0.4628 -0.4853
18052TIP3   OH275646   5.608   0.137  14.884  0.3005  0.7251  0.3491
18052TIP3    H175647   5.686   0.087  14.905  0.0057  0.4460  0.7751
18052TIP3    H275648   5.539   0.072  14.871  0.4172  0.8718 -1.3295
18053TIP3   OH275649   2.277   3.204   4.092 -0.0570  0.1468 -0.3462
18053TIP3    H175650   2.192   3.161   4.095  0.6128 -1.2312 -0.2372
18053TIP3    H275651   2.283   3.238   4.003  0.2269 -1.8444 -1.1466
18054TIP3   OH275652   1.261   3.549   5.768 -0.3549 -0.0279 -0.0258
18054TIP3    H175653   1.319   3.473   5.775  0.6479  0.8675  3.4399
18054TIP3    H275654   1.175   3.516   5.795  0.1790  0.0952  1.9448
18055TIP3   OH275655   2.996   4.484   0.572  0.0138  0.4171 -0.5282
18055TIP3    H175656   2.935   4.413   0.550  1.7918 -1.1325 -0.7997
18055TIP3    H275657   2.971   4.512   0.660 -1.1490 -0.0845 -0.6836
18056TIP3   OH275658   3.430   5.405   5.410  0.6457 -0.0395  0.2162
18056TIP3    H175659   3.358   5.390   5.349 -0.3839  1.1193  1.0692
18056TIP3    H275660   3.424   5.333   5.472  0.2659 -0.0095  0.2209
18057TIP3   OH275661   1.749   0.546  12.639 -0.2990 -0.4894  0.6594
18057TIP3    H175662   1.751   0.451  12.626 -1.4924 -0.2969 -1.5809
18057TIP3    H275663   1.655   0.567  12.643 -0.1207  0.7494 -0.7198
18058TIP3   OH275664   2.117   2.829   3.107  0.2997 -0.0235  0.2660
18058TIP3    H175665   2.199   2.794   3.072  0.9260  0.4687  1.1971
18058TIP3    H275666   2.049   2.791   3.051  1.2476  0.7289 -1.4723
18059TIP3   OH275667   3.473   1.267   5.081  0.5790  0.0576 -0.3546
18059TIP3    H175668   3.428   1.187   5.053  2.1451 -1.2629  0.7318
18059TIP3    H275669   3.565   1.253   5.057  0.7866  1.8978 -0.8494
18060TIP3   OH275670   1.801   0.997  17.132 -0.2399 -0.1918 -0.5274
18060TIP3    H175671   1.891   1.029  17.132 -0.2841 -0.0471  0.2193
18060TIP3    H275672   1.749   1.074  17.155 -0.5793 -0.2232 -1.1710
18061TIP3   OH275673   2.202   4.779   3.758  0.3377  0.2351  0.4201
18061TIP3    H175674   2.162   4.758   3.843  0.6478  0.3611  0.6003
18061TIP3    H275675   2.282   4.826   3.781 -0.1753  1.3290  0.0285
18062TIP3   OH275676   1.446   0.836  11.589  0.2984  0.3954 -0.3780
18062TIP3    H175677   1.540   0.827  11.576  0.5351  1.2533  0.5902
18062TIP3    H275678   1.422   0.914  11.540 -0.2369 -0.7353 -1.9906
18063TIP3   OH275679   1.066   0.946  11.593  0.4987 -0.6191 -0.0714
18063TIP3    H175680   1.120   0.872  11.564  1.3690 -0.0677  0.1394
18063TIP3    H275681   1.097   1.020  11.542 -1.2437 -0.6241 -1.2457
18064TIP3   OH275682   3.323   2.665  16.334  0.7894 -0.1300  0.8197
18064TIP3    H175683   3.382   2.597  16.366  2.0843  1.1139  1.1592
18064TIP3    H275684   3.240   2.648  16.379  0.0640 -3.3082 -1.3907
18065TIP3   OH275685   0.699   5.373  15.599 -0.8944 -0.3828  0.4872
18065TIP3    H175686   0.723   5.460  15.566 -0.5848  0.0823  1.8660
18065TIP3    H275687   0.631   5.343  15.539 -0.2007  0.3101 -0.6883
18066TIP3   OH275688   0.364   4.659  13.197 -0.3965  0.0258  0.1892
18066TIP3    H175689   0.439   4.600  13.204 -0.7982 -0.4313  0.6648
18066TIP3    H275690   0.390   4.736  13.247 -0.4134 -0.3091  0.7230
18067TIP3   OH275691   6.392   1.285   0.092  0.1569 -0.9689  0.1608
18067TIP3    H175692   6.359   1.201   0.062  0.4535 -0.3416 -2.0635
18067TIP3    H275693   6.323   1.347   0.069  1.1613 -0.2144 -0.9493
18068TIP3   OH275694   3.135   3.425   2.670  0.4937  0.0539 -0.5230
18068TIP3    H175695   3.218   3.378   2.663 -0.0508 -0.8287 -1.3214
18068TIP3    H275696   3.160   3.515   2.695  1.6067 -0.4217  0.1702
18069TIP3   OH275697   6.444   5.813   2.126 -0.0666  0.0273 -0.0271
18069TIP3    H175698   6.408   5.844   2.210  0.8674  0.2142  0.3165
18069TIP3    H275699   6.456   5.892   2.074 -2.0176 -0.2070 -0.9296
18070TIP3   OH275700   4.829   5.899   3.164 -0.2540 -0.2934  0.1317
18070TIP3    H175701   4.813   5.831   3.099 -1.5215 -0.5043  0.6377
18070TIP3    H275702   4.743   5.939   3.179  0.1463  0.2201  1.1586
18071TIP3   OH275703   5.928   0.979  15.374  0.2792  0.6387  0.2117
18071TIP3    H175704   5.865   0.945  15.436  2.2983 -1.2598  1.3516
18071TIP3    H275705   5.960   1.061  15.414  0.3727  0.2788  0.8790
18072TIP3   OH275706   4.449   2.590   0.756 -0.3708 -0.0028 -0.2485
18072TIP3    H175707   4.507   2.591   0.832 -0.6712 -1.3242  0.0205
18072TIP3    H275708   4.386   2.521   0.774 -0.6619 -0.1095 -1.5439
18073TIP3   OH275709   4.994   5.666  11.414  0.7774  0.4764  0.5952
18073TIP3    H175710   5.012   5.578  11.383 -0.8279  0.0157  0.8958
18073TIP3    H275711   5.051   5.676  11.491  0.7358 -0.4088  0.7507
18074TIP3   OH275712   2.885   3.461  11.932 -0.0851 -0.3854  0.2018
18074TIP3    H175713   2.942   3.476  11.856  1.6862  0.2354  1.6081
18074TIP3    H275714   2.908   3.373  11.962 -0.1542 -0.2903  0.5372
18075TIP3   OH275715   2.378   1.427  16.976  0.1994 -0.9622 -0.5532
18075TIP3    H175716   2.435   1.497  16.946 -0.1105 -0.0056  1.0122
18075TIP3    H275717   2.370   1.369  16.900 -0.5090  1.2856 -2.3157
18076TIP3   OH275718   4.151   4.553  17.327  0.7636 -0.3265 -0.0168
18076TIP3    H175719   4.187   4.602  17.253 -1.7379  2.2340  0.2917
18076TIP3    H275720   4.068   4.517  17.295 -0.4342  0.9350  1.5060
18077TIP3   OH275721   3.764   2.675  14.197  0.0804  0.1933 -0.1755
18077TIP3    H175722   3.672   2.697  14.211  0.3532  1.1306  0.1889
18077TIP3    H275723   3.762   2.586  14.160 -0.8887 -0.5917  1.6252
18078TIP3   OH275724   5.618   3.647  13.976 -0.6136 -0.3199 -0.2469
18078TIP3    H175725   5.579   3.560  13.988 -4.1899  1.3742  1.6574
18078TIP3    H275726   5.554   3.695  13.924  0.4652  1.7360  0.2411
18079TIP3   OH275727   4.897   1.961  17.537 -0.2815  0.2696 -0.1949
18079TIP3    H175728   4.899   1.959  17.441 -3.1135  0.1219 -0.3423
18079TIP3    H275729   4.845   1.884  17.561  0.9640 -0.0872  1.5347
18080TIP3   OH275730   5.406   0.761  15.560  0.6093 -0.2245  0.5149
18080TIP3    H175731   5.425   0.810  15.640  0.7661  0.1424  0.2516
18080TIP3    H275732   5.467   0.796  15.495  0.1216 -0.1550  0.0899
18081TIP3   OH275733   5.320   1.632  15.435  0.5286 -0.4089  0.0195
18081TIP3    H175734   5.248   1.676  15.481 -1.1743 -2.7635 -0.2073
18081TIP3    H275735   5.380   1.703  15.412 -2.9392  2.2134 -2.0999
18082TIP3   OH275736   0.894   1.890  17.567 -0.3611 -0.1005 -0.3968
18082TIP3    H175737   0.857   1.872  17.481  0.2171 -1.1071 -0.4454
18082TIP3    H275738   0.840   1.839  17.628  1.2682 -2.0904 -0.5314
18083TIP3   OH275739   3.095   4.420  15.271  0.1770  0.3273 -0.3749
18083TIP3    H175740   3.045   4.424  15.353  0.6310  0.7981 -0.1183
18083TIP3    H275741   3.049   4.481  15.213 -1.2878 -1.3874 -1.1328
18084TIP3   OH275742   2.419   1.061  17.606  0.0988  0.1471 -0.0381
18084TIP3    H175743   2.440   1.102  17.690 -0.0001  0.6206 -0.2404
18084TIP3    H275744   2.325   1.045  17.610  0.3139 -1.0985  0.4873
18085TIP3   OH275745   5.978   2.803   1.825 -0.1366  0.0930  0.2655
18085TIP3    H175746   6.063   2.822   1.785  0.4109  0.8110  1.6805
18085TIP3    H275747   5.935   2.888   1.832 -0.2295 -0.0102  1.1342
18086TIP3   OH275748   0.625   3.891   4.027 -0.4202  0.4264 -0.0085
18086TIP3    H175749   0.627   3.796   4.037 -2.7392  0.1279 -1.5989
18086TIP3    H275750   0.701   3.911   3.973  0.4159 -0.4350  0.8184
18087TIP3   OH275751   1.971   1.631  10.596  0.5103 -0.3941 -0.8608
18087TIP3    H175752   1.892   1.672  10.562 -1.0074 -1.8329  0.7102
18087TIP3    H275753   1.983   1.553  10.542  0.2040 -0.7571 -0.4109
18088TIP3   OH275754   1.325   3.490  11.709 -0.6897  0.4297 -0.3044
18088TIP3    H175755   1.378   3.538  11.647 -0.0829  0.0503 -0.0859
18088TIP3    H275756   1.359   3.515  11.795  1.6976 -2.5707 -0.1814
18089TIP3   OH275757   4.583   1.936  11.897 -0.4605  0.3714 -0.4723
18089TIP3    H175758   4.606   1.905  11.985  0.3512  2.5207  0.1338
18089TIP3    H275759   4.519   2.006  11.913 -0.4347  0.6655 -1.6200
18090TIP3   OH275760   3.551   0.754   5.022 -0.4310 -0.7659  0.2844
18090TIP3    H175761   3.609   0.789   5.089 -1.6508 -0.7709  1.3826
18090TIP3    H275762   3.590   0.671   4.997 -0.2166 -0.9967  1.3575
18091TIP3   OH275763   6.045   6.702   0.280 -0.1822  0.0468 -0.6959
18091TIP3    H175764   6.033   6.608   0.268  1.2371 -0.4621  1.2716
18091TIP3    H275765   5.958   6.739   0.263 -1.0322 -1.7414 -0.5614
18092TIP3   OH275766   4.679   2.484  15.785  0.0911  0.4685  0.0858
18092TIP3    H175767   4.691   2.556  15.847 -0.1296 -1.6465  2.7660
18092TIP3    H275768   4.667   2.527  15.700 -0.3748  3.5695  1.5875
18093TIP3   OH275769   3.668   6.508  14.304  0.2728 -0.1991 -0.1293
18093TIP3    H175770   3.697   6.520  14.395 -0.1195 -0.7711  0.0795
18093TIP3    H275771   3.577   6.537  14.304 -0.7181 -2.9721  0.4041
18094TIP3   OH275772   0.369   3.930  11.434 -0.1641  0.4890 -0.3177
18094TIP3    H175773   0.430   3.912  11.362 -0.4102  0.4356 -0.5131
18094TIP3    H275774   0.334   3.844  11.457 -0.7056  0.6105 -0.6846
18095TIP3   OH275775   0.525   0.000   0.606 -0.0304 -0.6193 -0.3477
18095TIP3    H175776   0.486   0.071   0.556  0.6790 -1.0687 -1.5637
18095TIP3    H275777   0.505  -0.079   0.556  2.2007 -0.8894 -0.8875
18096TIP3   OH275778   5.218   2.186  15.849 -0.4107 -0.2605 -0.4358
18096TIP3    H175779   5.178   2.248  15.788  1.8913  0.4046 -1.3781
18096TIP3    H275780   5.145   2.153  15.902 -2.3491  0.0346 -2.7510
18097TIP3   OH275781   3.877   6.410   0.572  0.7246 -0.0582  0.5925
18097TIP3    H175782   3.851   6.413   0.480  1.3256 -2.0110  0.3256
18097TIP3    H275783   3.970   6.433   0.572  1.3685 -2.4419  0.3653
18098TIP3   OH275784   4.913   5.714  15.998  0.2857 -0.4410  0.1065
18098TIP3    H175785   4.818   5.703  15.993 -0.1791  0.9476  3.2721
18098TIP3    H275786   4.940   5.654  16.067  1.7891 -1.0279 -0.9596
18099TIP3   OH275787   6.552   4.754  17.590 -0.1678 -0.2464 -0.2780
18099TIP3    H175788   6.465   4.738  17.553 -0.8584  1.5305  0.4807
18099TIP3    H275789   6.557   4.696  17.666 -0.6650 -0.3907 -0.3503
18100TIP3   OH275790   3.284   2.780   5.867 -0.1094 -0.0378 -0.5858
18100TIP3    H175791   3.324   2.847   5.923 -1.2426  0.7288 -0.6601
18100TIP3    H275792   3.260   2.709   5.926  0.6904 -0.1952 -0.4408
18101TIP3   OH275793   5.393   1.917  12.607 -0.0974  0.3438 -0.4009
18101TIP3    H175794   5.334   1.894  12.678 -1.0434  0.1346 -1.2269
18101TIP3    H275795   5.473   1.869  12.625 -0.2402  0.4703  0.6319
18102TIP3   OH275796   3.033   5.012   6.855  0.4311  0.3520 -0.0289
18102TIP3    H175797   3.010   4.978   6.768 -0.2461  1.5302 -0.3215
18102TIP3    H275798   3.067   4.935   6.902 -0.6091 -0.6333 -0.8273
18103TIP3   OH275799   4.560   6.329   4.559 -0.2269 -0.6214 -0.0347
18103TIP3    H175800   4.549   6.317   4.654  1.2633  1.9042  0.5490
18103TIP3    H275801   4.629   6.267   4.535 -0.5431 -1.2149  0.5470
18104TIP3   OH275802   4.191   4.499  11.838 -0.1025  0.1732  0.5871
18104TIP3    H175803   4.263   4.455  11.883 -0.4629 -0.9981  0.0718
18104TIP3    H275804   4.173   4.444  11.762  0.1550  1.8504 -0.7240
18105TIP3   OH275805   2.974   5.957  15.524  0.1731 -0.2410 -0.4277
18105TIP3    H175806   2.907   5.901  15.486  0.0875  0.4753 -1.3985
18105TIP3    H275807   3.045   5.956  15.459  0.5009  0.1404 -0.0827
18106TIP3   OH275808   3.478   6.702   3.739 -0.2393  0.1505  0.7268
18106TIP3    H175809   3.567   6.726   3.713 -0.1972 -0.5320  0.2282
18106TIP3    H275810   3.429   6.784   3.733  0.3237  0.5076  0.8900
18107TIP3   OH275811   6.133   4.385   1.224  0.1492 -0.9032  0.2746
18107TIP3    H175812   6.164   4.305   1.267  2.9092 -0.9347 -1.5019
18107TIP3    H275813   6.188   4.455   1.260 -0.9319 -0.1135  0.4266
18108TIP3   OH275814   3.559   4.374   0.950  0.5585 -0.0103  0.3508
18108TIP3    H175815   3.561   4.467   0.975 -0.4809  0.5869 -1.5912
18108TIP3    H275816   3.484   4.366   0.892  2.5509 -1.3121 -2.2874
18109TIP3   OH275817   2.794   5.790   1.922 -0.6452  0.0696  0.0145
18109TIP3    H175818   2.874   5.764   1.968  0.1270  0.9188 -0.8028
18109TIP3    H275819   2.758   5.708   1.887 -0.2819 -0.3497  0.6055
18110TIP3   OH275820   5.380   0.845   1.293 -0.3030  0.0669  1.2763
18110TIP3    H175821   5.365   0.899   1.371 -0.8242 -0.7263  1.7311
18110TIP3    H275822   5.462   0.878   1.257  0.4286 -0.1477  2.6772
18111TIP3   OH275823   4.953   6.727  15.670  0.3812  0.3297 -0.9451
18111TIP3    H175824   4.914   6.747  15.585  0.9444  0.8808 -1.0764
18111TIP3    H275825   4.970   6.632  15.667 -2.2231 -0.2408 -0.3386
18112TIP3   OH275826   1.935   0.325  13.583  0.3354  0.0936 -0.1293
18112TIP3    H175827   1.899   0.300  13.668  0.3903  0.1131 -0.0997
18112TIP3    H275828   1.861   0.323  13.524  0.0753  1.1291  0.1333
18113TIP3   OH275829   2.762   3.876   1.267  0.2934 -0.1544 -0.1321
18113TIP3    H175830   2.851   3.845   1.249  0.3773  0.9025 -1.7441
18113TIP3    H275831   2.761   3.966   1.235 -0.5562  0.8667  2.4933
18114TIP3   OH275832   0.010   1.979   5.564  0.1981 -0.1610  0.3763
18114TIP3    H175833  -0.063   2.004   5.621 -0.1287  0.9892 -0.5276
18114TIP3    H275834   0.079   1.952   5.625 -0.2538  0.7451  1.3198
18115TIP3   OH275835   0.841   4.872  12.747  0.0712 -0.0816  0.1227
18115TIP3    H175836   0.916   4.824  12.712  0.3066  0.7670 -0.5819
18115TIP3    H275837   0.866   4.895  12.836  0.9921  0.8770 -0.3639
18116TIP3   OH275838   1.240   2.327   3.100  0.2568  0.7526 -0.3999
18116TIP3    H175839   1.309   2.311   3.164  1.1207  0.6723 -1.3266
18116TIP3    H275840   1.248   2.254   3.038 -0.4884  0.8942 -0.6724
18117TIP3   OH275841   4.299   4.951   1.937  0.5749  0.4716  0.0562
18117TIP3    H175842   4.341   4.890   1.878 -0.5583  0.8254 -1.1758
18117TIP3    H275843   4.239   4.897   1.990 -1.1650  0.5619 -1.7047
18118TIP3   OH275844   2.234   6.041   2.824  0.0907 -0.1302 -0.0712
18118TIP3    H175845   2.324   6.041   2.791  0.2909 -0.0069  0.4507
18118TIP3    H275846   2.184   5.991   2.760  0.8132 -1.4871  0.3766
18119TIP3   OH275847   1.192   2.381   4.785 -0.1912  0.0415  0.1915
18119TIP3    H175848   1.104   2.407   4.814 -0.3697 -0.8411  0.4644
18119TIP3    H275849   1.182   2.367   4.691 -0.7828 -1.7023  0.4721
18120TIP3   OH275850   5.732   1.290   0.523  0.7065  0.6129  0.0603
18120TIP3    H175851   5.822   1.260   0.536  0.2629 -1.6551 -1.3563
18120TIP3    H275852   5.684   1.210   0.499 -2.0987  1.3908  2.5013
18121TIP3   OH275853   6.549   0.760   2.010 -0.2632  0.0165  0.2166
18121TIP3    H175854   6.613   0.758   1.938  0.5467 -1.9907  0.9154
18121TIP3    H275855   6.475   0.709   1.977 -1.2201  1.6556 -0.2833
18122TIP3   OH275856   0.530   6.178  16.798 -0.1936 -0.0032 -0.2550
18122TIP3    H175857   0.487   6.109  16.748  0.3793 -0.8110  0.3349
18122TIP3    H275858   0.536   6.143  16.887  1.2537  0.2491 -0.2245
18123TIP3   OH275859   5.793   3.359  11.886 -0.2600 -0.2448 -0.1826
18123TIP3    H175860   5.842   3.434  11.852  1.3500  0.2142  2.7945
18123TIP3    H275861   5.816   3.287  11.828  2.9303  0.2998  0.2104
18124TIP3   OH275862   0.860   6.032  14.061 -0.3962  0.0722  0.4035
18124TIP3    H175863   0.765   6.022  14.061 -0.1912 -3.5960 -1.2949
18124TIP3    H275864   0.889   5.987  14.141 -0.0285 -0.8936 -0.2526
18125TIP3   OH275865   5.518   1.903  13.839  0.3790 -0.0923  0.1410
18125TIP3    H175866   5.481   1.824  13.879 -0.0916  0.3443  0.5662
18125TIP3    H275867   5.513   1.885  13.745  2.0356 -1.3694  0.2424
18126TIP3   OH275868   6.253   0.879   2.524  0.1979  0.4894  0.2691
18126TIP3    H175869   6.198   0.957   2.529  0.7560  0.9369 -0.3877
18126TIP3    H275870   6.290   0.882   2.436  0.4397 -0.3740  0.3346
18127TIP3   OH275871   2.026   4.833  12.841 -0.5131 -0.0923 -0.3786
18127TIP3    H175872   2.021   4.874  12.928 -0.3295 -0.2108 -0.3110
18127TIP3    H275873   2.097   4.770  12.849 -0.8037 -0.4371 -0.4774
18128TIP3   OH275874   4.982   3.243  12.410 -0.1289  0.2718 -0.0980
18128TIP3    H175875   4.925   3.295  12.466  0.5611  0.5553  0.3564
18128TIP3    H275876   4.922   3.186  12.362 -0.8317  0.8887  0.0132
18129TIP3   OH275877   4.516   5.967  16.449  0.1037 -0.3046 -0.5468
18129TIP3    H175878   4.446   5.940  16.389  0.9132  0.4582 -1.8944
18129TIP3    H275879   4.567   5.887  16.464 -1.1385 -0.9111  0.6020
18130TIP3   OH275880   2.078   0.866   3.532  0.6801  0.3781 -0.2936
18130TIP3    H175881   2.139   0.885   3.603  1.8438 -0.7659 -0.9415
18130TIP3    H275882   2.094   0.774   3.510 -0.2296  0.4790 -1.4845
18131TIP3   OH275883   5.737   6.651   3.547  0.4417 -0.2167 -0.2123
18131TIP3    H175884   5.645   6.676   3.536  1.0274  1.5051 -1.7260
18131TIP3    H275885   5.756   6.670   3.638 -0.7782 -0.9059  0.2099
18132TIP3   OH275886   0.156   3.993   3.304  0.0449 -0.2635  0.7523
18132TIP3    H175887   0.076   3.946   3.279 -0.9661  1.5553  0.3391
18132TIP3    H275888   0.126   4.061   3.364  1.3243  0.3329  0.7470
18133TIP3   OH275889   1.143   5.322  14.302 -0.0021  0.3570  0.1507
18133TIP3    H175890   1.122   5.285  14.216  2.1974 -2.0544  0.5020
18133TIP3    H275891   1.117   5.413  14.297 -1.1979 -0.0502 -2.5944
18134TIP3   OH275892   0.743   5.569   2.225 -0.2102 -0.4445  0.1494
18134TIP3    H175893   0.673   5.613   2.178 -0.4715 -3.6249 -2.8683
18134TIP3    H275894   0.700   5.495   2.268  0.9276 -1.0356  0.3201
18135TIP3   OH275895   4.642   4.593   0.574  0.2751 -0.4410  0.4231
18135TIP3    H175896   4.590   4.669   0.552 -2.3196 -1.7628  1.5795
18135TIP3    H275897   4.685   4.616   0.657  2.2475  0.9208 -0.8950
18136TIP3   OH275898   5.798   4.335  12.402  0.3845  0.0531 -0.1156
18136TIP3    H175899   5.709   4.304  12.385  0.5222 -0.1617 -0.4525
18136TIP3    H275900   5.791   4.431  12.398  0.1740  0.0368 -0.1694
18137TIP3   OH275901   1.992   1.694   2.402  0.1908 -0.0410  0.3002
18137TIP3    H175902   1.910   1.738   2.378  0.1215  0.0666  0.7144
18137TIP3    H275903   2.032   1.753   2.466  0.4212 -0.2640  0.3609
18138TIP3   OH275904   5.326   4.624  11.495 -0.1197 -0.1110 -0.3716
18138TIP3    H175905   5.361   4.663  11.576  1.6328 -0.2724 -1.0094
18138TIP3    H275906   5.350   4.531  11.501 -0.1824 -0.1700 -0.9766
18139TIP3   OH275907   5.461   3.593   1.196 -0.0890 -0.2644 -0.2590
18139TIP3    H175908   5.471   3.638   1.112  1.6416 -0.7312 -0.3365
18139TIP3    H275909   5.551   3.580   1.227 -0.6088 -2.0109  0.6412
18140TIP3   OH275910   5.658   2.175   3.776 -0.9279 -0.0400  0.4413
18140TIP3    H175911   5.631   2.085   3.793 -0.6080 -0.5209 -1.3908
18140TIP3    H275912   5.715   2.198   3.849 -0.1275 -1.7048  0.3730
18141TIP3   OH275913   4.456   1.849   5.312 -0.1670  0.0865  0.1297
18141TIP3    H175914   4.548   1.859   5.337 -0.3012 -0.3832  0.8641
18141TIP3    H275915   4.413   1.926   5.349 -0.4164 -0.7540  1.7182
18142TIP3   OH275916   5.280   5.957  11.182 -0.2202 -0.3336 -0.4841
18142TIP3    H175917   5.281   5.944  11.087 -1.0256  0.7269 -0.6537
18142TIP3    H275918   5.189   5.944  11.207 -0.0937 -0.1674  0.0818
18143TIP3   OH275919   3.461   4.994   5.870  0.3843 -0.2689  0.5334
18143TIP3    H175920   3.368   5.008   5.886  0.2796 -0.1991 -0.1281
18143TIP3    H275921   3.488   5.069   5.818  0.4992 -0.9720 -0.4560
18144TIP3   OH275922   4.594   5.701  14.103 -0.0539  0.2086 -0.1738
18144TIP3    H175923   4.531   5.758  14.146 -1.8211 -0.8816 -1.2250
18144TIP3    H275924   4.665   5.760  14.076 -0.7497  1.5172  0.7264
18145TIP3   OH275925   2.143   2.790   1.595  0.0066  0.4406 -0.3560
18145TIP3    H175926   2.174   2.877   1.572 -0.4004  0.4766 -0.7888
18145TIP3    H275927   2.050   2.801   1.614  0.1921  0.2927  0.6938
18146TIP3   OH275928   3.803   2.543  17.119 -0.4257  0.3479 -0.2055
18146TIP3    H175929   3.721   2.587  17.139  0.0697  0.4645  1.7203
18146TIP3    H275930   3.868   2.586  17.174  1.1862  0.9516 -2.4246
18147TIP3   OH275931   2.109   0.846   2.010  0.8022 -0.1293 -0.3903
18147TIP3    H175932   2.013   0.849   2.004  0.7755  0.1892  0.0779
18147TIP3    H275933   2.126   0.791   2.086  0.9573  0.5962  0.1177
18148TIP3   OH275934   1.996   5.220  15.154  0.0795 -0.6886 -0.6982
18148TIP3    H175935   2.046   5.244  15.231 -2.4579 -1.5797  1.3927
18148TIP3    H275936   1.992   5.300  15.102  1.4621  0.0769  0.3110
18149TIP3   OH275937   5.130   6.149   4.558  0.4241 -0.1283 -0.2049
18149TIP3    H175938   5.039   6.145   4.529  0.5638 -2.1831 -0.5338
18149TIP3    H275939   5.136   6.231   4.607 -1.7602 -0.2068  0.3217
18150TIP3   OH275940   2.862   3.737  16.685 -0.7383  0.0124  0.1393
18150TIP3    H175941   2.835   3.770  16.599  1.3225 -1.5159 -1.1863
18150TIP3    H275942   2.786   3.753  16.741 -1.6560  2.3343 -1.5842
18151TIP3   OH275943   3.719   2.804  10.895  0.4443  0.0755  0.5086
18151TIP3    H175944   3.716   2.767  10.984  1.0822 -0.8909  0.1426
18151TIP3    H275945   3.759   2.735  10.842 -1.6955 -0.1481 -0.9232
18152TIP3   OH275946   2.817   0.752  13.805 -0.7611 -0.2788  0.1266
18152TIP3    H175947   2.810   0.674  13.859  1.3407 -0.5089  0.1320
18152TIP3    H275948   2.901   0.791  13.828 -0.4831  0.4569 -1.8672
18153TIP3   OH275949   6.515   3.622   3.679 -0.2681 -0.0436  0.6259
18153TIP3    H175950   6.500   3.713   3.654  1.2270 -0.8370 -4.1499
18153TIP3    H275951   6.427   3.585   3.684 -0.8217  1.2315  0.8528
18154TIP3   OH275952   4.205   2.910  15.802  0.3865  0.2521 -0.4130
18154TIP3    H175953   4.175   2.955  15.881 -0.1646  0.0012 -0.4757
18154TIP3    H275954   4.151   2.832  15.796  1.0458 -0.2034 -0.5447
18155TIP3   OH275955   2.640   2.628  12.560  0.3442  0.0321 -0.1300
18155TIP3    H175956   2.598   2.563  12.617 -1.1466 -1.0044 -2.2789
18155TIP3    H275957   2.589   2.708  12.574 -0.0186 -0.2166 -0.0069
18156TIP3   OH275958   0.460   3.304  15.089 -0.1373  0.0494  0.2050
18156TIP3    H175959   0.455   3.332  15.181 -0.9717 -1.3034  0.5906
18156TIP3    H275960   0.369   3.296  15.061  0.1110  0.3125 -0.7235
18157TIP3   OH275961   5.305   1.265  13.744  0.3066 -0.2387  0.5062
18157TIP3    H175962   5.348   1.230  13.822  1.5788  0.3787  0.1076
18157TIP3    H275963   5.296   1.190  13.685  3.2486  0.0355 -0.4570
18158TIP3   OH275964   0.773   5.952   3.114  0.0751 -0.1979 -0.0173
18158TIP3    H175965   0.779   5.899   3.193  0.4310 -1.5716 -0.9423
18158TIP3    H275966   0.863   5.959   3.083 -0.3220 -2.0507 -1.7980
18159TIP3   OH275967   2.288   5.277  11.427  0.5850  0.2007 -0.1684
18159TIP3    H175968   2.379   5.290  11.400  0.6566 -1.0403 -0.5987
18159TIP3    H275969   2.279   5.182  11.437  0.6837  0.4747  4.6660
18160TIP3   OH275970   2.777   6.663   3.392 -0.4190 -0.3454 -0.6583
18160TIP3    H175971   2.703   6.668   3.332 -0.3616 -0.1201 -0.7131
18160TIP3    H275972   2.817   6.578   3.375 -0.6229 -0.4352 -0.6801
18161TIP3   OH275973   2.172   1.290   3.196  0.3397 -1.0476 -0.2938
18161TIP3    H175974   2.145   1.239   3.272 -1.4145 -1.3735 -1.0836
18161TIP3    H275975   2.168   1.381   3.225 -0.7103 -1.1465 -0.1073
18162TIP3   OH275976   3.477   3.972  12.108  0.6938 -0.5400  0.1899
18162TIP3    H175977   3.421   4.010  12.176 -1.8607 -1.0775 -1.4562
18162TIP3    H275978   3.537   4.042  12.083  1.9509 -0.4322  3.1437
18163TIP3   OH275979   0.641   1.375   4.069  1.0100 -0.0502 -0.0389
18163TIP3    H175980   0.634   1.388   3.974  1.0638 -0.9448 -0.1782
18163TIP3    H275981   0.707   1.439   4.097 -0.2943  1.4775 -0.2945
18164TIP3   OH275982   1.977   5.824  11.160 -0.5462 -0.1619  0.2917
18164TIP3    H175983   1.961   5.753  11.222  1.7231 -0.5455  0.5305
18164TIP3    H275984   1.968   5.783  11.074  0.5986 -0.7451  0.4264
18165TIP3   OH275985   0.599   2.360  14.864 -0.3417 -0.3886  0.0993
18165TIP3    H175986   0.557   2.286  14.821 -0.5868  1.4696 -3.2199
18165TIP3    H275987   0.546   2.436  14.839  0.5326  1.1048  2.3838
18166TIP3   OH275988   0.368   2.378  14.683  0.0459 -0.3767 -0.1770
18166TIP3    H175989   0.305   2.370  14.611  0.6582  0.3946 -0.8257
18166TIP3    H275990   0.450   2.401  14.640  0.9678 -2.1109  0.5964
18167TIP3   OH275991   5.807   2.047  16.266 -0.6514 -0.5311 -0.3438
18167TIP3    H175992   5.761   2.082  16.189  0.5484  0.2079 -0.7575
18167TIP3    H275993   5.758   2.082  16.341 -1.6130 -0.9524 -0.7557
18168TIP3   OH275994   4.720   3.159   5.158 -0.1135 -0.0399 -0.6887
18168TIP3    H175995   4.625   3.162   5.145 -0.2983  0.6575  0.6319
18168TIP3    H275996   4.739   3.068   5.177 -1.0011  0.2263  1.9641
18169TIP3   OH275997   5.968   1.279   1.387 -0.2431 -0.0471  0.0635
18169TIP3    H175998   6.042   1.259   1.330 -0.2133 -0.9893  0.4032
18169TIP3    H275999   5.966   1.206   1.449 -1.6031 -0.1540 -0.0911
18170TIP3   OH276000   0.507   6.375  17.559  0.7680  0.7216  0.2038
18170TIP3    H176001   0.590   6.328  17.564  1.3559  1.6313 -0.6792
18170TIP3    H276002   0.490   6.384  17.465 -0.0336  1.0597  0.3743
18171TIP3   OH276003   3.767   5.580   0.285 -0.1081 -0.7432 -0.2220
18171TIP3    H176004   3.705   5.535   0.343  0.3434 -0.9908  0.0735
18171TIP3    H276005   3.758   5.535   0.201  0.3544 -1.4079  0.0759
18172TIP3   OH276006   2.965   2.590   0.651  0.1005 -0.2480  0.2334
18172TIP3    H176007   2.916   2.656   0.700 -0.6254 -2.1954  2.3524
18172TIP3    H276008   2.899   2.544   0.599  0.5842  0.5843 -1.1590
18173TIP3   OH276009   5.892   6.631  15.682 -0.0474 -0.3177  0.1388
18173TIP3    H176010   5.928   6.652  15.769  1.6668 -0.1454 -0.5758
18173TIP3    H276011   5.811   6.682  15.676  0.4098  0.5640  1.1874
18174TIP3   OH276012   4.798   2.236   2.574 -0.5714  0.3420 -0.3095
18174TIP3    H176013   4.713   2.196   2.553 -1.3315  1.3326  0.7372
18174TIP3    H276014   4.818   2.202   2.661  0.1977  0.0056 -0.6095
18175TIP3   OH276015   2.552   1.377  15.430  0.0083  0.5020 -0.0728
18175TIP3    H176016   2.521   1.467  15.427 -0.4130  0.3481 -2.5839
18175TIP3    H276017   2.501   1.332  15.362  2.1969 -0.9471 -0.8503
18176TIP3   OH276018   0.873   4.474  13.472  0.2987 -0.1396  0.3696
18176TIP3    H176019   0.877   4.453  13.379  0.2672 -0.5698  0.4609
18176TIP3    H276020   0.957   4.515  13.492  1.1003 -1.8297  0.5751
18177TIP3   OH276021   0.985   0.620  11.535 -0.5189  0.5896 -0.3292
18177TIP3    H176022   1.042   0.691  11.507 -2.7272  2.0245 -1.4864
18177TIP3    H276023   0.942   0.592  11.454  0.5791 -2.4375  0.0088
18178TIP3   OH276024   2.895   4.057  13.096 -0.4236  0.4886 -0.3628
18178TIP3    H176025   2.875   4.044  13.004 -2.1207  0.9681 -0.1024
18178TIP3    H276026   2.990   4.047  13.102 -0.5632 -3.5730 -1.5220
18179TIP3   OH276027   4.885   0.951  12.821  0.3570  0.3753  0.4934
18179TIP3    H176028   4.839   0.905  12.751  0.2672  0.9741  0.1413
18179TIP3    H276029   4.816   0.985  12.878  0.4690 -1.2044  1.6103
18180TIP3   OH276030   0.656   5.995   2.130 -0.3233  0.1692  0.2504
18180TIP3    H176031   0.707   5.995   2.211 -2.5558  2.5226  1.7794
18180TIP3    H276032   0.640   6.088   2.112 -1.9709 -0.4124 -1.5269
18181TIP3   OH276033   5.859   2.633   3.330 -0.4477  0.6507 -0.5605
18181TIP3    H176034   5.882   2.699   3.266 -2.0747  0.6295 -1.2212
18181TIP3    H276035   5.763   2.632   3.331 -0.4749 -1.0415  0.0962
18182TIP3   OH276036   2.097   1.807   4.637  0.3615 -1.3644 -0.0105
18182TIP3    H176037   2.040   1.856   4.578 -0.3416 -3.8353 -1.5794
18182TIP3    H276038   2.040   1.776   4.707  0.2151 -2.0081 -0.4010
18183TIP3   OH276039   0.947   5.158  15.547 -0.8368  0.0482 -0.2229
18183TIP3    H176040   0.935   5.252  15.558  1.4285  0.1733  1.9145
18183TIP3    H276041   0.984   5.149  15.459 -0.9613  1.1680 -0.4019
18184TIP3   OH276042   3.557   1.188   5.670  0.1241 -0.1775 -0.1250
18184TIP3    H176043   3.527   1.154   5.586 -1.2986  0.6359  0.0226
18184TIP3    H276044   3.531   1.121   5.733 -2.3036  0.8790  0.1129
18185TIP3   OH276045   0.818   3.469   5.576  0.2785 -0.1311 -0.5711
18185TIP3    H176046   0.853   3.387   5.542  0.8624  0.7827 -2.3341
18185TIP3    H276047   0.894   3.527   5.581 -0.4203  0.8920 -1.3034
18186TIP3   OH276048   6.564   5.521   5.172  0.0532  0.4245 -0.0907
18186TIP3    H176049   6.621   5.562   5.237 -1.1103 -0.5272  1.5908
18186TIP3    H276050   6.624   5.466   5.120  0.9662  0.9840  0.3478
18187TIP3   OH276051   4.320   6.202   5.137 -0.1701  0.2201 -0.2056
18187TIP3    H176052   4.264   6.228   5.210 -1.4866 -0.4828 -0.9406
18187TIP3    H276053   4.409   6.215   5.170 -0.7372  1.7211  0.8553
18188TIP3   OH276054   3.455   3.261  14.790  0.2244 -0.0606  0.2745
18188TIP3    H176055   3.413   3.312  14.721  1.4469  1.5670  0.6836
18188TIP3    H276056   3.494   3.186  14.743  0.9879  0.9821 -0.8158
18189TIP3   OH276057   0.381   2.359   0.426  0.8018  0.2134  0.2972
18189TIP3    H176058   0.414   2.376   0.338 -1.5190  1.1089 -0.4847
18189TIP3    H276059   0.402   2.267   0.442  3.5380  0.6986 -0.0857
18190TIP3   OH276060   0.964   4.679  16.814  0.0223  0.2002 -0.6205
18190TIP3    H176061   0.876   4.693  16.780  0.1610  1.0328 -0.6430
18190TIP3    H276062   1.018   4.743  16.768  0.7320 -0.5958 -0.9389
18191TIP3   OH276063   6.376   0.981   3.056 -0.1211  0.4272 -0.0188
18191TIP3    H176064   6.364   0.886   3.057 -1.0631  0.5295 -0.4922
18191TIP3    H276065   6.427   0.998   2.977 -0.4696  0.3579 -0.2645
18192TIP3   OH276066   5.960   5.025   5.893 -0.3256  0.5804  0.7503
18192TIP3    H176067   6.042   5.035   5.845 -0.4928  0.4819  0.4392
18192TIP3    H276068   5.922   5.113   5.895 -0.8094  0.4056 -0.1944
18193TIP3   OH276069   1.139   2.970   1.137  0.4027  0.8714  0.3579
18193TIP3    H176070   1.146   2.874   1.135  0.8692  0.8053  2.8233
18193TIP3    H276071   1.046   2.987   1.143  0.2350  0.6507 -1.1284
18194TIP3   OH276072   0.985   5.748  15.353  0.3939  0.1919  0.2520
18194TIP3    H176073   0.971   5.678  15.289 -0.3440  0.1946  0.3982
18194TIP3    H276074   1.080   5.753  15.364  0.6013  0.8454 -1.5590
18195TIP3   OH276075   2.566   5.699  15.977 -0.5202  0.2344 -0.2524
18195TIP3    H176076   2.493   5.709  16.038  0.3188  0.3994  0.7487
18195TIP3    H276077   2.611   5.783  15.979  0.6498 -0.3887  0.3987
18196TIP3   OH276078   6.052   2.505  12.891  0.1835 -0.6748 -0.9346
18196TIP3    H176079   6.120   2.519  12.824  1.1284 -0.5367  0.0197
18196TIP3    H276080   6.034   2.593  12.924 -1.4978 -0.5156 -2.1070
18197TIP3   OH276081   0.907   1.574   6.486 -0.2311  0.4039  0.0372
18197TIP3    H176082   0.977   1.627   6.525  0.8884 -1.8807  1.2993
18197TIP3    H276083   0.947   1.490   6.467 -2.0005 -0.1315 -1.7467
18198TIP3   OH276084   5.774   3.046   0.676  0.2270  0.4834 -0.1358
18198TIP3    H176085   5.683   3.066   0.697  0.0122  0.2603 -0.8502
18198TIP3    H276086   5.773   2.954   0.649  0.8148  0.2029  0.7346
18199TIP3   OH276087   6.316   6.543   4.460 -0.4618  0.1646  0.3904
18199TIP3    H176088   6.372   6.548   4.538 -1.2699  0.3767  0.9710
18199TIP3    H276089   6.356   6.474   4.406 -1.5126 -2.1459  2.3386
18200TIP3   OH276090   6.331   2.848   4.431 -0.0579  0.0552 -0.1703
18200TIP3    H176091   6.264   2.780   4.425  1.5609 -1.6416  0.0353
18200TIP3    H276092   6.381   2.839   4.350  0.3541  0.8103 -0.0052
18201TIP3   OH276093   3.691   3.809   3.196  0.2571 -0.6318  0.0588
18201TIP3    H176094   3.783   3.812   3.171  0.0512  0.6214 -0.5624
18201TIP3    H276095   3.643   3.822   3.115 -0.4776 -1.0324  0.4180
18202TIP3   OH276096   4.650   2.425   6.533 -0.0458  0.0248  0.4267
18202TIP3    H176097   4.691   2.339   6.536 -0.8050 -0.4661 -1.8192
18202TIP3    H276098   4.563   2.412   6.572  0.2557  0.0702  1.1394
18203TIP3   OH276099   6.602   2.574  16.736  0.0500  0.2531 -0.3326
18203TIP3    H176100   6.628   2.492  16.694  3.4203  1.5362 -1.0116
18203TIP3    H276101   6.507   2.578  16.722  0.0640 -2.5180 -2.0721
18204TIP3   OH276102   4.862   4.105  17.574  0.0455  0.7910  0.2129
18204TIP3    H176103   4.906   4.188  17.554 -1.0301  0.8785 -2.0995
18204TIP3    H276104   4.875   4.051  17.497 -0.4196 -0.7164  1.1432
18205TIP3   OH276105   2.522   1.615  12.769  0.2615 -0.3050  0.3851
18205TIP3    H176106   2.429   1.633  12.757  0.0857 -0.4542  1.4349
18205TIP3    H276107   2.533   1.606  12.863  1.3744 -0.1237  0.2877
18206TIP3   OH276108   2.680   3.467   2.872  0.1002  0.2261  0.1084
18206TIP3    H176109   2.603   3.495   2.823  1.1343 -0.0972 -1.7909
18206TIP3    H276110   2.714   3.548   2.910  0.0763  0.7353 -0.9096
18207TIP3   OH276111   2.680   6.561   6.235  0.2061  0.5480 -0.1551
18207TIP3    H176112   2.723   6.601   6.310 -0.4152 -0.6747  0.9021
18207TIP3    H276113   2.630   6.632   6.196 -0.5600  0.9397  1.4297
18208TIP3   OH276114   3.888   6.346  10.833 -0.0477  0.2334 -0.1492
18208TIP3    H176115   3.923   6.435  10.840  2.6250 -0.6886 -0.6167
18208TIP3    H276116   3.863   6.338  10.741 -0.7244  0.6346 -0.0046
18209TIP3   OH276117   3.097   4.710  12.015 -0.0374 -0.5420  0.3525
18209TIP3    H176118   3.083   4.619  12.042 -0.1788 -0.5262  0.3333
18209TIP3    H276119   3.015   4.754  12.037 -0.7481 -0.8514 -1.5351
18210TIP3   OH276120   6.491   6.202   1.736 -0.4187  0.5716 -0.1891
18210TIP3    H176121   6.540   6.279   1.766  0.4832 -0.0962  0.0836
18210TIP3    H276122   6.407   6.238   1.707 -0.4499  1.5328  0.9744
18211TIP3   OH276123   3.239   0.070  16.639  0.3394 -0.7437 -0.1928
18211TIP3    H176124   3.157   0.042  16.597  0.2644  0.0983 -0.6188
18211TIP3    H276125   3.238   0.165  16.633  0.0170 -0.5477  2.3203
18212TIP3   OH276126   1.410   5.718   1.471  0.0691  0.3624 -0.3327
18212TIP3    H176127   1.357   5.754   1.542  1.6490  2.2904 -0.0076
18212TIP3    H276128   1.426   5.793   1.413  1.2997 -0.4635 -1.1210
18213TIP3   OH276129   1.493   5.473   1.409 -0.4258  0.2166 -0.3622
18213TIP3    H176130   1.419   5.416   1.430 -1.5033  0.9912 -1.7951
18213TIP3    H276131   1.462   5.561   1.429  0.8399  0.4169  0.8459
18214TIP3   OH276132   5.063   2.004  12.836 -0.4574 -0.8217 -0.0277
18214TIP3    H176133   5.015   2.046  12.907 -1.5374 -2.0466 -0.0013
18214TIP3    H276134   5.136   1.958  12.879  1.1479  1.4834 -0.1225
18215TIP3   OH276135   6.643   5.698  17.657 -0.4990 -0.3564 -0.7429
18215TIP3    H176136   6.650   5.789  17.629 -1.8729 -0.1641 -0.5554
18215TIP3    H276137   6.613   5.651  17.578  0.1421 -0.6383 -0.8236
18216TIP3   OH276138   2.650   0.857  11.068  0.2087 -0.3890  0.3187
18216TIP3    H176139   2.585   0.876  11.000 -0.1199  0.0017  0.7359
18216TIP3    H276140   2.735   0.867  11.024  0.0175  0.7749  0.2018
18217TIP3   OH276141   1.199   6.370   2.826  0.6542 -0.2501 -0.4070
18217TIP3    H176142   1.285   6.338   2.852  1.2708  0.9487 -0.8790
18217TIP3    H276143   1.199   6.462   2.852 -0.7177 -0.3800  0.1155
18218TIP3   OH276144   6.662   4.231   4.644  0.1567 -0.1113 -0.1760
18218TIP3    H176145   6.622   4.208   4.728  1.3577 -0.1559  0.4068
18218TIP3    H276146   6.670   4.148   4.597 -0.7076 -0.0580 -0.4352
18219TIP3   OH276147   3.065   4.736  14.538 -0.2420  0.4744 -0.5038
18219TIP3    H176148   3.017   4.793  14.478  0.4017 -0.2919 -1.7881
18219TIP3    H276149   3.101   4.796  14.604 -2.0826  1.1664 -0.0808
18220TIP3   OH276150   4.547   6.370   3.690 -0.0561 -0.6615 -0.1055
18220TIP3    H176151   4.526   6.346   3.780 -0.2401  0.1827  0.0866
18220TIP3    H276152   4.640   6.391   3.691 -0.3718  0.8273  0.2401
18221TIP3   OH276153   5.919   2.844  11.576  0.3697 -0.2901 -0.5194
18221TIP3    H176154   5.877   2.930  11.578  0.3788 -0.2857 -0.5192
18221TIP3    H276155   5.860   2.790  11.524  0.1105 -0.4136 -0.1014
18222TIP3   OH276156   6.475   2.956  13.111  0.0342 -0.6296 -0.4982
18222TIP3    H176157   6.550   2.898  13.119 -0.2343 -0.9542 -0.2951
18222TIP3    H276158   6.404   2.909  13.156 -0.3483 -0.4361 -0.8965
18223TIP3   OH276159   3.640   3.182  12.747 -0.4070 -0.2657  0.3659
18223TIP3    H176160   3.588   3.176  12.666  0.1611  0.0219 -0.0303
18223TIP3    H276161   3.575   3.180  12.817 -0.8626 -1.4117 -0.0521
18224TIP3   OH276162   6.317   3.217  15.763  0.3388  0.1962 -0.3197
18224TIP3    H176163   6.227   3.201  15.790 -0.5742  2.3274 -1.8379
18224TIP3    H276164   6.332   3.156  15.691  0.2354 -0.4063  0.1674
18225TIP3   OH276165   5.820   3.526  16.789 -0.8257  0.2886  0.2552
18225TIP3    H176166   5.819   3.616  16.822 -0.4776  0.6453 -0.6844
18225TIP3    H276167   5.887   3.483  16.841  0.0276  0.9611 -0.2618
18226TIP3   OH276168   3.377   4.702   0.736  0.5938 -0.4327  0.1650
18226TIP3    H176169   3.434   4.708   0.659  1.8047 -0.0342  1.0575
18226TIP3    H276170   3.360   4.793   0.760  0.2782 -0.5527  0.4029
18227TIP3   OH276171   1.981   4.849   2.096 -0.0434 -0.0210 -0.4226
18227TIP3    H176172   2.038   4.901   2.039 -2.0647  1.8301 -0.8886
18227TIP3    H276173   1.981   4.897   2.179 -1.2718  0.3066 -0.5907
18228TIP3   OH276174   0.855   1.000   4.787 -0.3191  0.7414 -0.5159
18228TIP3    H176175   0.881   1.082   4.830 -0.3213  0.6347 -0.3066
18228TIP3    H276176   0.767   0.983   4.820  0.3776 -0.3341  0.9490
18229TIP3   OH276177   4.657   0.648  13.805  0.5207 -0.1434  0.1350
18229TIP3    H176178   4.645   0.556  13.828  0.7854  0.0095  0.9114
18229TIP3    H276179   4.626   0.654  13.715  1.2794 -1.1670 -0.2242
18230TIP3   OH276180   4.140   3.413  12.562  0.1072  0.1881  0.0105
18230TIP3    H176181   4.096   3.496  12.581  0.6015  1.0034 -2.1075
18230TIP3    H276182   4.117   3.394  12.471  1.3465 -1.1445 -0.0614
18231TIP3   OH276183   0.344   0.957   0.857 -0.1508 -0.3058 -0.2030
18231TIP3    H176184   0.306   0.872   0.878  1.2129 -0.4594  1.9252
18231TIP3    H276185   0.338   1.008   0.938 -0.5752  1.5247 -1.3096
18232TIP3   OH276186   1.476   4.576   3.845 -0.1565  0.1312  0.1996
18232TIP3    H176187   1.559   4.556   3.802  0.5372  0.6882  1.2421
18232TIP3    H276188   1.480   4.531   3.929  0.8192  3.2248  1.9709
18233TIP3   OH276189   6.140   6.086   0.476  0.2469 -0.1111  0.1977
18233TIP3    H176190   6.074   6.082   0.546 -0.7946  0.2104 -0.7269
18233TIP3    H276191   6.104   6.149   0.414  1.3409 -0.1009 -0.4385
18234TIP3   OH276192   3.874   1.551   5.457  0.0555  0.7264 -0.1936
18234TIP3    H176193   3.961   1.555   5.496 -0.0747  0.3656  0.1353
18234TIP3    H276194   3.836   1.637   5.476  0.0545  0.6147  0.3448
18235TIP3   OH276195   6.292   2.603   0.180 -0.0563 -0.8668  0.0600
18235TIP3    H176196   6.295   2.626   0.272  0.5105 -0.1155 -0.1385
18235TIP3    H276197   6.309   2.508   0.178 -1.7051 -1.2038  0.8317
18236TIP3   OH276198   3.815   2.061   3.000 -0.4354 -0.2549 -0.6577
18236TIP3    H176199   3.760   2.051   2.923  0.9271 -0.5001 -1.6252
18236TIP3    H276200   3.761   2.028   3.072 -1.7643  0.0638 -1.4648
18237TIP3   OH276201   1.045   1.430   1.163  0.1856 -0.3739 -0.6543
18237TIP3    H176202   1.068   1.348   1.120  0.2497 -1.0412  0.6117
18237TIP3    H276203   0.955   1.446   1.137  1.0809  0.7976 -3.3869
18238TIP3   OH276204   1.118   1.353   2.856  0.8907 -0.2556 -0.4015
18238TIP3    H176205   1.076   1.356   2.942 -2.0997 -0.6208 -1.7148
18238TIP3    H276206   1.117   1.444   2.826  1.2649 -0.2350 -0.3548
18239TIP3   OH276207   4.445   2.618   4.483 -0.0255  0.3277 -0.2139
18239TIP3    H176208   4.427   2.640   4.392  0.4608  1.4076 -0.0578
18239TIP3    H276209   4.366   2.643   4.530  0.3430  1.3145 -0.1076
18240TIP3   OH276210   4.184   2.769  14.213 -0.4937  0.5190 -0.1694
18240TIP3    H176211   4.139   2.698  14.167  0.3934  1.7542 -3.2660
18240TIP3    H276212   4.113   2.828  14.240 -1.0735 -0.4009  0.3933
18241TIP3   OH276213   0.405   6.199  13.993 -0.0220 -0.1105 -0.6995
18241TIP3    H176214   0.429   6.241  13.910  1.4845  0.5680  0.0445
18241TIP3    H276215   0.428   6.263  14.060 -1.8899 -0.3564  0.2422
18242TIP3   OH276216   0.425   3.628  13.485  0.4030 -0.3352  0.2725
18242TIP3    H176217   0.510   3.595  13.457  0.1275  1.3539 -3.0417
18242TIP3    H276218   0.444   3.717  13.516 -0.2976  1.0101 -2.7987
18243TIP3   OH276219   5.180   4.289  14.167 -0.2051  0.3572  0.3204
18243TIP3    H176220   5.242   4.228  14.209 -1.4755 -0.9089  0.4206
18243TIP3    H276221   5.196   4.278  14.073 -0.6249 -0.3505  0.3288
18244TIP3   OH276222   4.152   3.472   3.323 -0.0047 -0.7884 -0.4101
18244TIP3    H176223   4.173   3.565   3.338 -0.3807 -0.8827  0.7868
18244TIP3    H276224   4.237   3.430   3.310  0.3556 -0.6383  1.2745
18245TIP3   OH276225   1.233   1.498   2.568  0.1488 -0.2195 -0.1849
18245TIP3    H176226   1.313   1.528   2.611  0.1763 -0.6130  0.0407
18245TIP3    H276227   1.248   1.405   2.551 -0.3010 -0.3228 -0.0449
18246TIP3   OH276228   3.972   1.221   1.490 -0.2123  0.0867  0.0816
18246TIP3    H176229   4.020   1.242   1.410  0.3393 -1.0089  0.1077
18246TIP3    H276230   3.957   1.306   1.532 -0.2488  0.6443 -1.0256
18247TIP3   OH276231   3.130   4.333  14.978 -0.6170 -0.0293 -0.1545
18247TIP3    H176232   3.040   4.317  15.006 -0.6857 -3.3711 -1.8584
18247TIP3    H276233   3.121   4.383  14.897 -0.9769 -0.7721 -0.5781
18248TIP3   OH276234   2.562   4.880   6.409 -0.3916  0.4265 -1.0740
18248TIP3    H176235   2.522   4.850   6.490 -1.0349  0.3542 -1.4145
18248TIP3    H276236   2.650   4.842   6.411  0.6681  2.7080  0.9120
18249TIP3   OH276237   2.260   1.004   5.160  0.4305 -0.2337 -0.0011
18249TIP3    H176238   2.207   0.933   5.123 -0.0235  0.6586 -1.1320
18249TIP3    H276239   2.278   1.061   5.085  1.1856  0.5971  0.7967
18250TIP3   OH276240   1.067   4.474   6.314  0.1116 -0.0779  0.6140
18250TIP3    H176241   1.149   4.499   6.271  0.3899  0.0529  1.2022
18250TIP3    H276242   1.011   4.442   6.243  0.2576  0.8937  0.0379
18251TIP3   OH276243   0.320   5.309  13.264 -0.3995 -0.4391  0.1410
18251TIP3    H176244   0.347   5.290  13.354  0.4028 -0.5957 -0.1236
18251TIP3    H276245   0.363   5.241  13.211  0.7392  0.8017 -0.5746
18252TIP3   OH276246   6.207   2.757  14.062 -0.0542  0.5822 -0.0921
18252TIP3    H176247   6.166   2.841  14.045 -0.0729  1.2343  2.6466
18252TIP3    H276248   6.138   2.704  14.102 -0.1452 -0.9264 -2.0979
18253TIP3   OH276249   3.704   5.889   5.409 -0.2686  0.1007  0.0965
18253TIP3    H176250   3.751   5.863   5.330  1.3616  0.3540  0.9563
18253TIP3    H276251   3.629   5.829   5.412  1.6442 -2.4454  0.3221
18254TIP3   OH276252   6.647   6.611  15.941 -0.2550  0.2418  0.2700
18254TIP3    H176253   6.728   6.661  15.947 -0.1313  0.1343 -0.4174
18254TIP3    H276254   6.611   6.612  16.030  0.9751 -0.5216  0.8038
18255TIP3   OH276255   1.941   4.555  14.829  0.1131 -0.2412 -0.2679
18255TIP3    H176256   1.886   4.632  14.843  0.4727  0.0941 -0.6659
18255TIP3    H276257   1.973   4.533  14.916  0.5688  0.4917 -0.2367
18256TIP3   OH276258   0.746   4.312  14.856  0.3572  0.3686  0.1987
18256TIP3    H176259   0.748   4.246  14.787 -0.3142 -0.6186  1.0846
18256TIP3    H276260   0.821   4.369  14.837 -0.6188  0.9642 -2.1048
18257TIP3   OH276261   0.319   6.062  14.342 -0.0523  0.0896 -0.8912
18257TIP3    H176262   0.338   6.154  14.322  0.9645  0.1895  0.3729
18257TIP3    H276263   0.275   6.064  14.427  2.4717 -0.7007  0.5419
18258TIP3   OH276264   5.636   5.313  12.660  0.2989  0.6576  0.1971
18258TIP3    H176265   5.638   5.406  12.680  1.4199  0.5018  0.8728
18258TIP3    H276266   5.715   5.277  12.700 -0.4760 -0.7180  0.5894
18259TIP3   OH276267   5.427   2.464  12.393  0.0662  0.2681 -0.4288
18259TIP3    H176268   5.338   2.434  12.374  0.1702  0.5854 -1.4284
18259TIP3    H276269   5.445   2.531  12.328  0.3766  1.5205  0.8958
18260TIP3   OH276270   5.748   4.360  15.260  1.0555  0.4321  0.2037
18260TIP3    H176271   5.786   4.279  15.294  1.9490  1.2357  1.1891
18260TIP3    H276272   5.764   4.356  15.166  2.0220 -0.0613  0.3760
18261TIP3   OH276273   1.295   6.536  12.963  0.3462 -0.0721 -0.3896
18261TIP3    H176274   1.203   6.553  12.946  0.4840 -0.2941 -1.4046
18261TIP3    H276275   1.298   6.447  12.998  0.2256 -0.2875 -0.9162
18262TIP3   OH276276   4.236   1.379   3.167 -0.1048  1.1796 -0.0372
18262TIP3    H176277   4.147   1.384   3.202 -1.0948 -0.6231 -2.0444
18262TIP3    H276278   4.226   1.406   3.075  1.0496 -0.7487 -0.7763
18263TIP3   OH276279   6.544   3.854   6.234 -0.1668  0.4164 -0.0416
18263TIP3    H176280   6.578   3.765   6.227 -1.4340 -0.1654  0.7616
18263TIP3    H276281   6.452   3.846   6.210 -0.4835  1.3609  0.8059
18264TIP3   OH276282   2.153   5.489   3.229 -0.1730  0.0343  0.1494
18264TIP3    H176283   2.168   5.429   3.303 -0.8217  0.7153  0.8544
18264TIP3    H276284   2.081   5.450   3.181  0.1690 -0.3470 -0.0625
18265TIP3   OH276285   2.220   4.725   5.965 -0.7209  0.0056 -0.0337
18265TIP3    H176286   2.126   4.711   5.955 -0.7516 -0.4997  0.8340
18265TIP3    H276287   2.240   4.693   6.054  0.3331 -0.2809 -0.3538
18266TIP3   OH276288   0.274   4.382  14.989 -0.5907 -0.4561  0.0335
18266TIP3    H176289   0.370   4.373  14.994 -0.3789  1.5617  0.3324
18266TIP3    H276290   0.257   4.406  14.898 -0.5938  1.0780  0.4154
18267TIP3   OH276291   1.266   5.645  10.860 -0.4489  0.6094  0.3650
18267TIP3    H176292   1.358   5.644  10.832 -1.1856  0.1026 -2.2479
18267TIP3    H276293   1.266   5.701  10.938  1.8145  1.9862 -0.5206
18268TIP3   OH276294   4.757   4.053   5.676 -0.6283  0.3522 -0.1481
18268TIP3    H176295   4.777   4.090   5.762 -0.6081  1.0151 -0.4336
18268TIP3    H276296   4.803   3.969   5.675 -0.2621  0.5455  0.3210
18269TIP3   OH276297   1.490   2.201  17.038  0.2370  0.2309  0.2852
18269TIP3    H176298   1.491   2.169  16.948 -0.4412 -0.2705  0.4438
18269TIP3    H276299   1.422   2.268  17.039 -2.0042 -1.9195  1.0954
18270TIP3   OH276300   4.931   5.010  11.944  0.1203 -0.1060  0.1317
18270TIP3    H176301   4.969   5.096  11.924  1.9485 -0.5314  1.5242
18270TIP3    H276302   4.954   4.956  11.868  0.0018  0.3060 -0.2056
18271TIP3   OH276303   1.225   3.717  12.766  0.0857  0.1109 -0.0231
18271TIP3    H176304   1.299   3.774  12.743  0.1704 -0.0419 -0.1283
18271TIP3    H276305   1.258   3.662  12.837  0.8038 -1.4720 -1.4961
18272TIP3   OH276306   4.335   1.041   1.688  0.4573  0.0987 -0.2374
18272TIP3    H176307   4.247   1.032   1.651 -0.4559  1.4362  1.4438
18272TIP3    H276308   4.335   1.130   1.725  2.2715 -0.1559  0.4368
18273TIP3   OH276309   4.344   6.355   6.242 -0.3159 -0.0829 -0.1114
18273TIP3    H176310   4.409   6.304   6.291  0.6041  1.6452  0.5662
18273TIP3    H276311   4.268   6.360   6.301  0.3258  0.9394  0.6634
18274TIP3   OH276312   1.815   0.772  12.066 -0.2419  0.3191 -0.8947
18274TIP3    H176313   1.809   0.741  11.976  0.8488  0.8400 -1.1621
18274TIP3    H276314   1.900   0.741  12.097 -1.1479 -1.0221  0.4328
18275TIP3   OH276315   3.601   2.942  11.583  0.2561  0.3888  0.2786
18275TIP3    H176316   3.579   2.968  11.494  0.4849  0.7301  0.3208
18275TIP3    H276317   3.621   3.024  11.628  1.4691  0.1098  0.2787
18276TIP3   OH276318   0.793   5.323  12.236  0.1801  0.2036  0.2848
18276TIP3    H176319   0.837   5.276  12.306 -0.6994  1.6524  1.8790
18276TIP3    H276320   0.714   5.271  12.219  1.2741 -1.1345 -0.9639
18277TIP3   OH276321   3.132   0.649   3.446  0.6463 -0.3141  0.3943
18277TIP3    H176322   3.187   0.707   3.393  1.6147 -0.3338  1.3344
18277TIP3    H276323   3.179   0.566   3.449 -0.9183 -1.3389 -1.2644
18278TIP3   OH276324   1.968   1.952   0.919  0.2450  0.1170  0.1254
18278TIP3    H176325   1.925   1.891   0.859  0.0193  0.4541 -0.0613
18278TIP3    H276326   2.014   2.013   0.862  1.0947 -0.3221  0.3284
18279TIP3   OH276327   1.244   5.729   2.077 -0.0929 -0.4317 -0.5687
18279TIP3    H176328   1.311   5.792   2.051  0.1725 -0.5896 -0.2744
18279TIP3    H276329   1.284   5.643   2.062 -0.0528 -0.5256  0.0458
18280TIP3   OH276330   5.477   2.049   2.683 -0.4992 -0.1724  0.6805
18280TIP3    H176331   5.422   2.002   2.746 -0.1076 -0.3236  0.9115
18280TIP3    H276332   5.523   1.981   2.635 -0.5141 -0.0461  0.4869
18281TIP3   OH276333   0.730   2.779   2.932  0.0465  0.1817 -0.2435
18281TIP3    H176334   0.685   2.816   3.008 -1.9163 -1.7762 -0.3738
18281TIP3    H276335   0.822   2.776   2.959 -0.5380 -0.0666  1.9128
18282TIP3   OH276336   2.758   2.593  14.164  0.2609  0.2285 -0.4117
18282TIP3    H176337   2.765   2.629  14.253  1.4050  0.2497 -0.5001
18282TIP3    H276338   2.665   2.598  14.144  0.1642  1.5163  0.2588
18283TIP3   OH276339   1.940   6.060   4.287  0.4603  0.6930 -0.0924
18283TIP3    H176340   1.853   6.057   4.247 -0.5676 -1.1511  2.0485
18283TIP3    H276341   1.945   6.147   4.326 -1.2145  0.2591  1.2307
18284TIP3   OH276342   4.813   1.068   5.558  0.4827  0.6156  0.2891
18284TIP3    H176343   4.852   1.037   5.476 -2.2284  1.3996 -1.4463
18284TIP3    H276344   4.769   0.991   5.593  0.4204  0.6210  0.2234
18285TIP3   OH276345   1.577   1.781   4.806  0.1749 -0.5584  0.3308
18285TIP3    H176346   1.667   1.796   4.775  0.1292 -1.0176 -0.0250
18285TIP3    H276347   1.532   1.864   4.788  0.9953  0.3638  2.2397
18286TIP3   OH276348   0.664   0.847   6.236  0.3042 -0.3638 -0.8033
18286TIP3    H176349   0.644   0.898   6.315 -0.3275 -1.0823 -0.4840
18286TIP3    H276350   0.758   0.833   6.239  0.1105 -1.5644  0.5680
18287TIP3   OH276351   0.167   5.404  15.168 -0.2219 -0.6400  0.1365
18287TIP3    H176352   0.138   5.408  15.076  0.3997 -0.9494 -0.0779
18287TIP3    H276353   0.252   5.361  15.164 -0.0130 -0.2948  0.8244
18288TIP3   OH276354   0.216   0.768  15.202  0.5509  1.0443 -0.4542
18288TIP3    H176355   0.129   0.793  15.232  1.1168  0.8841  1.4531
18288TIP3    H276356   0.202   0.733  15.114 -1.6658 -1.1151  0.6335
18289TIP3   OH276357   2.829   2.431   3.370 -0.2372 -0.1989 -0.8444
18289TIP3    H176358   2.855   2.517   3.402 -0.1834 -0.8236  0.9024
18289TIP3    H276359   2.743   2.445   3.330 -0.0303  0.7315 -0.9864
18290TIP3   OH276360   3.864   3.011  11.273  0.4583 -0.2276  0.3471
18290TIP3    H176361   3.812   3.068  11.217  1.5927 -0.2888 -0.8347
18290TIP3    H276362   3.847   2.923  11.239  1.2224 -0.2563  0.0101
18291TIP3   OH276363   3.407   0.705   3.608  0.1586  0.0650  0.0879
18291TIP3    H176364   3.421   0.691   3.702 -1.8046 -2.3888  0.1387
18291TIP3    H276365   3.347   0.780   3.604 -1.5377 -1.1815  0.9972
18292TIP3   OH276366   1.041   3.988   4.923  0.0311  0.1571 -0.1647
18292TIP3    H176367   1.136   3.993   4.912 -0.0870 -0.0986 -1.4946
18292TIP3    H276368   1.018   4.066   4.974  0.9789  0.0384  0.4667
18293TIP3   OH276369   0.595   0.917   4.366  0.3991  0.0845 -0.1219
18293TIP3    H176370   0.642   0.840   4.399  0.9398 -0.2204 -1.5340
18293TIP3    H276371   0.613   0.985   4.431  0.7795 -0.6970  0.6146
18294TIP3   OH276372   6.724   5.673  15.125 -0.0894 -0.3659  0.2901
18294TIP3    H176373   6.736   5.613  15.198  2.5204  0.1742  0.3830
18294TIP3    H276374   6.707   5.616  15.050 -0.5898 -1.0420  0.9064
18295TIP3   OH276375   2.447   5.298   0.911 -0.2698  0.0039  0.3837
18295TIP3    H176376   2.471   5.255   0.829  0.7280 -0.0963  0.7086
18295TIP3    H276377   2.417   5.227   0.968 -0.0085 -0.0702  0.4322
18296TIP3   OH276378   4.194   2.489   0.873 -0.8805 -0.6321  0.6962
18296TIP3    H176379   4.207   2.400   0.839 -1.8575 -0.3402 -0.5464
18296TIP3    H276380   4.197   2.480   0.968  0.9571 -1.6697  0.5743
18297TIP3   OH276381   1.822   4.159   1.523 -0.2982 -0.1311 -0.6978
18297TIP3    H176382   1.889   4.227   1.528 -0.9473  0.4461  0.6925
18297TIP3    H276383   1.789   4.151   1.612 -1.1695 -1.3415 -1.0960
18298TIP3   OH276384   2.888   2.104   0.023 -0.5374  0.0243 -0.2834
18298TIP3    H176385   2.793   2.093   0.034 -0.7584  1.4131 -0.5918
18298TIP3    H276386   2.916   2.151   0.102 -0.6987  2.5109 -1.6140
18299TIP3   OH276387   5.269   6.453  16.489 -0.3276 -0.1594  0.1586
18299TIP3    H176388   5.214   6.518  16.532 -1.4121 -0.9488  0.0157
18299TIP3    H276389   5.342   6.503  16.453 -1.8368  1.2184 -1.1740
18300TIP3   OH276390   3.728   0.899  13.450  0.0458  0.8748 -0.0473
18300TIP3    H176391   3.697   0.882  13.539 -1.3614  1.2883 -0.4311
18300TIP3    H276392   3.770   0.817  13.423  1.0009  0.9321  1.1841
18301TIP3   OH276393   1.976   0.535  17.002  0.5362 -0.3146  0.5641
18301TIP3    H176394   1.894   0.573  16.973  0.4198 -1.3815 -0.5726
18301TIP3    H276395   1.952   0.480  17.076  0.1806 -0.8087  0.0874
18302TIP3   OH276396   4.155   5.717   1.471 -0.6702 -0.1174 -0.4453
18302TIP3    H176397   4.206   5.671   1.537  1.9696  2.7044 -0.3062
18302TIP3    H276398   4.066   5.681   1.480  0.4369 -2.6267  1.8564
18303TIP3   OH276399   2.138   6.013   4.589  0.1779  0.0551  0.3034
18303TIP3    H176400   2.149   6.108   4.596 -0.7509  0.4461 -2.2459
18303TIP3    H276401   2.081   6.002   4.512 -1.4012 -2.4977  1.7212
18304TIP3   OH276402   5.992   3.566  15.908  0.1101 -0.0753 -0.0262
18304TIP3    H176403   6.054   3.514  15.960  0.2281  1.1029  1.0486
18304TIP3    H276404   5.906   3.546  15.945  0.1641  0.5423  0.4466
18305TIP3   OH276405   0.635   5.499  17.681 -0.5058  0.3852 -0.0743
18305TIP3    H176406   0.636   5.457  17.595  1.9483  1.5542 -0.7059
18305TIP3    H276407   0.658   5.430  17.743  2.2995  0.4312 -0.9523
18306TIP3   OH276408   6.609   0.247  13.108 -0.1637 -0.5466  0.8754
18306TIP3    H176409   6.634   0.157  13.129  0.1510 -0.6018  0.2840
18306TIP3    H276410   6.607   0.291  13.193 -1.6198 -1.4169  1.3173
18307TIP3   OH276411   0.796   5.983   5.412 -0.4451 -0.1647 -0.7266
18307TIP3    H176412   0.746   5.966   5.332  0.4329  0.5594 -1.4456
18307TIP3    H276413   0.845   6.063   5.393  1.0873 -0.9215 -0.1018
18308TIP3   OH276414   0.820   4.945   6.092 -0.2366 -0.2716 -0.0715
18308TIP3    H176415   0.842   4.868   6.145  0.4422  0.0236  0.0956
18308TIP3    H276416   0.867   4.932   6.010 -1.9827 -1.1556 -0.9916
18309TIP3   OH276417   1.160   4.697   5.978  0.0526  0.1031 -0.3045
18309TIP3    H176418   1.198   4.680   6.064  2.1049 -2.0624 -1.5063
18309TIP3    H276419   1.234   4.724   5.924 -1.3039  2.0616 -1.3173
18310TIP3   OH276420   0.377   6.680  17.390  0.3857  0.1152  0.1241
18310TIP3    H176421   0.370   6.672  17.486  0.6445 -1.0580  0.0641
18310TIP3    H276422   0.437   6.753  17.376 -1.1483  1.5633  0.8192
18311TIP3   OH276423   5.235   2.438  13.855  0.1031  0.0287 -0.1724
18311TIP3    H176424   5.183   2.503  13.808 -0.6136 -0.4786 -0.1001
18311TIP3    H276425   5.291   2.399  13.787  1.0499  1.1762 -0.0963
18312TIP3   OH276426   3.726   1.537   2.734  0.1054 -0.2584 -0.1847
18312TIP3    H176427   3.702   1.605   2.797  1.4486  0.6184 -0.5792
18312TIP3    H276428   3.643   1.506   2.700 -0.5652  0.6069  0.6117
18313TIP3   OH276429   5.903   0.582   1.629  0.3141  0.2742  0.2745
18313TIP3    H176430   5.934   0.640   1.561 -0.1641 -0.3777 -0.5160
18313TIP3    H276431   5.869   0.640   1.698  1.0627  0.9350  0.0929
18314TIP3   OH276432   5.083   4.462   4.304  0.0163  0.0247  0.4186
18314TIP3    H176433   5.017   4.482   4.238 -0.1077 -2.7578 -0.4546
18314TIP3    H276434   5.038   4.471   4.387 -2.0206 -3.0090 -0.1892
18315TIP3   OH276435   4.392   6.216   6.470 -0.4587  0.3490 -0.2879
18315TIP3    H176436   4.337   6.174   6.536  0.8287 -0.8474  0.0770
18315TIP3    H276437   4.457   6.266   6.520  0.5993 -0.6587 -0.6172
18316TIP3   OH276438   2.203   5.298  12.129 -0.1612  0.8212 -0.1094
18316TIP3    H176439   2.242   5.225  12.080 -0.5311  0.7195 -0.2544
18316TIP3    H276440   2.130   5.259  12.176 -0.4379  1.1249 -0.2852
18317TIP3   OH276441   0.112   4.348   6.894 -0.2844 -0.0154 -0.0214
18317TIP3    H176442   0.042   4.409   6.917 -1.1262 -1.0621  0.3018
18317TIP3    H276443   0.192   4.392   6.921 -0.8340  1.1329 -0.2267
18318TIP3   OH276444   1.808   3.689  11.993  0.0365 -0.3109 -0.7321
18318TIP3    H176445   1.734   3.678  11.934 -0.5470 -1.0706  0.1092
18318TIP3    H276446   1.772   3.671  12.080  1.5938 -2.6389 -0.4747
18319TIP3   OH276447   0.942   6.585  11.159 -0.5129  0.1432  0.5706
18319TIP3    H176448   0.942   6.602  11.065  1.8868  3.8782  1.0187
18319TIP3    H276449   0.857   6.617  11.189 -0.8015  0.0797 -0.1522
18320TIP3   OH276450   3.780   6.006   2.201  0.0299 -0.4220 -0.0576
18320TIP3    H176451   3.710   6.058   2.239  0.3313 -0.6215  0.7803
18320TIP3    H276452   3.757   6.000   2.108 -1.1134 -0.5798  0.2227
18321TIP3   OH276453   2.676   4.959   3.696 -0.2631 -0.8778  0.2263
18321TIP3    H176454   2.730   4.937   3.621 -0.4688 -0.2259 -0.1174
18321TIP3    H276455   2.706   5.046   3.723 -1.2255 -0.4432 -0.0589
18322TIP3   OH276456   5.146   6.604   5.124  0.2946 -0.1906 -0.0991
18322TIP3    H176457   5.167   6.513   5.142 -1.7108 -1.3726 -2.9393
18322TIP3    H276458   5.056   6.614   5.155  1.0528  1.4284  1.7801
18323TIP3   OH276459   4.936   0.638   5.356  0.1205  0.4357 -0.2818
18323TIP3    H176460   4.848   0.675   5.363 -0.5355 -0.5331 -2.4241
18323TIP3    H276461   4.954   0.637   5.262  1.7376 -0.9269 -0.0007
18324TIP3   OH276462   5.168   1.579  12.119 -0.2011 -0.2174 -0.0036
18324TIP3    H176463   5.143   1.646  12.183  1.1729  0.6329 -0.3109
18324TIP3    H276464   5.119   1.603  12.040  0.9907  1.0457 -0.4052
18325TIP3   OH276465   0.660   4.338  13.975 -0.0373 -0.4354  0.1733
18325TIP3    H176466   0.737   4.282  13.984 -1.4273 -2.7954 -1.5584
18325TIP3    H276467   0.673   4.385  13.893 -0.1788 -0.4156  0.1607
18326TIP3   OH276468   2.958   3.370   1.394 -0.4343 -0.2053 -0.3221
18326TIP3    H176469   2.994   3.437   1.452 -1.0256  0.1424 -0.3488
18326TIP3    H276470   2.979   3.402   1.306 -0.6240 -0.1039 -0.3316
18327TIP3   OH276471   3.429   0.487  15.676  0.6482  0.2174  0.0629
18327TIP3    H176472   3.417   0.476  15.771 -1.3260 -0.1795 -0.1952
18327TIP3    H276473   3.355   0.441  15.637 -1.2730  4.2244 -1.5376
18328TIP3   OH276474   2.910   3.924   5.565 -0.0954  0.2770 -0.2739
18328TIP3    H176475   2.921   3.984   5.639 -0.4638 -0.0916  0.0908
18328TIP3    H276476   2.820   3.891   5.575  1.1901 -3.1556  1.7148
18329TIP3   OH276477   2.716   0.467  15.986 -0.6214  0.5453 -0.0963
18329TIP3    H176478   2.714   0.471  15.891 -0.2606 -2.1294 -0.2912
18329TIP3    H276479   2.624   0.459  16.012 -0.6642  0.5073 -0.2608
18330TIP3   OH276480   5.590   6.252   1.927  0.3885  0.9608  0.0697
18330TIP3    H176481   5.548   6.250   1.841 -1.0180  1.9020  0.7043
18330TIP3    H276482   5.662   6.190   1.919 -2.7073 -3.0908 -0.3027
18331TIP3   OH276483   0.939   1.121   5.244 -0.8561  0.0240 -0.3036
18331TIP3    H176484   0.948   1.028   5.225 -0.5903 -0.1400  0.6096
18331TIP3    H276485   0.845   1.136   5.249 -0.8978 -0.1932 -0.4316
18332TIP3   OH276486   1.213   2.690   1.220 -0.2906  0.5593  0.3930
18332TIP3    H176487   1.245   2.745   1.292  0.8586  0.0179  0.3178
18332TIP3    H276488   1.124   2.667   1.246  0.0315  0.5408  1.5536
18333TIP3   OH276489   2.422   5.838  12.764 -0.0458  0.4390  0.3439
18333TIP3    H176490   2.364   5.763  12.754 -1.6748  1.4535  1.7073
18333TIP3    H276491   2.369   5.913  12.740  1.5456  1.2042 -0.9441
18334TIP3   OH276492   1.453   1.578  15.113 -0.5941 -0.1232  0.5835
18334TIP3    H176493   1.526   1.515  15.114 -0.0137  0.4741  2.6761
18334TIP3    H276494   1.391   1.542  15.051  1.5805 -0.5259 -1.5075
18335TIP3   OH276495   1.239   1.705   5.132  0.2003 -0.9008  0.9077
18335TIP3    H176496   1.170   1.681   5.071  0.8607 -0.7298  0.0793
18335TIP3    H276497   1.198   1.699   5.218 -1.2974  0.6922  0.3539
18336TIP3   OH276498   4.394   4.967  12.544 -0.2268  0.2626 -0.2582
18336TIP3    H176499   4.467   5.028  12.553 -0.4154  0.5125 -0.4382
18336TIP3    H276500   4.318   5.022  12.523 -0.4478 -0.0053 -0.1655
18337TIP3   OH276501   6.051   5.157   4.370 -0.3257 -0.1817  0.1566
18337TIP3    H176502   5.967   5.203   4.373 -1.0227 -1.3476 -0.6142
18337TIP3    H276503   6.076   5.147   4.462  0.5095  2.8158  0.3364
18338TIP3   OH276504   1.579   5.750   4.179 -0.1263 -0.7010 -0.7577
18338TIP3    H176505   1.664   5.705   4.182 -0.4049 -1.1866  0.6637
18338TIP3    H276506   1.532   5.707   4.108  0.6010 -0.8239 -1.1756
18339TIP3   OH276507   1.479   1.471  15.941 -0.4408  0.0214 -0.5793
18339TIP3    H176508   1.390   1.498  15.963 -0.2649  1.1729 -1.1782
18339TIP3    H276509   1.477   1.458  15.846 -0.6404 -2.6888 -0.2902
18340TIP3   OH276510   2.698   1.897   6.129  0.1820  0.6810  0.3196
18340TIP3    H176511   2.747   1.980   6.126 -0.1378  0.8462 -1.2305
18340TIP3    H276512   2.655   1.891   6.044 -1.0178 -0.3711  0.9570
18341TIP3   OH276513   0.283   0.462   0.895  0.6559 -1.0926  1.1675
18341TIP3    H176514   0.202   0.441   0.848 -0.1344  0.7047  1.6279
18341TIP3    H276515   0.273   0.422   0.981 -0.8502  1.0308  2.0602
18342TIP3   OH276516   4.317   0.304  14.213 -0.3812 -0.1798  0.0097
18342TIP3    H176517   4.275   0.381  14.252  1.7248  1.6781 -1.0950
18342TIP3    H276518   4.299   0.312  14.119  1.1804 -0.1032 -0.3104
18343TIP3   OH276519   5.257   0.486  16.243  0.3675 -0.6363 -0.5019
18343TIP3    H176520   5.212   0.553  16.192 -1.2729 -2.5556 -1.7131
18343TIP3    H276521   5.235   0.507  16.334  1.1865  1.3057 -0.6954
18344TIP3   OH276522   0.495   0.177   1.398 -0.1597 -0.3335 -0.8403
18344TIP3    H176523   0.590   0.179   1.404 -0.2116 -0.5434  0.2830
18344TIP3    H276524   0.477   0.135   1.314  0.7287  1.5298 -2.0095
18345TIP3   OH276525   4.287   3.879  16.602 -0.1195 -0.0611 -0.4801
18345TIP3    H176526   4.320   3.824  16.673 -1.9039 -1.5608 -0.7379
18345TIP3    H276527   4.192   3.877  16.612 -0.2932  1.9195 -1.3220
18346TIP3   OH276528   3.405   1.269   5.407  0.2157 -0.1220  0.2850
18346TIP3    H176529   3.403   1.191   5.352 -1.6465 -1.9882  2.7767
18346TIP3    H276530   3.493   1.305   5.395  0.5801 -1.6264 -2.1939
18347TIP3   OH276531   4.860   2.992  15.144 -0.0671 -0.5418  0.6035
18347TIP3    H176532   4.921   3.065  15.131 -0.5423 -0.0849  0.8832
18347TIP3    H276533   4.902   2.918  15.100  1.4589 -0.6591  2.1437
18348TIP3   OH276534   5.755   0.228   0.965  0.2640 -0.6037  0.5349
18348TIP3    H176535   5.803   0.174   0.902  0.6927  0.4199 -0.0504
18348TIP3    H276536   5.673   0.250   0.921  0.3983 -0.1974  0.4854
18349TIP3   OH276537   6.046   4.809   4.307  0.1029 -0.2917  0.0234
18349TIP3    H176538   6.055   4.818   4.402  1.9516 -0.8152 -0.0760
18349TIP3    H276539   6.086   4.725   4.287 -1.0970 -0.6280 -1.1403
18350TIP3   OH276540   4.972   0.828   5.100 -0.0879 -0.1480  0.8646
18350TIP3    H176541   4.904   0.867   5.045 -0.1940 -0.1905  0.9667
18350TIP3    H276542   4.972   0.736   5.075  0.6036  0.0344  0.1595
18351TIP3   OH276543   0.731   4.533   1.759 -0.0729  0.3274  0.2734
18351TIP3    H176544   0.675   4.589   1.812  0.8823  1.6483 -0.0778
18351TIP3    H276545   0.752   4.586   1.682  2.5457  0.3057  0.9058
18352TIP3   OH276546   4.204   6.453  16.519  0.2624 -0.4508 -0.6664
18352TIP3    H176547   4.280   6.413  16.562 -0.3378 -0.1817  0.6944
18352TIP3    H276548   4.222   6.547  16.520 -0.7493 -0.2262  1.1076
18353TIP3   OH276549   5.288   2.202  14.654 -0.1604  0.1385  0.3730
18353TIP3    H176550   5.197   2.219  14.675 -0.3568 -2.4635  2.0486
18353TIP3    H276551   5.289   2.188  14.560 -1.3470  0.8948  0.2322
18354TIP3   OH276552   4.399   3.574   0.441  0.1154  0.3101  0.9698
18354TIP3    H176553   4.326   3.566   0.502  0.6832 -0.3361  1.5837
18354TIP3    H276554   4.472   3.608   0.494 -0.2251  2.8724 -0.0368
18355TIP3   OH276555   1.876   0.159   5.980 -0.1099  0.1859  0.1192
18355TIP3    H176556   1.835   0.102   6.045 -0.4302 -1.5409 -1.4982
18355TIP3    H276557   1.914   0.098   5.916  1.8783  1.7866 -0.3051
18356TIP3   OH276558   0.317   1.565   0.813  0.6597 -0.1424  0.2889
18356TIP3    H176559   0.389   1.584   0.754  1.1312  0.0901  0.9296
18356TIP3    H276560   0.357   1.516   0.885 -0.0719 -1.2909 -0.0491
18357TIP3   OH276561   5.675   0.601  15.661  0.3996 -0.0253 -0.3459
18357TIP3    H176562   5.633   0.644  15.736 -0.7505 -0.4694 -0.7109
18357TIP3    H276563   5.632   0.516  15.656  0.5454 -0.0442 -1.4413
18358TIP3   OH276564   1.595   4.988  17.055 -0.2147 -0.1739  0.4494
18358TIP3    H176565   1.535   4.914  17.067  0.3263 -0.8100 -0.6205
18358TIP3    H276566   1.663   4.975  17.121 -0.5167 -0.2143  0.7544
18359TIP3   OH276567   2.911   0.124  16.133 -0.1855  0.4378  0.1257
18359TIP3    H176568   2.816   0.108  16.139 -0.0849 -0.2947 -0.0622
18359TIP3    H276569   2.924   0.205  16.182 -0.7517 -0.1182  1.2650
18360TIP3   OH276570   2.763   5.197  14.592 -0.4345  0.4994  0.8312
18360TIP3    H176571   2.794   5.247  14.516 -1.9108  1.6508  0.9344
18360TIP3    H276572   2.823   5.221  14.662  1.0300 -0.6821  0.0417
18361TIP3   OH276573   1.862   1.939  16.726 -0.1539  0.2058 -0.0819
18361TIP3    H176574   1.882   2.024  16.689 -1.9024  0.3191 -0.8879
18361TIP3    H276575   1.817   1.892  16.656  1.8202 -1.8646 -0.0661
18362TIP3   OH276576   3.812   5.496   6.013 -0.3006 -0.3122 -0.4727
18362TIP3    H176577   3.874   5.498   6.086 -0.9985 -0.2408  0.1356
18362TIP3    H276578   3.726   5.500   6.055 -0.7739 -1.9325 -1.2118
18363TIP3   OH276579   4.374   6.211  17.228  0.2536 -0.6286 -0.4756
18363TIP3    H176580   4.350   6.233  17.138 -0.5402  0.0795 -0.1021
18363TIP3    H276581   4.458   6.166  17.220  1.2336  1.2743 -1.3981
18364TIP3   OH276582   2.718   6.278   5.467 -0.1702  0.5953  0.0455
18364TIP3    H176583   2.793   6.275   5.527  1.3528  0.1648 -1.8060
18364TIP3    H276584   2.644   6.299   5.524  1.2106  0.3405  2.0589
18365TIP3   OH276585   0.121   4.893   2.642  0.3232 -0.4324  0.1921
18365TIP3    H176586   0.036   4.935   2.630  0.7372  0.3508 -0.1186
18365TIP3    H276587   0.179   4.939   2.581  1.1359 -0.4590  0.9230
18366TIP3   OH276588   2.674   5.737  17.171  0.3447  0.2542  0.1016
18366TIP3    H176589   2.671   5.682  17.250  2.3590  0.0213  0.0669
18366TIP3    H276590   2.709   5.679  17.103  3.1428  1.6840  0.2140
18367TIP3   OH276591   5.285   0.274  11.009  0.2460 -0.1771  0.3061
18367TIP3    H176592   5.319   0.196  11.052 -3.1359 -3.2949 -2.0254
18367TIP3    H276593   5.337   0.282  10.929  2.2925  1.7357  1.6978
18368TIP3   OH276594   3.316   5.546   3.922 -0.0584 -0.9622 -0.1483
18368TIP3    H176595   3.290   5.622   3.975  1.8380  0.2537 -0.8463
18368TIP3    H276596   3.234   5.503   3.900 -1.1171  0.3046  1.1249
18369TIP3   OH276597   4.847   3.013   4.203  0.1075 -0.2588  0.0550
18369TIP3    H176598   4.903   2.986   4.130  0.0062  0.4295 -0.2786
18369TIP3    H276599   4.770   2.957   4.195  0.6015 -1.0029  0.3360
18370TIP3   OH276600   6.343   2.739   2.477 -0.4943  1.2187 -0.4292
18370TIP3    H176601   6.263   2.708   2.434 -0.1912  0.1974 -0.2714
18370TIP3    H276602   6.311   2.783   2.556 -0.9350  1.3897 -0.6967
18371TIP3   OH276603   0.685   1.502  13.778 -0.2284  0.4993 -0.0612
18371TIP3    H176604   0.755   1.486  13.714 -0.0367  0.5089  0.1444
18371TIP3    H276605   0.652   1.415  13.799 -2.3875  0.6216 -2.4697
18372TIP3   OH276606   2.538   0.658   2.185  0.2450  0.5193 -0.0171
18372TIP3    H176607   2.471   0.591   2.199 -0.0486  0.4166 -1.6568
18372TIP3    H276608   2.546   0.664   2.090  2.8164  0.3207  0.1220
18373TIP3   OH276609   2.289   3.975   6.002  0.2639 -0.4505  0.1633
18373TIP3    H176610   2.295   4.065   5.970 -0.9458  0.1006  1.3872
18373TIP3    H276611   2.236   3.930   5.937 -2.4362  0.7357  1.3935
18374TIP3   OH276612   6.709   2.612  16.449  0.1770  0.0062 -0.6301
18374TIP3    H176613   6.621   2.645  16.467 -0.5583 -2.2339  0.3500
18374TIP3    H276614   6.753   2.683  16.404 -0.7555  2.8012  2.5041
18375TIP3   OH276615   5.204   2.814   5.627 -0.2280 -0.0530 -0.4227
18375TIP3    H176616   5.142   2.809   5.700  0.3140 -0.6311  0.0099
18375TIP3    H276617   5.279   2.761   5.656 -0.2378 -0.7535 -1.6229
18376TIP3   OH276618   1.570   4.591   5.588  0.4197 -0.1477 -0.1861
18376TIP3    H176619   1.613   4.675   5.573 -0.5218  0.4890  0.6148
18376TIP3    H276620   1.593   4.568   5.678 -0.6449  0.0520  0.1513
18377TIP3   OH276621   0.521   3.884  15.833  0.5133  0.1023 -0.4231
18377TIP3    H176622   0.614   3.886  15.811  0.0939  0.1013 -2.3305
18377TIP3    H276623   0.519   3.852  15.923  2.3786  0.5907 -0.1636
18378TIP3   OH276624   1.528   0.460  13.667  0.7612 -0.4234 -0.0967
18378TIP3    H176625   1.533   0.498  13.754  1.3231  0.9948 -0.7257
18378TIP3    H276626   1.453   0.502  13.626  1.8327  0.6307 -1.0573
18379TIP3   OH276627   2.565   4.323  16.419  0.3860 -0.2203  0.0837
18379TIP3    H176628   2.497   4.333  16.486  1.7156 -0.1017  1.4599
18379TIP3    H276629   2.519   4.338  16.337 -0.9948  1.2748  1.0522
18380TIP3   OH276630   3.889   5.097   0.062  0.6807 -0.0583  0.1564
18380TIP3    H176631   3.808   5.071   0.018  0.4641 -0.4830  0.8012
18380TIP3    H276632   3.947   5.022   0.050  0.4711 -0.3533  0.9716
18381TIP3   OH276633   6.650   1.099  16.213 -0.6028  0.3026 -0.1492
18381TIP3    H176634   6.610   1.125  16.297  3.1139 -2.1598  2.7302
18381TIP3    H276635   6.597   1.025  16.183 -0.4156 -0.6546  1.6978
18382TIP3   OH276636   3.720   2.690  12.392 -0.3813 -0.1938  0.4035
18382TIP3    H176637   3.731   2.754  12.461  0.0606 -0.0088  0.1679
18382TIP3    H276638   3.809   2.662  12.371 -0.6485 -3.1067  2.5480
18383TIP3   OH276639   4.446   5.633   0.434  0.3654  0.0035 -0.2872
18383TIP3    H176640   4.395   5.698   0.386 -0.8509 -1.4684 -1.0808
18383TIP3    H276641   4.405   5.549   0.412  0.8912 -0.9092  1.9318
18384TIP3   OH276642   4.453   4.244  11.768  0.0701  0.1081  0.2466
18384TIP3    H176643   4.400   4.235  11.847 -0.0964  2.2270  0.4308
18384TIP3    H276644   4.541   4.218  11.795 -0.3634 -1.0990  0.5715
18385TIP3   OH276645   5.054   6.252  13.501 -0.1348  0.0949  0.0233
18385TIP3    H176646   5.126   6.311  13.477  0.0196 -0.3479 -0.6305
18385TIP3    H276647   5.093   6.165  13.502 -0.2242  0.0517  1.5879
18386TIP3   OH276648   5.369   2.014   1.012 -0.7623 -0.2500  0.2674
18386TIP3    H176649   5.350   1.928   1.049  0.2448 -0.5621  0.1103
18386TIP3    H276650   5.433   2.052   1.072 -1.4861  0.5589  0.5424
18387TIP3   OH276651   4.595   3.968  13.772 -0.1530  0.3895 -0.1829
18387TIP3    H176652   4.560   3.879  13.765  1.8787 -0.4742 -0.0213
18387TIP3    H276653   4.610   3.995  13.681 -1.8124  1.0650 -0.3004
18388TIP3   OH276654   3.451   2.962   6.763 -0.4900 -0.3218 -0.5445
18388TIP3    H176655   3.389   3.017   6.810  1.1627 -0.8316  2.5431
18388TIP3    H276656   3.438   2.874   6.799  2.0411 -0.4119  0.3690
18389TIP3   OH276657   6.613   3.378  12.119  0.4807 -0.5067 -0.6938
18389TIP3    H176658   6.590   3.471  12.125 -0.8598 -0.8484 -0.2753
18389TIP3    H276659   6.696   3.372  12.167  1.5098  0.7372 -2.1777
18390TIP3   OH276660   2.316   5.556   6.151 -1.0884  0.2250  0.3099
18390TIP3    H176661   2.248   5.541   6.216 -0.3812  0.3028  1.0724
18390TIP3    H276662   2.335   5.468   6.116  0.7394 -0.3075  2.4551
18391TIP3   OH276663   5.991   3.616  14.948  0.0265  0.6601  0.0120
18391TIP3    H176664   6.038   3.606  15.031 -0.5036  0.8527  0.3395
18391TIP3    H276665   6.015   3.539  14.897 -1.2859 -0.5446  1.1480
18392TIP3   OH276666   6.135   3.198   1.696  0.1057  0.3531 -0.2408
18392TIP3    H176667   6.047   3.234   1.687 -0.5596 -0.8739  0.9490
18392TIP3    H276668   6.162   3.224   1.784  0.6378  0.0746 -0.3194
18393TIP3   OH276669   3.572   1.293   0.868 -0.2700  0.4189 -0.2857
18393TIP3    H176670   3.520   1.229   0.821  0.5839 -0.8360  0.4127
18393TIP3    H276671   3.512   1.330   0.933 -0.5146 -0.4433 -0.0013
18394TIP3   OH276672   3.997   2.023  12.691  0.0318 -0.3644 -0.4207
18394TIP3    H176673   3.991   2.044  12.785 -2.7868  1.3089 -0.8298
18394TIP3    H276674   4.057   2.088  12.655 -0.6124  0.4494 -0.0667
18395TIP3   OH276675   5.877   3.791  15.539  0.6036 -0.2209 -0.2139
18395TIP3    H176676   5.800   3.845  15.523  0.0267 -0.9677  0.0304
18395TIP3    H276677   5.844   3.702  15.546  1.2598 -0.3587  1.6861
18396TIP3   OH276678   0.726   2.798  14.051 -0.4145  0.4059  0.2110
18396TIP3    H176679   0.716   2.704  14.037 -0.1335  0.4126 -0.0343
18396TIP3    H276680   0.743   2.806  14.145 -0.5627  0.2232  0.2546
18397TIP3   OH276681   2.372   1.150  13.962 -0.4812  0.3701 -0.0878
18397TIP3    H176682   2.357   1.112  14.049 -0.2663  1.5275  0.4739
18397TIP3    H276683   2.347   1.242  13.971 -0.2875  0.5487 -1.2089
18398TIP3   OH276684   1.736   3.149  14.215 -0.6322 -0.1404 -0.7051
18398TIP3    H176685   1.778   3.227  14.250  0.7837 -1.4670  0.7448
18398TIP3    H276686   1.775   3.138  14.128  2.3138 -1.3649  0.6084
18399TIP3   OH276687   3.769   2.881   4.326 -0.0603 -0.0627  0.0583
18399TIP3    H176688   3.727   2.795   4.332  1.1645 -0.6271  1.1799
18399TIP3    H276689   3.830   2.873   4.253  0.8383 -0.5319  0.8422
18400TIP3   OH276690   4.222   5.328  14.988 -0.4000  0.5637  0.3412
18400TIP3    H176691   4.267   5.283  14.917 -0.7898  0.0000  0.4436
18400TIP3    H276692   4.132   5.297  14.983 -0.3157  0.0724  1.4359
18401TIP3   OH276693   1.120   3.509  15.687 -0.2180  0.3312 -0.1360
18401TIP3    H176694   1.154   3.597  15.668  0.0228  0.2964  0.1419
18401TIP3    H276695   1.064   3.521  15.764 -0.5657  0.3251 -0.3819
18402TIP3   OH276696   5.668   4.120  16.892  0.5203  0.1833 -0.2467
18402TIP3    H176697   5.660   4.099  16.985  0.4425  1.3541  0.0314
18402TIP3    H276698   5.760   4.104  16.872  0.4772 -0.3409 -0.0405
18403TIP3   OH276699   0.414   1.758   2.011 -0.8101  0.7588  0.2947
18403TIP3    H176700   0.421   1.832   2.070 -0.2908  0.4102  0.6801
18403TIP3    H276701   0.331   1.716   2.035 -1.0096  1.0939  0.2047
18404TIP3   OH276702   5.827   5.548  12.504 -0.3464  0.0237  1.0543
18404TIP3    H176703   5.777   5.562  12.584 -0.2043 -0.4722  1.2333
18404TIP3    H276704   5.862   5.459  12.512  0.0144  0.1208  0.6316
18405TIP3   OH276705   6.572   3.357   2.157  0.2005 -0.3508 -0.2466
18405TIP3    H176706   6.579   3.269   2.120  1.1175 -0.3551 -0.0846
18405TIP3    H276707   6.654   3.400   2.132  1.1843 -0.5852  2.3498
18406TIP3   OH276708   2.363   4.314   5.793 -0.4785  0.8379 -0.3643
18406TIP3    H176709   2.294   4.340   5.732 -1.2336 -2.4932 -1.1517
18406TIP3    H276710   2.324   4.323   5.879 -0.3715  2.9455 -0.4907
18407TIP3   OH276711   5.996   1.777   2.321 -0.3629 -0.3223 -0.1704
18407TIP3    H176712   6.051   1.822   2.386 -0.6799 -2.0661  1.3950
18407TIP3    H276713   5.925   1.738   2.373 -1.4215 -0.6307 -1.7674
18408TIP3   OH276714   5.525   1.819   2.970 -0.0027  0.0662  0.2917
18408TIP3    H176715   5.615   1.816   3.004 -0.7561 -0.1862  2.4290
18408TIP3    H276716   5.516   1.737   2.922  1.0868  0.3839 -0.5132
18409TIP3   OH276717   2.459   1.213  14.635  0.1686  0.3944 -0.2983
18409TIP3    H176718   2.423   1.252  14.714  0.0292  1.0983 -0.7061
18409TIP3    H276719   2.528   1.154  14.667 -1.6950 -1.4789  0.5444
18410TIP3   OH276720   3.862   4.684  15.587  0.5745  0.1727 -0.2893
18410TIP3    H176721   3.921   4.735  15.531 -0.3526 -0.3173 -1.7654
18410TIP3    H276722   3.838   4.608  15.533  1.6594 -1.6974  1.7274
18411TIP3   OH276723   5.423   1.255   3.670 -0.8994 -0.6665  0.7021
18411TIP3    H176724   5.365   1.291   3.737 -1.7484  0.0519 -0.3981
18411TIP3    H276725   5.489   1.323   3.656 -1.0420 -0.5890  0.4116
18412TIP3   OH276726   3.368   3.475  15.477  0.0227 -0.0365  0.2433
18412TIP3    H176727   3.399   3.448  15.391 -1.7315  2.6246 -1.3832
18412TIP3    H276728   3.308   3.406  15.505  0.2367 -0.6923 -0.8915
18413TIP3   OH276729   0.637   6.426   5.029  0.3530  0.3506 -0.3327
18413TIP3    H176730   0.680   6.495   4.980  0.8607  2.0046  2.2602
18413TIP3    H276731   0.564   6.469   5.074  0.5200 -0.8189  1.1642
18414TIP3   OH276732   4.738   5.644   2.701  0.1118 -0.4625  0.0071
18414TIP3    H176733   4.775   5.595   2.627 -1.4386 -2.5523  0.4926
18414TIP3    H276734   4.698   5.721   2.661  0.5193 -0.8227 -1.1579
18415TIP3   OH276735   4.695   2.985  12.017 -0.2217 -0.1435 -0.6178
18415TIP3    H176736   4.746   2.913  12.052  0.8325  0.5833 -0.6133
18415TIP3    H276737   4.617   2.944  11.980  0.2307 -1.2425 -0.3830
18416TIP3   OH276738   3.767   2.494   3.812  0.1096 -0.0770 -0.5101
18416TIP3    H176739   3.817   2.450   3.743 -0.7182  1.4265 -2.1606
18416TIP3    H276740   3.709   2.426   3.846  1.7209 -1.2979 -0.0285
18417TIP3   OH276741   5.821   2.812   0.034 -0.1026 -0.2679  0.5399
18417TIP3    H176742   5.807   2.903   0.058  0.4282 -0.3568  1.2268
18417TIP3    H276743   5.897   2.785   0.086 -1.7754 -1.8364  2.3665
18418TIP3   OH276744   1.422   3.568   5.116  0.1548 -0.4212 -0.0942
18418TIP3    H176745   1.379   3.537   5.036  0.2761  0.7975 -0.6648
18418TIP3    H276746   1.429   3.491   5.172  2.0893 -1.8768 -2.1376
18419TIP3   OH276747   0.914   6.378  15.182  0.1961  0.4860 -0.6588
18419TIP3    H176748   0.889   6.311  15.246  1.0972  0.7024 -0.0650
18419TIP3    H276749   0.855   6.363  15.108 -1.6688  0.9242  0.6436
18420TIP3   OH276750   6.339   6.413  17.342  0.3699  0.3347  0.1198
18420TIP3    H176751   6.253   6.435  17.305  0.6502  1.9695  0.3768
18420TIP3    H276752   6.324   6.332  17.392 -1.0355  0.6378  0.2188
18421TIP3   OH276753   1.352   2.355   0.950  0.5042  0.1465 -0.0662
18421TIP3    H176754   1.353   2.447   0.921 -0.0215  0.5696  1.1827
18421TIP3    H276755   1.260   2.337   0.970  0.7985 -0.2081  1.0247
18422TIP3   OH276756   1.951   5.894  16.453  0.0784  0.4523  0.0658
18422TIP3    H176757   1.861   5.914  16.429 -0.1337  0.6421  0.9803
18422TIP3    H276758   1.978   5.967  16.509  0.7560  0.3374 -0.1025
18423TIP3   OH276759   2.832   6.067  11.353  0.3859 -0.3879  0.3570
18423TIP3    H176760   2.772   6.007  11.396 -0.9299  1.0768  0.6732
18423TIP3    H276761   2.840   6.034  11.263 -1.3348 -0.3463  0.1538
18424TIP3   OH276762   1.377   1.108  14.440  0.3991  0.8315  0.1771
18424TIP3    H176763   1.298   1.126  14.388  0.0052  0.8536  0.7662
18424TIP3    H276764   1.362   1.155  14.522  0.9864  0.7505  0.3350
18425TIP3   OH276765   0.238   3.378  15.738 -0.0024 -0.6548 -0.3576
18425TIP3    H176766   0.235   3.307  15.674  0.4264 -1.8155  0.8651
18425TIP3    H276767   0.208   3.455  15.690 -1.3629 -1.8294 -1.4859
18426TIP3   OH276768   2.282   4.762  13.961  0.7455  0.3004 -0.5655
18426TIP3    H176769   2.374   4.783  13.976  1.0438  0.2073 -2.0712
18426TIP3    H276770   2.238   4.790  14.041  2.2927 -1.3517  0.9505
18427TIP3   OH276771   0.818   3.239   5.776  0.5018  0.2319  0.6696
18427TIP3    H176772   0.885   3.206   5.837  3.0028  3.4409 -0.0715
18427TIP3    H276773   0.842   3.201   5.692  2.9966  3.0536 -0.0582
18428TIP3   OH276774   1.464   1.216   6.618 -0.3759 -0.1246  0.0588
18428TIP3    H176775   1.379   1.175   6.601 -0.6894  0.8907 -1.0015
18428TIP3    H276776   1.512   1.152   6.669 -1.0972 -1.5032 -0.9316
18429TIP3   OH276777   4.079   3.281   3.074  0.0859  0.2864 -0.3206
18429TIP3    H176778   4.119   3.356   3.118 -1.9965  1.8213 -0.8734
18429TIP3    H276779   4.020   3.320   3.009 -3.0518 -1.6697  1.1095
18430TIP3   OH276780   6.019   3.616   0.226  0.3053 -0.0022  0.2811
18430TIP3    H176781   5.935   3.596   0.185  0.2023  0.2234  0.3766
18430TIP3    H276782   6.068   3.534   0.225  0.2227 -0.0474 -0.1043
18431TIP3   OH276783   3.569   3.082   1.006  0.7770  0.3337  0.0468
18431TIP3    H176784   3.593   3.011   1.066 -0.4012  0.4574  0.6998
18431TIP3    H276785   3.595   3.162   1.051  0.9686  0.3772 -0.1380
18432TIP3   OH276786   2.551   3.494   1.986  0.2744  0.3788 -0.3016
18432TIP3    H176787   2.504   3.411   1.980  0.6599  0.1197  0.2879
18432TIP3    H276788   2.603   3.498   1.905 -0.0691  0.2565 -0.5331
18433TIP3   OH276789   4.512   1.934   1.961 -0.3738  0.4268 -0.2278
18433TIP3    H176790   4.535   1.876   2.034 -2.0097  0.0027 -0.0045
18433TIP3    H276791   4.527   2.022   1.995 -0.1850  0.2000  0.2927
18434TIP3   OH276792   2.264   5.104   5.211  0.1913 -0.1111 -0.2032
18434TIP3    H176793   2.191   5.050   5.179  0.6572  0.0498 -1.5995
18434TIP3    H276794   2.226   5.156   5.281 -1.1052  0.0973 -1.0173
18435TIP3   OH276795   3.849   6.425   2.952  0.4330  0.2446  0.1128
18435TIP3    H176796   3.805   6.340   2.945  0.1549  0.4746 -1.3225
18435TIP3    H276797   3.855   6.456   2.862  1.0145  1.5155  0.5646
18436TIP3   OH276798   6.265   0.877   1.585 -0.2243  0.0466 -0.1302
18436TIP3    H176799   6.291   0.798   1.537  1.5645 -0.1252  1.0337
18436TIP3    H276800   6.210   0.844   1.657 -1.7931  0.1783 -1.2153
18437TIP3   OH276801   3.036   2.506  14.804  0.1840 -0.2053 -0.3105
18437TIP3    H176802   3.039   2.599  14.822  2.3543 -0.1323 -0.7523
18437TIP3    H276803   2.950   2.478  14.835 -0.5435  1.9271 -0.2354
18438TIP3   OH276804   1.802   2.472   4.782  0.5964  0.1162 -0.4688
18438TIP3    H176805   1.826   2.488   4.873 -1.1696  1.5148 -0.2063
18438TIP3    H276806   1.873   2.512   4.731  1.6150 -0.7057  0.2583
18439TIP3   OH276807   0.049   3.483   2.044  0.3099  0.7231  0.1919
18439TIP3    H176808   0.050   3.578   2.045  0.3441  0.7787 -1.7941
18439TIP3    H276809   0.079   3.459   1.956  1.0426 -1.1397  0.8901
18440TIP3   OH276810   1.206   1.985   1.848  0.2128  0.2119  0.4624
18440TIP3    H176811   1.285   2.001   1.797 -1.1313  0.6315 -1.6149
18440TIP3    H276812   1.153   2.064   1.835 -1.0424 -0.5411  0.8457
18441TIP3   OH276813   3.614   3.375   0.068  0.1389  0.5907 -0.8347
18441TIP3    H176814   3.696   3.359   0.021  1.1678 -1.0957  1.3601
18441TIP3    H276815   3.573   3.289   0.075 -0.2429  0.8780  0.8207
18442TIP3   OH276816   5.176   1.715   3.577  0.0845 -0.1030  0.1469
18442TIP3    H176817   5.185   1.682   3.666  2.3134 -0.7788 -0.2685
18442TIP3    H276818   5.261   1.755   3.557  0.4177 -1.8030 -2.3498
18443TIP3   OH276819   2.654   2.798  12.277  1.0469  0.1029  0.3213
18443TIP3    H176820   2.707   2.874  12.253  1.9075 -0.4475  0.4500
18443TIP3    H276821   2.579   2.835  12.324  1.8569  0.8167  1.0806
18444TIP3   OH276822   3.873   3.308  13.933  0.2290 -0.1347 -0.8457
18444TIP3    H176823   3.889   3.398  13.904 -0.5074 -0.6243 -2.9328
18444TIP3    H276824   3.928   3.254  13.876 -0.8605 -1.1158 -1.0036
18445TIP3   OH276825   1.589   3.088   3.325 -0.6902  0.1740  0.1257
18445TIP3    H176826   1.526   3.160   3.325 -1.4147 -0.4465  0.8065
18445TIP3    H276827   1.537   3.009   3.342  0.2799 -0.3292  0.9358
18446TIP3   OH276828   3.309   1.570   3.891  0.7636  0.5455  0.5282
18446TIP3    H176829   3.282   1.582   3.800 -1.3496 -0.0107  1.0265
18446TIP3    H276830   3.382   1.508   3.887 -0.3013 -0.6751 -0.6847
18447TIP3   OH276831   1.965   0.909  14.453  0.0574  0.0605 -0.1490
18447TIP3    H176832   2.035   0.971  14.478  0.6214  0.0164 -1.5422
18447TIP3    H276833   2.012   0.834  14.417 -0.7042 -0.2625 -0.4767
18448TIP3   OH276834   1.682   4.277   2.261  0.2349  0.2546 -0.4559
18448TIP3    H176835   1.748   4.242   2.202 -0.2035  0.8493 -1.3134
18448TIP3    H276836   1.670   4.208   2.326  2.2069  0.4144  0.1542
18449TIP3   OH276837   1.716   1.928  16.082  0.3760  0.3736 -0.3939
18449TIP3    H176838   1.747   1.858  16.025 -0.4659  0.0490 -0.4761
18449TIP3    H276839   1.666   1.986  16.025  2.4585  2.0117 -0.6708
18450TIP3   OH276840   1.762   1.446   2.743  0.0573 -0.2588 -0.1692
18450TIP3    H176841   1.845   1.487   2.766 -0.9812  0.1646  3.5682
18450TIP3    H276842   1.779   1.352   2.750  0.1379 -0.1644  1.2934
18451TIP3   OH276843   6.491   6.159   3.619 -0.3025 -0.6896 -0.1588
18451TIP3    H176844   6.577   6.122   3.596 -0.6835 -1.3292 -0.5975
18451TIP3    H276845   6.428   6.099   3.579 -0.9492  0.2640 -0.5897
18452TIP3   OH276846   1.021   3.790   1.205  0.0916  0.0184 -0.1106
18452TIP3    H176847   1.074   3.745   1.271  2.0306  2.4422  0.1514
18452TIP3    H276848   1.039   3.743   1.123 -0.9012 -1.8851  0.7000
18453TIP3   OH276849   5.707   1.961   2.209  0.4339  0.2256  0.4394
18453TIP3    H176850   5.758   1.962   2.129  0.7910  1.5551  0.6681
18453TIP3    H276851   5.768   1.985   2.278 -0.0898  0.0403  0.9858
18454TIP3   OH276852   5.755   3.417  16.535  0.2068 -0.4328  0.0999
18454TIP3    H176853   5.784   3.326  16.538 -1.1956 -0.9137 -0.2341
18454TIP3    H276854   5.757   3.446  16.626  1.7778 -0.4087  0.0795
18455TIP3   OH276855   3.940   5.532   1.750 -0.2364 -0.0773 -0.2033
18455TIP3    H176856   4.025   5.488   1.756 -1.5320 -2.6652  0.3083
18455TIP3    H276857   3.926   5.569   1.837 -0.0946 -0.5638  0.0300
18456TIP3   OH276858   0.106   5.623   0.259 -0.2557 -0.1214  0.1841
18456TIP3    H176859   0.184   5.600   0.209 -0.8208 -1.3629 -0.1567
18456TIP3    H276860   0.139   5.642   0.347  0.5042  0.0170 -0.1244
18457TIP3   OH276861   2.840   0.324   4.158  0.4103  0.5087  0.0068
18457TIP3    H176862   2.919   0.377   4.145  1.2272  0.0050  2.3961
18457TIP3    H276863   2.778   0.383   4.201  0.3813  0.2517  0.3247
18458TIP3   OH276864   3.490   0.305   0.359  0.2444 -0.0509  0.1599
18458TIP3    H176865   3.579   0.312   0.393  0.9779 -0.6120 -1.5162
18458TIP3    H276866   3.499   0.318   0.265 -1.1240 -2.1407 -0.3482
18459TIP3   OH276867   4.130   4.574  14.665 -0.1806 -0.4373 -0.4755
18459TIP3    H176868   4.057   4.545  14.720 -0.2834  1.7413  0.6311
18459TIP3    H276869   4.090   4.632  14.600  0.1540 -1.8418 -2.0071
18460TIP3   OH276870   6.338   5.632   1.867  0.1173  0.0150  0.2825
18460TIP3    H176871   6.405   5.578   1.825 -1.4175 -1.8271  0.0782
18460TIP3    H276872   6.318   5.700   1.802  0.4194 -0.5818 -0.4552
18461TIP3   OH276873   3.282   4.617  14.916 -0.2519  0.1647 -0.4891
18461TIP3    H176874   3.293   4.636  15.010  0.3786  0.8699 -0.6925
18461TIP3    H276875   3.195   4.577  14.910 -0.7036  0.9829  0.2750
18462TIP3   OH276876   5.946   1.252  15.924  0.0326  0.0980  0.8051
18462TIP3    H176877   5.879   1.229  15.861 -0.6568  1.1593  1.1231
18462TIP3    H276878   5.900   1.255  16.008  0.2974  1.5228  0.9298
18463TIP3   OH276879   6.355   6.145  12.872 -0.0460  0.6371  0.2598
18463TIP3    H176880   6.435   6.171  12.826  1.3937 -0.8181  1.7877
18463TIP3    H276881   6.295   6.218  12.859  1.2319  1.4174 -1.6251
18464TIP3   OH276882   0.923   0.216  16.946 -0.0518  0.2483 -0.0681
18464TIP3    H176883   0.977   0.193  16.870 -2.2895 -1.9551 -1.1308
18464TIP3    H276884   0.846   0.258  16.908 -1.4862 -1.4251  0.8404
18465TIP3   OH276885   4.552   5.577   0.673  0.7085 -0.2572 -0.5661
18465TIP3    H176886   4.527   5.657   0.720 -0.8207 -1.7884  1.4486
18465TIP3    H276887   4.511   5.585   0.587 -3.3395 -0.6776  1.0999
18466TIP3   OH276888   3.966   4.807   3.879  0.0174  0.4733  0.0342
18466TIP3    H176889   3.995   4.812   3.788  0.5374  0.5284  0.1930
18466TIP3    H276890   3.946   4.715   3.893 -0.1091  0.4723 -0.1488
18467TIP3   OH276891   4.778   5.223   5.755  0.7639  0.0055  0.5798
18467TIP3    H176892   4.767   5.269   5.839 -1.5020  0.1994  0.2351
18467TIP3    H276893   4.844   5.156   5.773  0.9567  0.6023  2.2849
18468TIP3   OH276894   3.586   6.180   3.139  0.1490 -0.1358 -0.3020
18468TIP3    H176895   3.527   6.108   3.159 -2.3168  2.4352  2.8454
18468TIP3    H276896   3.529   6.248   3.102  2.1595  0.6439 -2.1565
18469TIP3   OH276897   3.448   3.317   3.899 -0.0720  0.4435 -0.1956
18469TIP3    H176898   3.424   3.269   3.978  1.1379 -0.8448 -0.5805
18469TIP3    H276899   3.401   3.273   3.829  0.2586  0.4639 -0.4293
18470TIP3   OH276900   6.517   2.625  15.106 -0.5278  0.0905  0.1071
18470TIP3    H176901   6.430   2.648  15.138 -1.2731  0.4865 -2.0002
18470TIP3    H276902   6.501   2.555  15.042  0.5785  0.7488 -0.9389
18471TIP3   OH276903   1.608   4.522   3.345 -0.1556  0.1946 -0.4901
18471TIP3    H176904   1.679   4.507   3.283 -0.2917 -1.1106 -0.3463
18471TIP3    H276905   1.653   4.549   3.426  0.1230  0.1055 -0.6138
18472TIP3   OH276906   5.933   6.232   4.137  0.4760  0.0822 -0.0598
18472TIP3    H176907   5.899   6.147   4.108  0.7442  0.5123 -1.7468
18472TIP3    H276908   5.902   6.241   4.227 -0.1094 -1.5122 -0.0761
18473TIP3   OH276909   0.212   6.429  14.266  0.2681  0.1545 -0.4265
18473TIP3    H176910   0.186   6.400  14.178  0.7192 -0.1070 -0.4768
18473TIP3    H276911   0.308   6.426  14.265  0.3496  1.7430 -0.4694
18474TIP3   OH276912   4.898   1.253  11.382  0.4797  0.2449  0.2381
18474TIP3    H176913   4.881   1.345  11.357 -0.9029 -0.4936 -1.9108
18474TIP3    H276914   4.861   1.245  11.470 -1.4235  1.2630 -0.4035
18475TIP3   OH276915   5.441   5.620  16.102  0.9364 -0.1976 -0.0728
18475TIP3    H176916   5.469   5.534  16.070  0.3454 -0.7898  0.9442
18475TIP3    H276917   5.368   5.601  16.161  0.8954  0.9937  0.2828
18476TIP3   OH276918   1.064   3.086  13.044 -0.8764 -0.2805 -0.1092
18476TIP3    H176919   1.107   3.004  13.020 -0.8685 -0.1375 -0.5839
18476TIP3    H276920   0.982   3.059  13.086 -0.4743 -0.5474  0.5168
18477TIP3   OH276921   2.398   4.932  14.695 -0.0703  1.1680  0.7250
18477TIP3    H176922   2.306   4.933  14.668  0.2095  2.1354 -0.2549
18477TIP3    H276923   2.415   5.020  14.728  0.4476  0.9233  1.1235
18478TIP3   OH276924   6.628   5.711   3.560 -0.4438 -0.2544 -0.4892
18478TIP3    H176925   6.630   5.632   3.613  0.2242 -0.8343 -1.3367
18478TIP3    H276926   6.545   5.753   3.582 -0.7718 -1.1446  0.0390
18479TIP3   OH276927   1.837   5.647   4.155 -0.2207 -0.3696  0.0641
18479TIP3    H176928   1.862   5.630   4.246 -1.2066 -0.2061  0.3779
18479TIP3    H276929   1.920   5.661   4.109  0.4171 -2.3679  0.5248
18480TIP3   OH276930   4.728   3.811   0.957  0.2240 -0.5039 -0.1635
18480TIP3    H176931   4.804   3.859   0.990  1.0946 -0.1174 -2.5685
18480TIP3    H276932   4.671   3.877   0.920 -1.7466 -0.7024  2.2016
18481TIP3   OH276933   2.628   4.908   4.744 -0.0089 -0.1807 -0.2847
18481TIP3    H176934   2.711   4.953   4.756  0.0144 -0.2476 -0.1905
18481TIP3    H276935   2.561   4.973   4.765 -0.0268  0.3348 -1.8246
18482TIP3   OH276936   1.627   1.121  14.069  0.1172 -0.1050  0.2027
18482TIP3    H176937   1.684   1.076  14.131 -0.5124  0.4022  1.1810
18482TIP3    H276938   1.599   1.200  14.115 -0.9067 -0.0535 -0.4700
18483TIP3   OH276939   5.727   1.242   5.570  0.9406 -0.3040  0.3095
18483TIP3    H176940   5.809   1.194   5.585  1.8222  1.6333  2.1749
18483TIP3    H276941   5.748   1.305   5.502  1.9447  2.0441  2.6287
18484TIP3   OH276942   5.237   3.178   5.240  0.2427 -0.1672  0.2818
18484TIP3    H176943   5.156   3.161   5.193  1.1840 -1.8892 -0.8369
18484TIP3    H276944   5.225   3.135   5.325 -0.3147  0.3075  0.4499
18485TIP3   OH276945   5.705   2.052   0.509  0.6116  0.1287 -0.0852
18485TIP3    H176946   5.790   2.010   0.495  1.3256  0.9984  1.4179
18485TIP3    H276947   5.656   1.990   0.563 -0.0256 -0.6979 -1.5446
18486TIP3   OH276948   5.626   4.416   4.929  0.3727  0.0960 -0.3455
18486TIP3    H176949   5.699   4.359   4.951 -0.0074 -0.0280  0.6318
18486TIP3    H276950   5.605   4.462   5.010 -1.6053 -0.9804 -0.1862
18487TIP3   OH276951   4.688   5.925  13.119  0.0947  0.2910  0.4154
18487TIP3    H176952   4.612   5.897  13.170 -0.1975 -1.8758 -1.0694
18487TIP3    H276953   4.761   5.918  13.180 -0.6491  0.7726  1.3901
18488TIP3   OH276954   2.758   3.588   0.500 -0.1660 -0.1100  0.5372
18488TIP3    H176955   2.750   3.583   0.595  2.0445  0.7560  0.8103
18488TIP3    H276956   2.742   3.680   0.480  0.9393  0.0309  0.2617
18489TIP3   OH276957   4.053   6.177  16.850 -0.3751  0.5234  0.1018
18489TIP3    H176958   4.006   6.122  16.913  1.2513 -1.4483 -0.2611
18489TIP3    H276959   4.130   6.208  16.898  0.1719  0.1116 -0.4800
18490TIP3   OH276960   5.621   1.111  14.924 -0.1163 -0.2302 -0.1244
18490TIP3    H176961   5.633   1.161  15.005 -2.0182 -0.4408  0.3466
18490TIP3    H276962   5.662   1.165  14.856  2.4317 -0.5224  1.0657
18491TIP3   OH276963   1.056   5.940  14.982 -0.1465  0.1703  0.2087
18491TIP3    H176964   1.105   5.991  15.046 -1.8135  2.0715  0.1022
18491TIP3    H276965   1.107   5.947  14.901  0.3782  0.4577  0.5592
18492TIP3   OH276966   6.349   1.723  14.145 -0.0664 -0.1421 -0.0337
18492TIP3    H176967   6.437   1.691  14.128  0.0076 -0.5567  1.0414
18492TIP3    H276968   6.355   1.817  14.131  1.0449  0.1207  1.7712
18493TIP3   OH276969   3.240   4.254   0.495 -0.4584  0.3900  0.2621
18493TIP3    H176970   3.300   4.196   0.541 -1.7647  0.1080  1.6691
18493TIP3    H276971   3.204   4.311   0.562 -0.9079  1.3308 -0.7380
18494TIP3   OH276972   6.086   3.596  17.348 -0.5611  0.3632  0.0439
18494TIP3    H176973   6.181   3.593  17.340 -0.6038 -1.6837 -0.1282
18494TIP3    H276974   6.067   3.687  17.372  1.0979  1.8405 -3.5321
18495TIP3   OH276975   4.839   1.944   4.552  0.2440  0.5366 -1.1888
18495TIP3    H176976   4.764   1.993   4.518  0.0940 -0.0992 -1.7779
18495TIP3    H276977   4.804   1.857   4.572  0.9143  0.0952 -1.8940
18496TIP3   OH276978   6.079   2.063   4.507  0.0793 -0.2485 -0.4994
18496TIP3    H176979   6.150   2.079   4.568  0.5452  1.0217 -1.3387
18496TIP3    H276980   6.001   2.056   4.562  0.2623  2.2636  0.1998
18497TIP3   OH276981   5.808   5.194   5.436 -0.3006  0.5448 -0.8885
18497TIP3    H176982   5.821   5.273   5.382  0.2941  2.3704  1.7415
18497TIP3    H276983   5.879   5.196   5.499 -1.8706 -0.5264  1.0387
18498TIP3   OH276984   3.349   4.416   3.860 -0.1033 -0.7304  0.2180
18498TIP3    H176985   3.358   4.403   3.955  3.1638  0.2111  0.1718
18498TIP3    H276986   3.363   4.510   3.847 -1.7111 -0.6317 -1.1569
18499TIP3   OH276987   5.473   3.396   6.685 -0.1583 -0.0386 -0.1274
18499TIP3    H176988   5.562   3.425   6.706  0.5101 -0.8418 -1.6816
18499TIP3    H276989   5.475   3.302   6.702 -1.1622  0.1487  1.1817
18500TIP3   OH276990   5.193   1.315   1.453  0.0401 -0.1875 -0.4576
18500TIP3    H176991   5.123   1.286   1.512  1.1529 -2.3688 -0.0895
18500TIP3    H276992   5.183   1.260   1.376  1.2431 -0.4425 -0.4503
18501TIP3   OH276993   6.627   5.752   1.644  0.4530  0.2927 -0.1923
18501TIP3    H176994   6.641   5.681   1.582  1.4283  1.1254 -0.9519
18501TIP3    H276995   6.546   5.794   1.615 -0.3698 -0.7355  0.5193
18502TIP3   OH276996   3.381   1.783  16.172 -0.2244 -0.3219 -0.0290
18502TIP3    H176997   3.407   1.874  16.184 -0.1363 -0.6153  2.5401
18502TIP3    H276998   3.458   1.732  16.195 -0.6847 -1.0736 -0.1007
18503TIP3   OH276999   2.047   1.722   6.906 -0.5346  0.2071  0.3887
18503TIP3    H177000   2.020   1.630   6.914 -1.4477  0.3301 -1.0378
18503TIP3    H277001   2.075   1.732   6.815  0.4829  1.1264  0.7765
18504TIP3   OH277002   2.459   0.588   6.197  0.1483  0.3056  0.1073
18504TIP3    H177003   2.422   0.662   6.150  0.3182  0.5173  0.3067
18504TIP3    H277004   2.472   0.619   6.287 -3.6510 -1.1608  1.3684
18505TIP3   OH277005   2.648   1.397  11.150  0.2798  0.0400 -1.0118
18505TIP3    H177006   2.629   1.309  11.184 -0.6663  1.0573  1.3705
18505TIP3    H277007   2.563   1.441  11.150  1.0952  1.7501  0.5044
18506TIP3   OH277008   4.126   1.840  16.521 -0.3441 -0.5138  0.4955
18506TIP3    H177009   4.122   1.746  16.506  0.9460 -0.3395 -1.4068
18506TIP3    H277010   4.220   1.861  16.514 -0.5781  0.8754  1.1428
18507TIP3   OH277011   6.416   4.981  16.943 -0.1608  0.3379 -0.0318
18507TIP3    H177012   6.331   4.999  16.983 -0.7987  0.2677 -1.3073
18507TIP3    H277013   6.434   5.057  16.888 -0.8110 -0.8775 -2.0411
18508TIP3   OH277014   5.495   1.679  17.348  0.0908  0.4914  0.1199
18508TIP3    H177015   5.450   1.692  17.431  1.4171  0.4293  0.8605
18508TIP3    H277016   5.575   1.632  17.370 -0.1131 -0.6512 -1.3499
18509TIP3   OH277017   1.498   4.810   5.912  0.3507  0.2407 -0.4358
18509TIP3    H177018   1.453   4.756   5.847  0.6359 -0.5200 -0.0168
18509TIP3    H277019   1.433   4.874   5.940 -1.2135 -2.0550  1.6253
18510TIP3   OH277020   2.176   6.067  13.262 -0.4395  0.0487 -0.0859
18510TIP3    H177021   2.230   6.003  13.216  0.0291 -0.8322  1.6309
18510TIP3    H277022   2.089   6.058  13.222 -0.4458 -1.8526  0.3051
18511TIP3   OH277023   1.327   0.926   3.677 -0.4620 -0.0970  0.2820
18511TIP3    H177024   1.308   1.003   3.729  0.5765 -0.5041  1.3036
18511TIP3    H277025   1.248   0.912   3.625 -0.3155  2.2256 -0.6954
18512TIP3   OH277026   3.070   2.683   0.372 -0.0666  0.5408  0.5839
18512TIP3    H177027   3.147   2.648   0.417  0.1438 -0.0946 -0.2290
18512TIP3    H277028   3.009   2.609   0.368  0.9044 -0.2699 -2.3406
18513TIP3   OH277029   6.652   0.287  11.884  0.2420 -0.4549 -0.1189
18513TIP3    H177030   6.712   0.307  11.812  0.8260 -0.0378  0.4711
18513TIP3    H277031   6.633   0.194  11.875  0.9569 -0.5818 -0.3233
18514TIP3   OH277032   0.586   0.057   4.384 -1.1151  0.3382 -0.1736
18514TIP3    H177033   0.624   0.103   4.460  0.0113  1.3784 -1.3192
18514TIP3    H277034   0.491   0.065   4.396 -0.9843  3.4325 -0.5387
18515TIP3   OH277035   5.328   3.797   4.994  0.3306  0.2798 -0.3360
18515TIP3    H177036   5.299   3.815   5.084  1.9776 -0.8818  0.4647
18515TIP3    H277037   5.371   3.878   4.966  0.4404  0.4080  0.1937
18516TIP3   OH277038   4.470   0.702  15.480 -0.1943  0.3295  0.0018
18516TIP3    H177039   4.448   0.640  15.549 -0.3027  0.8250  0.4156
18516TIP3    H277040   4.394   0.701  15.422  0.9584 -2.1281 -1.6523
18517TIP3   OH277041   6.074   4.975   5.010  0.7757  0.1831 -0.2493
18517TIP3    H177042   6.032   4.895   4.977  2.2402 -1.3502  1.4149
18517TIP3    H277043   6.025   4.997   5.089 -0.2158  1.5657 -1.1820
18518TIP3   OH277044   3.810   3.161  11.686  0.0390 -0.5269 -0.0395
18518TIP3    H177045   3.789   3.240  11.637 -0.8593 -0.8985 -0.2703
18518TIP3    H277046   3.877   3.117  11.633  0.6214  0.1114  0.1420
18519TIP3   OH277047   4.359   1.481   5.756  0.4650 -0.3621 -0.1381
18519TIP3    H177048   4.319   1.419   5.816  0.5599  0.0079  0.3175
18519TIP3    H277049   4.390   1.552   5.812  1.6932 -0.6005 -0.4779
18520TIP3   OH277050   4.475   6.326   0.022  0.3291 -0.9404 -0.7149
18520TIP3    H177051   4.427   6.243   0.022  1.8067 -1.8287 -1.1790
18520TIP3    H277052   4.440   6.374  -0.053 -1.4247 -0.5615  0.2824
18521TIP3   OH277053   3.814   6.474   1.904  0.4175  0.0909 -0.1478
18521TIP3    H177054   3.859   6.396   1.871  1.7829  0.5078  0.6312
18521TIP3    H277055   3.840   6.544   1.843 -0.8181 -0.0471 -0.8575
18522TIP3   OH277056   0.689   6.365  12.672  0.2535  0.1051 -0.6138
18522TIP3    H177057   0.707   6.392  12.582  0.7629  0.1416 -0.5021
18522TIP3    H277058   0.759   6.303  12.693  1.2026  1.4481  0.3653
18523TIP3   OH277059   2.213   5.796  15.123  0.0621  0.2614 -0.2747
18523TIP3    H177060   2.147   5.851  15.080 -0.5462  0.3616  0.7696
18523TIP3    H277061   2.287   5.855  15.140  1.0140 -0.1301 -2.6124
18524TIP3   OH277062   3.245   6.519  14.889  0.3024 -0.3708 -0.1801
18524TIP3    H177063   3.178   6.462  14.926  0.8009 -0.2101  1.0481
18524TIP3    H277064   3.250   6.592  14.951  2.1298 -0.7642  0.2127
18525TIP3   OH277065   4.543   5.444  14.596  0.3871  0.3658 -0.0880
18525TIP3    H177066   4.579   5.449  14.507  1.7581  1.7052  0.5041
18525TIP3    H277067   4.476   5.513  14.599  0.4525  0.4284 -0.0475
18526TIP3   OH277068   0.949   1.113   2.055  0.1320  0.1677 -0.5257
18526TIP3    H177069   1.012   1.052   2.094  0.0426  0.4329  0.0518
18526TIP3    H277070   0.998   1.159   1.988  0.1489 -0.6820 -1.1193
18527TIP3   OH277071   2.495   4.168  11.035  0.0172 -0.3525 -0.4714
18527TIP3    H177072   2.481   4.081  11.072 -0.2711  0.4735  1.4910
18527TIP3    H277073   2.583   4.192  11.062 -0.0298  0.1058 -0.7140
18528TIP3   OH277074   0.745   5.272  17.527  0.2076 -0.1567 -0.0742
18528TIP3    H177075   0.679   5.273  17.458  0.3762  1.5907 -0.2485
18528TIP3    H277076   0.700   5.231  17.602 -0.2378 -1.2849 -0.9248
18529TIP3   OH277077   6.656   5.304  13.294  0.6221 -0.4637 -0.0527
18529TIP3    H177078   6.585   5.338  13.349  0.9716 -2.5355  1.7867
18529TIP3    H277079   6.720   5.269  13.356  2.1271 -0.8496 -1.7452
18530TIP3   OH277080   1.314   1.211  14.664 -0.5604  0.4675  0.3130
18530TIP3    H177081   1.389   1.242  14.715  1.1218 -1.0426 -1.1180
18530TIP3    H277082   1.267   1.153  14.724  1.2216 -1.0549  0.3378
18531TIP3   OH277083   2.094   1.708  15.597  0.2695 -0.2279 -0.0487
18531TIP3    H177084   2.171   1.652  15.583  0.1395 -0.4161 -0.0157
18531TIP3    H277085   2.023   1.663  15.551  0.1981 -0.0085 -0.1542
18532TIP3   OH277086   6.609   5.511   0.426 -0.1566  0.0036 -0.1564
18532TIP3    H177087   6.612   5.551   0.513 -0.2005  0.4360 -0.3498
18532TIP3    H277088   6.636   5.421   0.440 -0.7587 -0.0959  0.4007
18533TIP3   OH277089   2.927   3.971   4.433  0.5652 -0.1685  0.2675
18533TIP3    H177090   2.963   4.034   4.370  1.6397 -0.2953  0.7402
18533TIP3    H277091   2.845   3.942   4.393  0.8307  0.3559 -0.6904
18534TIP3   OH277092   5.149   2.432   2.521 -0.1946  0.3776  0.1411
18534TIP3    H177093   5.065   2.473   2.544 -0.1887  0.3205  0.2678
18534TIP3    H277094   5.162   2.366   2.589  0.8141  1.5776  1.1637
18535TIP3   OH277095   0.942   0.901   4.568  0.4782  0.3775 -0.0723
18535TIP3    H177096   0.926   0.929   4.659 -0.0893 -0.9067  0.2468
18535TIP3    H277097   0.933   0.981   4.517  1.3491  1.2348  1.0554
18536TIP3   OH277098   5.829   2.313   2.090 -0.4726 -0.1181 -0.4123
18536TIP3    H177099   5.742   2.352   2.098 -0.2373  0.6135 -1.2380
18536TIP3    H277100   5.865   2.350   2.009  0.1642 -1.2886 -0.6887
18537TIP3   OH277101   6.718   2.346   6.199 -0.2589 -0.1649 -0.1039
18537TIP3    H177102   6.629   2.330   6.231 -0.0471  0.2133  0.6933
18537TIP3    H277103   6.711   2.427   6.148 -0.0362  0.8931  1.4900
18538TIP3   OH277104   1.696   4.028  13.757 -0.0291  0.2774  0.0238
18538TIP3    H177105   1.721   3.984  13.677  0.5694 -0.5310  0.6440
18538TIP3    H277106   1.606   4.059  13.741  0.5720  1.3509 -1.4383
18539TIP3   OH277107   3.060   2.624   3.991 -0.4348 -0.6090  0.1638
18539TIP3    H177108   3.124   2.692   4.014 -0.2563 -1.1636  1.4139
18539TIP3    H277109   2.980   2.671   3.971 -0.5492 -0.0511  1.8341
18540TIP3   OH277110   6.686   3.484  15.704 -0.0550  0.8421 -0.2896
18540TIP3    H177111   6.621   3.553  15.717 -0.0160  1.1708 -1.6695
18540TIP3    H277112   6.766   3.518  15.744 -0.0608  1.5768 -0.8830
18541TIP3   OH277113   3.194   2.260   2.040  0.2671  0.1525 -0.1221
18541TIP3    H177114   3.149   2.334   1.999  0.5903  0.0276 -0.7068
18541TIP3    H277115   3.247   2.222   1.970  0.9419  0.0288  0.4435
18542TIP3   OH277116   6.574   1.914   3.216  0.0182 -0.0282  0.0474
18542TIP3    H177117   6.582   1.942   3.125 -1.0458 -0.0478 -0.0719
18542TIP3    H277118   6.527   1.985   3.259  1.6047  0.5459  0.8838
18543TIP3   OH277119   1.358   5.775   0.747  0.0812  0.2501  0.2214
18543TIP3    H177120   1.315   5.702   0.792  0.9502  0.5402  1.5954
18543TIP3    H277121   1.377   5.838   0.817  2.2912  0.3230 -0.3663
18544TIP3   OH277122   4.228   4.019   3.767 -0.0489  0.3094 -0.5889
18544TIP3    H177123   4.169   4.049   3.698 -0.9147  1.1873  0.4851
18544TIP3    H277124   4.248   3.928   3.744 -2.7834 -0.4368 -0.4416
18545TIP3   OH277125   4.170   0.913   0.477 -0.0247  0.0359 -0.0753
18545TIP3    H177126   4.139   0.855   0.407  1.2439 -0.3332 -0.3511
18545TIP3    H277127   4.211   0.986   0.431 -0.4521  0.5040  0.2810
18546TIP3   OH277128   6.350   4.256   1.816  0.6006 -0.0467 -0.6223
18546TIP3    H177129   6.310   4.228   1.898 -0.1377 -0.5604 -1.1436
18546TIP3    H277130   6.332   4.185   1.755 -1.1354  1.4293 -1.9406
18547TIP3   OH277131   3.010   6.356   7.004  0.0285  0.1012  0.0640
18547TIP3    H177132   3.047   6.274   7.037  0.6824  0.0037 -0.8786
18547TIP3    H277133   2.962   6.330   6.926 -1.0280  0.4143  0.5914
18548TIP3   OH277134   1.278   5.650  14.853 -0.0746  0.2194  0.0315
18548TIP3    H177135   1.190   5.687  14.860  0.4969  1.4691  0.7238
18548TIP3    H277136   1.336   5.716  14.889  1.0593 -1.0489  0.6218
18549TIP3   OH277137   2.929   5.074   4.064  0.1231  0.0471  0.3854
18549TIP3    H177138   2.965   5.042   4.147  0.8833 -0.7540 -0.2270
18549TIP3    H277139   2.920   4.996   4.010 -0.1941  0.5762 -0.3493
18550TIP3   OH277140   6.215   3.233   6.295  0.1091  0.1812 -0.2012
18550TIP3    H177141   6.302   3.251   6.330  0.5724  0.4422 -1.4253
18550TIP3    H277142   6.172   3.181   6.363  0.7528  1.1159  0.9660
18551TIP3   OH277143   2.381   5.009   0.310 -0.7061  0.1198  0.0846
18551TIP3    H177144   2.455   5.059   0.275 -1.2512  0.1871 -1.0416
18551TIP3    H277145   2.413   4.919   0.313 -0.9866 -0.0982 -1.7788
18552TIP3   OH277146   2.594   5.094   3.218 -0.0703 -0.0794 -0.2711
18552TIP3    H177147   2.518   5.140   3.255 -2.3262 -3.7554  0.2863
18552TIP3    H277148   2.572   5.084   3.125  0.9451  0.9146 -0.6266
18553TIP3   OH277149   5.748   2.008  13.472  0.2040 -0.1080  0.3004
18553TIP3    H177150   5.697   2.083  13.501 -0.9585 -0.8269  0.1623
18553TIP3    H277151   5.823   2.046  13.426  0.4870  0.9798  1.5991
18554TIP3   OH277152   6.708   6.145  11.110 -0.3631 -0.4910  0.0785
18554TIP3    H177153   6.697   6.240  11.108 -0.4660 -0.5030  0.0633
18554TIP3    H277154   6.735   6.122  11.021 -0.9457 -0.5490 -0.0862
18555TIP3   OH277155   1.762   5.051  12.501  0.7422  0.5787  0.1572
18555TIP3    H177156   1.718   4.967  12.491 -0.7864  1.5604 -2.7186
18555TIP3    H277157   1.715   5.094  12.572  0.0108 -0.1526  0.1393
18556TIP3   OH277158   0.059   4.186   0.056  0.5471  0.7081  0.3638
18556TIP3    H177159   0.109   4.126   0.112 -0.4443 -1.5088 -0.9635
18556TIP3    H277160  -0.023   4.139   0.040  0.4107  1.6842 -2.1283
18557TIP3   OH277161   2.210   3.397   2.711 -0.0004 -0.8200 -0.0307
18557TIP3    H177162   2.304   3.397   2.691  0.4504  3.3999  1.0118
18557TIP3    H277163   2.206   3.380   2.805 -0.1316 -0.1356  0.0977
18558TIP3   OH277164   2.112   2.521  14.327 -0.2797  0.0091 -0.2817
18558TIP3    H177165   2.112   2.447  14.387  1.0229  0.2162 -0.0070
18558TIP3    H277166   2.130   2.483  14.241  2.8351  0.1953  0.1871
18559TIP3   OH277167   0.981   3.547   6.654 -0.1781 -0.4472 -0.4862
18559TIP3    H177168   0.918   3.615   6.678  2.0132  1.2108  0.9322
18559TIP3    H277169   0.936   3.465   6.675 -1.3233  0.7086  2.0559
18560TIP3   OH277170   5.821   3.154   4.020 -0.5294 -0.2726  0.2596
18560TIP3    H177171   5.902   3.102   4.012  0.6982  1.7793 -2.2537
18560TIP3    H277172   5.811   3.168   4.114  1.4214 -1.5180  0.7176
18561TIP3   OH277173   6.005   4.273   4.598  0.1625 -0.3115  0.2249
18561TIP3    H177174   6.016   4.178   4.595  1.9775 -0.1300 -1.7857
18561TIP3    H277175   5.927   4.289   4.544 -2.5518 -0.7834  3.6721
18562TIP3   OH277176   2.131   1.099  13.139  0.1543 -0.4370 -0.7688
18562TIP3    H177177   2.176   1.114  13.222  1.4576  0.4629 -1.6131
18562TIP3    H277178   2.176   1.024  13.100  1.1093  0.5808 -1.7015
18563TIP3   OH277179   0.045   1.138  12.531 -0.4542 -0.6369 -0.1195
18563TIP3    H177180   0.060   1.218  12.582 -1.1497 -0.0517 -0.7883
18563TIP3    H277181   0.052   1.067  12.594 -2.6665  0.1339  1.1108
18564TIP3   OH277182   4.043   4.729   5.450 -0.0914 -0.2833 -0.5618
18564TIP3    H177183   4.018   4.773   5.532  0.3643  1.1148 -1.1373
18564TIP3    H277184   3.973   4.666   5.434 -0.6970  0.1216  0.3844
18565TIP3   OH277185   4.781   6.089   2.401 -0.4364 -0.7434  0.0277
18565TIP3    H177186   4.826   6.005   2.410  1.8469  0.4517  0.3595
18565TIP3    H277187   4.810   6.122   2.316 -0.4931  0.1808  0.3660
18566TIP3   OH277188   5.993   6.347   6.156  0.7827 -0.2044 -0.1363
18566TIP3    H177189   6.081   6.379   6.177  0.3236  0.7716  0.4081
18566TIP3    H277190   5.937   6.387   6.222 -0.0279 -1.1167 -0.2495
18567TIP3   OH277191   6.442   6.279   0.688  0.1162  0.3532  0.9430
18567TIP3    H177192   6.505   6.351   0.681 -1.7037  2.1981  2.0707
18567TIP3    H277193   6.422   6.256   0.598  1.1016  0.9380  0.5531
18568TIP3   OH277194   6.531   6.021  12.543 -0.4465  0.4193 -0.7227
18568TIP3    H177195   6.621   5.989  12.541 -0.8708 -1.0183  0.8884
18568TIP3    H277196   6.537   6.106  12.588 -0.2558 -1.5466  3.4866
18569TIP3   OH277197   0.822   1.604  15.718 -0.5299 -0.2575 -0.5351
18569TIP3    H177198   0.828   1.510  15.697  0.9628 -0.6625  1.4777
18569TIP3    H277199   0.797   1.607  15.810  1.1731  1.2689 -0.0647
18570TIP3   OH277200   1.365   1.144  11.823 -0.3273 -0.3782  0.4992
18570TIP3    H177201   1.379   1.161  11.917  0.9417  0.2661  0.2227
18570TIP3    H277202   1.285   1.093  11.820 -1.7044  1.5633  1.7646
18571TIP3   OH277203   3.213   2.414   3.274  0.2542 -0.9167  0.3090
18571TIP3    H177204   3.275   2.438   3.343 -0.1152 -2.0731  1.0779
18571TIP3    H277205   3.265   2.360   3.213  0.4082 -0.4808  0.0508
18572TIP3   OH277206   0.682   5.102  12.764 -0.1620 -0.7280 -0.3638
18572TIP3    H177207   0.719   5.015  12.774 -0.0337 -0.5760  0.5639
18572TIP3    H277208   0.654   5.106  12.672  0.9239 -1.3081 -0.7361
18573TIP3   OH277209   5.616   2.207  11.967  0.6057  0.7975 -0.1795
18573TIP3    H177210   5.560   2.130  11.967  0.0726  1.1765 -0.6058
18573TIP3    H277211   5.608   2.242  12.056 -0.7789  1.5107 -0.5572
18574TIP3   OH277212   0.100   4.344   1.725  0.2880 -0.1975  0.3965
18574TIP3    H177213   0.109   4.331   1.819 -1.4592  3.1155  1.1898
18574TIP3    H277214   0.010   4.319   1.706  0.2544  0.2714 -0.1114
18575TIP3   OH277215   4.884   6.322   5.893 -0.5877  0.2423  0.0967
18575TIP3    H177216   4.959   6.292   5.945 -1.3620 -0.9369  0.5784
18575TIP3    H277217   4.913   6.314   5.802  0.1333  0.5364  0.2929
18576TIP3   OH277218   3.174   1.198   4.367 -0.4620 -0.0464  0.1610
18576TIP3    H177219   3.266   1.198   4.394 -0.7435  4.1582  1.9347
18576TIP3    H277220   3.126   1.166   4.444 -0.6335  1.9583  0.9533
18577TIP3   OH277221   1.254   2.464  16.463 -0.4248  0.2779 -0.1956
18577TIP3    H177222   1.168   2.496  16.435 -1.3805 -0.8552  1.2675
18577TIP3    H277223   1.265   2.382  16.416 -1.1528 -0.6494  1.1839
18578TIP3   OH277224   4.822   2.676  12.977  0.2769  0.0184  0.6211
18578TIP3    H177225   4.809   2.596  13.028 -0.0742  0.3366  1.0403
18578TIP3    H277226   4.914   2.673  12.950  0.1478 -0.7599  0.2215
18579TIP3   OH277227   0.845   2.090   3.933  0.0346 -0.1149  0.1383
18579TIP3    H177228   0.764   2.138   3.951 -0.0733 -0.4971  0.7074
18579TIP3    H277229   0.915   2.153   3.950 -0.0572 -0.4552  2.0340
18580TIP3   OH277230   4.185   4.602   2.578 -0.3105  0.2045 -0.0640
18580TIP3    H177231   4.241   4.593   2.655 -0.4136 -1.4979 -0.1505
18580TIP3    H277232   4.129   4.677   2.597  0.3980  0.4692  1.0414
18581TIP3   OH277233   4.019   3.981  14.169 -0.5477 -0.3767  0.1741
18581TIP3    H177234   3.938   3.941  14.137 -0.9367 -0.0691  0.7649
18581TIP3    H277235   4.069   3.999  14.089 -1.9423  1.3136 -0.3787
18582TIP3   OH277236   2.753   4.299   6.033 -0.0104  0.3273  0.2006
18582TIP3    H177237   2.678   4.327   6.085  0.5823 -1.0577  1.8948
18582TIP3    H277238   2.816   4.369   6.042 -0.0854  0.2978  1.0055
18583TIP3   OH277239   3.641   2.862  15.034 -0.1234  0.0778  0.0543
18583TIP3    H177240   3.582   2.810  14.979  1.1806 -1.0754 -0.3204
18583TIP3    H277241   3.592   2.874  15.116 -0.8606 -0.8841 -0.2214
18584TIP3   OH277242   2.427   5.198   3.435 -0.2500  0.2941 -0.0087
18584TIP3    H177243   2.397   5.134   3.500 -0.7039  0.8170  0.3117
18584TIP3    H277244   2.371   5.182   3.358 -0.4388  0.3726  0.1107
18585TIP3   OH277245   6.036   1.557  15.209  0.3679  0.3048  0.2072
18585TIP3    H177246   6.029   1.560  15.304  1.0778  1.4445  0.2402
18585TIP3    H277247   6.124   1.591  15.190  0.1235  0.3900 -0.8693
18586TIP3   OH277248   4.908   0.041   5.766  0.6021 -0.1188 -0.8753
18586TIP3    H177249   4.822   0.012   5.796 -0.1985  0.8115 -2.1606
18586TIP3    H277250   4.889   0.107   5.699  2.2957 -0.9131 -2.2203
18587TIP3   OH277251   4.528   0.035   6.443  0.2841 -0.6814  0.4255
18587TIP3    H177252   4.602   0.089   6.470 -0.6363  1.2569 -0.7086
18587TIP3    H277253   4.562  -0.019   6.372  0.3612  1.0950 -0.9541
18588TIP3   OH277254   0.514   5.002  11.045 -0.7304  0.4180 -0.3454
18588TIP3    H177255   0.473   4.992  10.960 -0.9693  2.3562 -0.5078
18588TIP3    H277256   0.571   5.079  11.035  0.7713 -0.5012  0.6860
18589TIP3   OH277257   4.015   3.920   0.765  0.1060  0.1186  0.2471
18589TIP3    H177258   3.962   3.998   0.746  0.4740  0.4443  0.5342
18589TIP3    H277259   4.018   3.872   0.683 -1.3064 -0.3223  0.4141
18590TIP3   OH277260   2.855   1.158  13.982  0.1292  0.2778 -0.3664
18590TIP3    H177261   2.814   1.072  13.998  0.0239  0.3692 -0.1362
18590TIP3    H277262   2.825   1.212  14.055 -0.2595  0.6723 -0.8147
18591TIP3   OH277263   2.171   0.604   3.788  0.0107  0.1117  0.8123
18591TIP3    H177264   2.075   0.605   3.793 -0.2014 -1.8115 -1.2708
18591TIP3    H277265   2.197   0.533   3.847  0.0310 -0.0901  0.5675
18592TIP3   OH277266   4.051   0.791  16.609  0.4983 -0.2718  0.0370
18592TIP3    H177267   4.142   0.770  16.631  0.3632 -0.6406  0.2625
18592TIP3    H277268   4.042   0.884  16.626  1.2015  0.0581 -1.2596
18593TIP3   OH277269   2.440   5.347   0.115 -0.2266  0.2314 -0.0482
18593TIP3    H177270   2.468   5.265   0.072 -0.3789  0.5439 -0.7670
18593TIP3    H277271   2.377   5.385   0.054  0.4899  1.3165 -0.1378
18594TIP3   OH277272   1.028   0.048  14.472  0.6411 -0.0323 -0.4759
18594TIP3    H177273   1.075  -0.007  14.409  1.2609 -1.8974  1.4784
18594TIP3    H277274   0.967  -0.012  14.515  1.0784  0.8636  1.4881
18595TIP3   OH277275   0.542   0.832  15.622  0.4470  0.4105 -0.0326
18595TIP3    H177276   0.498   0.874  15.548  0.1931  0.0800 -0.0702
18595TIP3    H277277   0.477   0.772  15.658  0.2346  1.2398  1.0447
18596TIP3   OH277278   1.325   4.067  15.167 -0.0062 -0.5029  0.1783
18596TIP3    H177279   1.236   4.099  15.154 -0.8335 -2.2475  1.2198
18596TIP3    H277280   1.375   4.144  15.196 -1.5430  0.1834  1.1177
18597TIP3   OH277281   1.922   0.983   0.446 -0.4800 -0.1661 -0.0227
18597TIP3    H177282   1.911   0.894   0.479 -0.5396 -0.6165 -1.2403
18597TIP3    H277283   1.833   1.019   0.444 -0.4555 -0.0676  0.4707
18598TIP3   OH277284   4.839   2.154  13.670 -0.3349  0.0221 -0.4032
18598TIP3    H177285   4.846   2.147  13.765 -1.4464 -0.3152 -0.3340
18598TIP3    H277286   4.867   2.243  13.650  0.4686 -0.0893  0.1731
18599TIP3   OH277287   4.404   6.116   3.654  0.5331  0.0815  0.1019
18599TIP3    H177288   4.328   6.159   3.615  2.1410  0.7202 -2.5571
18599TIP3    H277289   4.474   6.181   3.647  1.1281  0.0259  3.7223
18600TIP3   OH277290   2.796   1.138  13.015 -0.0800  0.0780 -0.0969
18600TIP3    H177291   2.822   1.065  13.070  1.0589  0.7553  0.3095
18600TIP3    H277292   2.855   1.133  12.939 -0.8608 -0.1688 -0.7049
18601TIP3   OH277293   6.619   0.280   3.976  0.7184 -0.0168  0.4849
18601TIP3    H177294   6.539   0.316   3.938  0.6276  0.3984  1.0539
18601TIP3    H277295   6.685   0.349   3.963  0.4468  0.5637  1.9343
18602TIP3   OH277296   0.245   5.987  16.950 -0.4880  0.8312  0.0079
18602TIP3    H177297   0.331   6.011  16.985 -0.2593 -0.7596  0.6440
18602TIP3    H277298   0.252   6.000  16.856  1.4451 -1.8819 -0.3443
18603TIP3   OH277299   6.093   6.730   3.598  0.3637  0.0207  0.4321
18603TIP3    H177300   6.049   6.742   3.514 -1.4257 -0.1688  1.2796
18603TIP3    H277301   6.131   6.815   3.618 -0.6547  0.5422  0.2071
18604TIP3   OH277302   4.155   4.170  13.155 -0.7786  0.0332  0.2601
18604TIP3    H177303   4.185   4.241  13.212  0.0302  1.1436 -1.4795
18604TIP3    H277304   4.217   4.099  13.171  0.0091  0.6679  0.1043
18605TIP3   OH277305   0.599   4.022   2.949  0.1523 -0.2018  0.0565
18605TIP3    H177306   0.549   4.018   2.868  2.4383  0.4197 -1.4882
18605TIP3    H277307   0.621   3.931   2.968 -0.1361 -0.3244 -0.1847
18606TIP3   OH277308   6.625   5.053   2.619 -0.1777  0.0907 -0.3296
18606TIP3    H177309   6.611   5.090   2.532  1.4402 -0.0654 -0.6990
18606TIP3    H277310   6.539   5.054   2.660 -1.0955 -0.3808 -2.1469
18607TIP3   OH277311   3.315   5.362   4.430  0.4468 -0.0462 -0.4116
18607TIP3    H177312   3.234   5.411   4.443  1.3475  1.4696 -0.3951
18607TIP3    H277313   3.344   5.340   4.519  0.5627  0.2614 -0.3729
18608TIP3   OH277314   5.831   5.712  13.551 -0.3722 -0.0112 -0.0811
18608TIP3    H177315   5.883   5.766  13.492  1.5715 -1.0737  0.5851
18608TIP3    H277316   5.836   5.756  13.636  1.7020 -1.4408  0.6022
18609TIP3   OH277317   2.898   3.345   4.724  0.4991 -0.9127 -0.2914
18609TIP3    H177318   2.881   3.366   4.632  0.8904 -0.9385 -0.3724
18609TIP3    H277319   2.863   3.420   4.772  2.3446  0.2298 -0.6162
18610TIP3   OH277320   1.770   5.833   2.126  0.0563  0.1487 -0.0884
18610TIP3    H177321   1.820   5.907   2.092 -0.3040  1.0808  1.3104
18610TIP3    H277322   1.832   5.783   2.179 -0.4665  1.4783  1.9062
18611TIP3   OH277323   3.388   2.705   6.661  0.5429  0.3906 -0.3237
18611TIP3    H177324   3.324   2.769   6.631 -0.9130 -1.4703 -1.3712
18611TIP3    H277325   3.471   2.734   6.623 -0.3719  0.8140 -2.0758
18612TIP3   OH277326   1.844   6.281   3.737  0.2541 -0.3593  0.3291
18612TIP3    H177327   1.829   6.373   3.759 -0.6408 -0.5914  0.7288
18612TIP3    H277328   1.908   6.251   3.801  2.5637  0.6336 -1.3750
18613TIP3   OH277329   1.763   1.807   2.284 -0.5637 -0.7548  0.3439
18613TIP3    H177330   1.671   1.793   2.307 -0.8952 -3.1360 -2.0058
18613TIP3    H277331   1.776   1.756   2.204  2.3098  1.1161 -0.5375
18614TIP3   OH277332   1.599   4.252  14.995 -0.5481 -0.2393  0.5651
18614TIP3    H177333   1.577   4.246  14.902 -1.4923  2.1246  0.5568
18614TIP3    H277334   1.693   4.270  14.997 -0.7161  0.7950 -0.0293
18615TIP3   OH277335   6.056   0.453   5.481  0.7226 -0.0274  0.0369
18615TIP3    H177336   5.981   0.393   5.478  0.4612  0.3075 -0.2552
18615TIP3    H277337   6.043   0.511   5.406  0.5537  0.8869  0.7537
18616TIP3   OH277338   5.387   1.486   2.841 -0.6166  0.4542  0.3504
18616TIP3    H177339   5.437   1.434   2.904 -1.1272 -2.5348 -1.5167
18616TIP3    H277340   5.300   1.495   2.881 -0.8340 -1.1221  0.3079
18617TIP3   OH277341   4.121   1.719  13.410  0.1637  0.3531  0.1637
18617TIP3    H177342   4.041   1.670  13.391 -1.7443  2.6415  1.6783
18617TIP3    H277343   4.132   1.710  13.505  0.2245  2.0917  0.3515
18618TIP3   OH277344   0.424   4.935   4.878 -0.2572  0.1106  0.3978
18618TIP3    H177345   0.411   4.986   4.798  0.2092  1.1328  0.9575
18618TIP3    H277346   0.457   4.851   4.848 -1.5423 -0.0719 -0.5809
18619TIP3   OH277347   4.471   2.297  10.995 -0.2806 -0.3690  0.1428
18619TIP3    H177348   4.532   2.299  11.069 -1.2638  0.6731  0.9641
18619TIP3    H277349   4.501   2.368  10.937 -0.5983  0.0402  0.4698
18620TIP3   OH277350   6.718   5.638   5.365  0.1237  0.2748  0.3612
18620TIP3    H177351   6.812   5.635   5.350  0.1538  0.9004  0.3765
18620TIP3    H277352   6.707   5.601   5.452  0.4053  0.5760  0.5305
18621TIP3   OH277353   5.974   1.398   2.607  0.1717 -0.4226  0.0188
18621TIP3    H177354   5.919   1.385   2.530  0.0066  0.7593 -0.0732
18621TIP3    H277355   6.031   1.471   2.584 -0.8799  0.9416  1.5351
18622TIP3   OH277356   4.447   0.489  12.654  0.3534  0.3017  0.0364
18622TIP3    H177357   4.529   0.441  12.667  0.1180 -0.6261 -1.6340
18622TIP3    H277358   4.470   0.559  12.592 -0.2778 -0.5870 -1.2640
18623TIP3   OH277359   1.543   4.363  13.119  0.3785  0.2757 -0.1891
18623TIP3    H177360   1.527   4.443  13.169 -0.8156  0.2260 -0.4462
18623TIP3    H277361   1.637   4.349  13.125  0.6103  1.6915 -0.1276
18624TIP3   OH277362   5.913   4.908   5.597 -0.2111  0.6217 -0.1452
18624TIP3    H177363   5.933   4.997   5.628  3.0418 -0.9121  2.9868
18624TIP3    H277364   5.961   4.900   5.515 -0.4722  1.7292 -0.4211
18625TIP3   OH277365   6.281   4.289   6.136  0.2941 -0.0811  0.0439
18625TIP3    H177366   6.364   4.337   6.136  0.5276 -0.4678  0.9933
18625TIP3    H277367   6.274   4.252   6.224 -0.9984  0.1297  0.0583
18626TIP3   OH277368   5.046   3.029  15.396  0.3101 -1.1681 -0.0013
18626TIP3    H177369   4.972   3.072  15.438  0.0520 -2.2627  0.7043
18626TIP3    H277370   5.007   2.971  15.331  0.6431 -0.5140 -0.7985
18627TIP3   OH277371   6.106   4.533   2.199  0.1368  0.1078 -0.1887
18627TIP3    H177372   6.114   4.441   2.222 -0.2622  0.4246  1.2713
18627TIP3    H277373   6.126   4.535   2.105 -3.6563 -2.0336 -1.2590
18628TIP3   OH277374   4.890   3.672   4.872  0.0451 -0.1253 -0.1292
18628TIP3    H177375   4.892   3.668   4.967 -1.5677  0.3070 -0.0403
18628TIP3    H277376   4.870   3.582   4.844  3.8596 -1.0873 -0.3095
18629TIP3   OH277377   3.660   4.953  13.883 -0.4107  0.5896 -0.1650
18629TIP3    H177378   3.596   4.995  13.826  1.1310  0.4094 -2.1015
18629TIP3    H277379   3.745   4.985  13.853  0.7296 -2.5327 -0.6341
18630TIP3   OH277380   6.369   5.823  14.681  0.0363  0.2213  0.0939
18630TIP3    H177381   6.440   5.879  14.712  1.1366 -0.6473 -0.7534
18630TIP3    H277382   6.413   5.744  14.649 -1.1065  0.4339 -2.2488
18631TIP3   OH277383   1.108   6.223   3.694 -0.1049  0.0209  0.3558
18631TIP3    H177384   1.104   6.280   3.618 -0.5360  0.2658  0.5580
18631TIP3    H277385   1.201   6.215   3.713  0.0230 -0.2619 -0.3546
18632TIP3   OH277386   2.331   3.599  16.808  1.0089  0.1131  0.0210
18632TIP3    H177387   2.372   3.683  16.826  0.3601  0.5583 -0.5139
18632TIP3    H277388   2.277   3.582  16.885 -0.7664  1.3940 -0.8675
18633TIP3   OH277389   4.717   0.134  16.034  0.4071  0.1982 -0.3960
18633TIP3    H177390   4.754   0.222  16.033  0.6138  0.1455 -2.6250
18633TIP3    H277391   4.625   0.146  16.011  0.9048 -0.2584 -2.9470
18634TIP3   OH277392   5.723   5.617  17.307 -0.1018  0.2880 -0.1734
18634TIP3    H177393   5.758   5.667  17.234  1.1987  0.1755  0.3345
18634TIP3    H277394   5.673   5.681  17.358 -0.1595  0.5985 -0.6162
18635TIP3   OH277395   0.356   2.916  11.335  0.0123  0.5248 -0.2898
18635TIP3    H177396   0.403   2.976  11.392  0.5244  1.0266 -1.2074
18635TIP3    H277397   0.347   2.964  11.252 -1.4175  0.1391 -0.3837
18636TIP3   OH277398   1.034   5.202  17.548 -0.1073 -0.0416  0.9084
18636TIP3    H177399   0.983   5.192  17.467  0.7679  1.7279  0.0653
18636TIP3    H277400   1.006   5.287  17.583  1.4148  0.4435  1.0214
18637TIP3   OH277401   1.721   5.688   5.328 -0.0419 -0.9553  0.0813
18637TIP3    H177402   1.744   5.623   5.262  2.8306 -0.1386  0.1465
18637TIP3    H277403   1.733   5.772   5.284 -1.3018 -0.4224  0.7193
18638TIP3   OH277404   6.617   3.606  16.885 -0.5544 -0.4999 -0.2081
18638TIP3    H177405   6.592   3.581  16.974 -1.6999  1.5927  0.1154
18638TIP3    H277406   6.617   3.524  16.836 -0.3303 -1.6346  1.6020
18639TIP3   OH277407   3.522   6.249  14.301  0.0003  0.2970 -0.2112
18639TIP3    H177408   3.460   6.318  14.277  1.1569  0.8462 -1.8003
18639TIP3    H277409   3.607   6.294  14.308  0.2056 -0.3354  2.4221
18640TIP3   OH277410   4.900   3.156   3.638 -0.1707  1.0055 -0.2821
18640TIP3    H177411   4.953   3.217   3.689 -0.9959  0.5538  1.1784
18640TIP3    H277412   4.817   3.201   3.625 -0.5612  0.4452  0.2525
18641TIP3   OH277413   5.454   4.735   5.469 -0.1400 -0.4727  0.1632
18641TIP3    H177414   5.505   4.657   5.445  1.0324  0.2120  0.3119
18641TIP3    H277415   5.450   4.786   5.388  0.0381 -0.1843  0.3376
18642TIP3   OH277416   5.110   4.145   5.466  0.2162  0.1276 -0.2294
18642TIP3    H177417   5.153   4.064   5.493  0.4565 -0.1853 -1.4539
18642TIP3    H277418   5.078   4.126   5.377 -1.9968  0.5115  0.4212
18643TIP3   OH277419   4.432   2.694   2.487  0.1228 -0.4185 -0.0125
18643TIP3    H177420   4.518   2.735   2.492  0.3147 -0.7461 -0.5173
18643TIP3    H277421   4.401   2.692   2.577  1.7442 -2.6159  0.5887
18644TIP3   OH277422   4.715   2.756   5.834 -0.4691 -0.0124  0.3247
18644TIP3    H177423   4.663   2.835   5.848 -1.1140 -0.4844  0.6467
18644TIP3    H277424   4.681   2.693   5.897  0.8388 -0.1816  0.9020
18645TIP3   OH277425   6.026   5.046  13.650  0.3584  0.2421 -0.2987
18645TIP3    H177426   5.973   4.971  13.677  0.4518  0.5635  0.8165
18645TIP3    H277427   5.992   5.120  13.700  0.9056  0.7509 -0.6597
18646TIP3   OH277428   2.104   3.950  14.638 -0.2448 -0.1302 -0.2324
18646TIP3    H177429   2.020   3.942  14.684  0.7064 -0.1529  1.5805
18646TIP3    H277430   2.146   3.865  14.650  1.6283  1.0151  2.2612
18647TIP3   OH277431   1.240   6.047  10.830  0.1888  0.0221 -0.0753
18647TIP3    H177432   1.171   6.005  10.778 -1.6381  0.6124  1.7506
18647TIP3    H277433   1.255   6.131  10.786 -0.0744 -0.2154 -0.6313
18648TIP3   OH277434   0.125   3.440   0.446  0.7911 -0.7205 -0.0470
18648TIP3    H177435   0.095   3.377   0.512  1.1848  0.4218  1.2744
18648TIP3    H277436   0.092   3.405   0.363  0.3775 -2.2702  0.7239
18649TIP3   OH277437   4.278   5.672   2.569 -0.7602  0.0360  0.1630
18649TIP3    H177438   4.360   5.691   2.523 -0.4058 -0.0243  0.7593
18649TIP3    H277439   4.305   5.657   2.660 -1.2663 -1.3839  0.0991
18650TIP3   OH277440   4.719   3.864   4.610  0.0172 -0.1177  0.3563
18650TIP3    H177441   4.747   3.954   4.596 -1.3558  0.5903  1.8747
18650TIP3    H277442   4.798   3.819   4.640  0.2416  1.1338  1.7667
18651TIP3   OH277443   0.823   2.178  16.203 -0.8563  0.1760 -0.0345
18651TIP3    H177444   0.861   2.199  16.288  0.1917  1.7502 -0.8422
18651TIP3    H277445   0.861   2.093  16.181  0.2549  0.5679  0.3023
18652TIP3   OH277446   2.163   6.121   5.022 -0.1105 -0.3198  0.2015
18652TIP3    H177447   2.197   6.032   5.014 -0.4811 -0.3714 -0.9966
18652TIP3    H277448   2.070   6.113   4.998 -0.0710  0.4272 -0.2374
18653TIP3   OH277449   0.126   5.536   3.142  0.4713  0.3852  0.2734
18653TIP3    H177450   0.173   5.610   3.180  0.5108  0.2894  0.4083
18653TIP3    H277451   0.161   5.459   3.186  1.3163  0.1666 -0.7443
18654TIP3   OH277452   3.929   3.562  15.646 -0.2410 -0.2780  0.6757
18654TIP3    H177453   3.983   3.534  15.720 -0.7263 -0.1636  1.0759
18654TIP3    H277454   3.915   3.656  15.661 -1.7841 -0.5938  1.3791
18655TIP3   OH277455   0.085   0.689  16.846 -0.1335  0.0045 -0.0039
18655TIP3    H177456   0.163   0.700  16.902 -0.0574 -0.9989  0.0953
18655TIP3    H277457   0.014   0.671  16.907 -0.4452  0.8220 -0.1029
18656TIP3   OH277458   5.001   2.412  14.353 -0.3263  0.5677  0.4010
18656TIP3    H177459   5.033   2.427  14.442  1.7701  1.8393 -0.5087
18656TIP3    H277460   4.957   2.494  14.330 -0.1294  0.5533 -0.0285
18657TIP3   OH277461   4.024   4.950  13.134  0.5571  0.5079 -0.8354
18657TIP3    H177462   3.972   4.874  13.108  1.5741 -0.4268 -0.2045
18657TIP3    H277463   3.988   5.022  13.082 -0.7445 -0.2888 -1.0963
18658TIP3   OH277464   1.202   2.166   6.604  0.7156 -0.7514 -0.1115
18658TIP3    H177465   1.120   2.158   6.556  0.6597 -1.5626  0.0984
18658TIP3    H277466   1.268   2.181   6.537  0.3233  0.5830 -0.2325
18659TIP3   OH277467   4.086   0.110  16.797  0.3783  0.0840  0.3088
18659TIP3    H177468   4.117   0.200  16.787 -1.6499  0.7254 -0.7109
18659TIP3    H277469   4.104   0.089  16.889  0.6203  1.6220  0.6437
18660TIP3   OH277470   1.072   2.434   1.070  0.5043  0.0009  0.2048
18660TIP3    H177471   1.049   2.370   1.138 -1.7947 -0.6511 -1.0876
18660TIP3    H277472   1.032   2.516   1.100 -1.7837 -0.6162 -0.9589
18661TIP3   OH277473   5.143   3.870   4.109 -0.0117 -0.1870  0.4814
18661TIP3    H177474   5.094   3.792   4.135  1.3353 -1.7428 -1.3556
18661TIP3    H277475   5.123   3.882   4.016  1.5200  0.3053  0.1807
18662TIP3   OH277476   1.241   0.970  13.652 -0.9182 -0.2628  0.3751
18662TIP3    H177477   1.241   1.066  13.646 -0.4283 -0.0299  2.8792
18662TIP3    H277478   1.332   0.945  13.637 -0.7932 -0.2003  1.0028
18663TIP3   OH277479   5.915   3.947  16.845  0.2343  0.2844  0.1552
18663TIP3    H177480   5.988   4.007  16.828  0.8709 -0.8648 -1.3764
18663TIP3    H277481   5.935   3.910  16.931  2.4772 -1.3443 -0.9861
18664TIP3   OH277482   5.911   6.229   1.858  0.1767 -0.5115  0.0871
18664TIP3    H177483   5.881   6.283   1.786 -0.6672 -1.7780 -0.5480
18664TIP3    H277484   6.005   6.219   1.844  0.0612 -0.5215 -0.6977
18665TIP3   OH277485   2.017   0.061   4.527  0.0981 -0.3486  0.6660
18665TIP3    H177486   2.000  -0.011   4.588 -0.4035 -0.7122  0.1059
18665TIP3    H277487   2.111   0.078   4.537  0.6033 -2.2280 -0.4219
18666TIP3   OH277488   6.346   4.346  15.102 -0.2912  0.3569  0.0390
18666TIP3    H177489   6.272   4.377  15.049 -2.3354 -3.0961  0.5936
18666TIP3    H277490   6.342   4.398  15.182 -2.2368  0.1620  0.0983
18667TIP3   OH277491   5.375   0.650   3.943  0.2694 -0.2163  0.1103
18667TIP3    H177492   5.426   0.641   3.862 -0.3967  1.5697 -0.5587
18667TIP3    H277493   5.326   0.732   3.931 -0.5805 -0.4235  1.9264
18668TIP3   OH277494   4.876   0.173  17.549 -0.0811  0.3343 -0.2236
18668TIP3    H177495   4.960   0.128  17.559  1.0786  2.4771  0.4011
18668TIP3    H277496   4.870   0.230  17.626 -1.2742  1.4590 -1.1013
18669TIP3   OH277497   1.153   4.157   3.136 -0.0774  0.1178 -0.2273
18669TIP3    H177498   1.141   4.075   3.185 -0.0909  0.6586  0.6978
18669TIP3    H277499   1.235   4.144   3.089  2.7836  1.3800  3.8284
18670TIP3   OH277500   1.754   1.741  14.013  0.1695 -0.2463 -0.0332
18670TIP3    H177501   1.664   1.735  13.982  0.8394 -0.6886 -1.9920
18670TIP3    H277502   1.779   1.832  13.997  1.0086 -0.8244 -2.3848
18671TIP3   OH277503   0.568   3.577   5.560 -0.4294  0.4037 -0.5492
18671TIP3    H177504   0.517   3.526   5.496  1.4524 -1.1024 -0.9253
18671TIP3    H277505   0.654   3.536   5.560  0.9186  3.0435 -0.1358
18672TIP3   OH277506   5.594   0.584   2.752 -0.2453 -0.1469 -0.0576
18672TIP3    H177507   5.518   0.543   2.712 -0.7252  1.3065 -0.7053
18672TIP3    H277508   5.652   0.603   2.678 -0.6193  1.4968  0.0295
18673TIP3   OH277509   0.744   0.222  12.254 -0.1416 -0.0957 -0.0572
18673TIP3    H177510   0.805   0.151  12.236  1.3751  1.4103 -1.2766
18673TIP3    H277511   0.769   0.291  12.192 -2.5939  0.9046 -0.0514
18674TIP3   OH277512   3.712   0.766  16.268 -0.2196  0.5168  0.2098
18674TIP3    H177513   3.736   0.676  16.248 -0.8508  0.0796  1.3102
18674TIP3    H277514   3.793   0.807  16.298 -0.2814 -0.2330  1.4985
18675TIP3   OH277515   1.457   3.696   5.372  0.3209  0.2474  0.0452
18675TIP3    H177516   1.459   3.647   5.290 -0.4751 -0.0236  0.1696
18675TIP3    H277517   1.364   3.717   5.385  0.0743 -1.6217  1.9653
18676TIP3   OH277518   2.811   2.322   3.778 -0.1725 -0.1724 -0.7996
18676TIP3    H177519   2.806   2.274   3.861 -0.2669  0.1763 -0.5970
18676TIP3    H277520   2.876   2.275   3.726 -0.1229 -0.4028 -0.5295
18677TIP3   OH277521   6.262   6.514  15.074  0.0602 -0.2017 -0.6553
18677TIP3    H177522   6.239   6.498  15.166 -1.0047  1.5153 -0.5801
18677TIP3    H277523   6.271   6.426  15.037  3.6325 -1.0598  1.7480
18678TIP3   OH277524   1.286   0.247  14.558 -0.6028  0.0250 -0.1231
18678TIP3    H177525   1.249   0.324  14.515 -0.6496 -0.9322 -1.9253
18678TIP3    H277526   1.224   0.177  14.536  0.4622 -0.9028 -0.2066
18679TIP3   OH277527   5.767   3.131   6.083  0.8805  0.0546  0.3306
18679TIP3    H177528   5.825   3.089   6.146  1.5039  0.2643 -0.0903
18679TIP3    H277529   5.760   3.067   6.011  1.0218  0.2520  0.1408
18680TIP3   OH277530   3.296   5.291  14.722 -0.3307 -0.6159  0.3308
18680TIP3    H177531   3.264   5.201  14.727  1.2730 -1.5444 -3.0151
18680TIP3    H277532   3.380   5.289  14.769 -0.6871 -0.6077  0.9826
18681TIP3   OH277533   4.298   1.419   2.397 -0.4161  0.5440  0.6548
18681TIP3    H177534   4.360   1.416   2.471  1.3369  1.4410 -0.6944
18681TIP3    H277535   4.243   1.342   2.410 -0.6103  1.0102  3.2318
18682TIP3   OH277536   2.504   6.732  11.717  0.0840 -0.0638 -0.1271
18682TIP3    H177537   2.445   6.807  11.728  0.4788  0.3242 -0.5673
18682TIP3    H277538   2.538   6.742  11.628  1.3527  0.1196  0.3565
18683TIP3   OH277539   6.215   1.360  12.266 -0.5759 -1.0746  0.6147
18683TIP3    H177540   6.179   1.340  12.353 -0.8397  1.0743  1.0689
18683TIP3    H277541   6.182   1.448  12.246  4.9271  1.6723  1.5000
18684TIP3   OH277542   5.707   3.161  14.488  0.6504  0.5679  0.2043
18684TIP3    H177543   5.724   3.249  14.454  0.1087  1.6550  2.5672
18684TIP3    H277544   5.785   3.138  14.537  0.9972 -0.5424 -0.7967
18685TIP3   OH277545   1.809   0.341   3.942 -0.4199 -0.4903 -0.3963
18685TIP3    H177546   1.878   0.306   3.886 -0.2103 -1.1529  0.2636
18685TIP3    H277547   1.834   0.315   4.031 -1.1734 -0.1649 -0.0756
18686TIP3   OH277548   4.534   3.043  17.652 -0.1527 -0.6151 -1.2537
18686TIP3    H177549   4.458   2.987  17.663 -0.7529  0.2402 -0.9416
18686TIP3    H277550   4.597   2.989  17.604 -0.2167 -1.9867  0.0952
18687TIP3   OH277551   0.896   0.002  12.200 -0.1883  0.2436  0.2726
18687TIP3    H177552   0.841  -0.013  12.123 -1.3841  0.9989  0.9416
18687TIP3    H277553   0.867  -0.064  12.263  1.2678 -0.8312 -0.1228
18688TIP3   OH277554   4.106   5.175   5.994 -0.1414 -0.0238 -0.4875
18688TIP3    H177555   4.192   5.137   5.978 -0.5426 -0.8811 -0.6515
18688TIP3    H277556   4.049   5.100   6.009 -0.6353  0.5862  0.7855
18689TIP3   OH277557   4.543   2.396   3.930 -0.4027 -0.2347 -0.6157
18689TIP3    H177558   4.549   2.489   3.905 -0.3658  0.9385  3.1327
18689TIP3    H277559   4.634   2.366   3.933 -0.1563  0.5480  0.9304
18690TIP3   OH277560   6.184   3.784  15.855  0.2763  0.3476  0.1945
18690TIP3    H177561   6.097   3.744  15.858  0.7607 -0.7365 -0.0851
18690TIP3    H277562   6.237   3.723  15.805  0.7338  1.9356 -1.3707
18691TIP3   OH277563   2.426   2.010   2.131 -0.8090 -0.6328 -0.0947
18691TIP3    H177564   2.332   2.001   2.146 -0.7655 -1.0997 -0.0849
18691TIP3    H277565   2.465   1.944   2.189 -0.6190 -2.4590 -2.1568
18692TIP3   OH277566   3.844   3.306  12.931 -0.5768  0.3214  0.3769
18692TIP3    H177567   3.797   3.293  12.849 -0.8260  1.7642  0.2681
18692TIP3    H277568   3.854   3.401  12.938  2.0633  0.0964  0.5360
18693TIP3   OH277569   6.044   1.116  11.647 -0.1757  0.5197  0.4619
18693TIP3    H177570   6.135   1.101  11.673  0.1412  1.3726 -0.0754
18693TIP3    H277571   5.997   1.130  11.729  0.5862  2.0707  0.6771
18694TIP3   OH277572   6.466   1.601  13.802 -0.3192  0.2314  0.4384
18694TIP3    H177573   6.519   1.669  13.760  0.9331 -1.2408 -0.4799
18694TIP3    H277574   6.517   1.575  13.879 -0.1998 -0.4528  0.1379
18695TIP3   OH277575   4.184   0.930   6.490 -0.7091 -0.0801 -0.1736
18695TIP3    H177576   4.238   1.005   6.465  1.4218 -0.9224  1.5959
18695TIP3    H277577   4.099   0.970   6.514  0.4461  1.8565  1.0139
18696TIP3   OH277578   2.234   5.397  13.599  0.0882  0.8013  0.0082
18696TIP3    H177579   2.222   5.489  13.574 -2.1611 -0.0692 -2.4639
18696TIP3    H277580   2.302   5.365  13.540  2.0815  1.1783  1.9621
18697TIP3   OH277581   6.426   5.966   2.958 -0.0023 -0.1860  0.0810
18697TIP3    H177582   6.332   5.974   2.949 -0.0394  0.4858  0.9625
18697TIP3    H277583   6.441   5.958   3.053  0.7743 -0.9352 -0.0868
18698TIP3   OH277584   4.337   5.456  13.700  0.2663  0.6985  0.7413
18698TIP3    H177585   4.287   5.527  13.740 -0.3164  0.0088  1.2630
18698TIP3    H277586   4.274   5.384  13.691  0.4350  0.7239 -1.1807
18699TIP3   OH277587   1.546   1.025  16.501  0.6337  0.6765 -0.6281
18699TIP3    H177588   1.577   1.074  16.578 -0.0569  0.4801 -0.2189
18699TIP3    H277589   1.461   1.064  16.480 -0.0984 -0.5511 -0.0790
18700TIP3   OH277590   4.452   0.668   0.500  0.1679 -0.1186 -0.2928
18700TIP3    H177591   4.494   0.592   0.540 -0.9800 -0.0332  1.1221
18700TIP3    H277592   4.382   0.692   0.560 -1.1077  0.5247 -1.9502
18701TIP3   OH277593   6.679   4.185   1.478  0.3369  0.2030  0.1017
18701TIP3    H177594   6.647   4.270   1.446 -0.5639 -0.3182 -0.4087
18701TIP3    H277595   6.656   4.123   1.409 -0.6504 -0.7667  1.2604
18702TIP3   OH277596   2.348   1.170   0.626 -0.1198  0.0103 -0.3655
18702TIP3    H177597   2.291   1.094   0.613  2.5106 -2.3323  0.9500
18702TIP3    H277598   2.398   1.176   0.544 -0.7524  0.7713 -0.7111
18703TIP3   OH277599   2.853   0.108  13.041  0.2032 -0.1900  0.9801
18703TIP3    H177600   2.861   0.194  13.084  2.9299  0.3603 -0.3770
18703TIP3    H277601   2.934   0.099  12.991 -1.2486 -2.3475 -1.2078
18704TIP3   OH277602   2.130   1.992  16.737  0.1268  0.4420 -0.3277
18704TIP3    H177603   2.209   1.972  16.787  0.4106  1.3467 -0.3988
18704TIP3    H277604   2.071   1.919  16.755 -0.0865  1.1049  1.9483
18705TIP3   OH277605   1.327   1.323  12.580 -0.4358  0.4513 -0.5177
18705TIP3    H177606   1.420   1.300  12.580 -0.0137  1.7868  1.9788
18705TIP3    H277607   1.282   1.244  12.610  0.0722  0.2834 -0.1913
18706TIP3   OH277608   3.783   6.371   5.877  0.0370 -0.1202  0.0142
18706TIP3    H177609   3.782   6.276   5.874 -0.4049 -0.1306  0.3367
18706TIP3    H277610   3.860   6.396   5.825 -1.4836 -0.5497 -2.6630
18707TIP3   OH277611   3.590   2.763   0.309 -0.2432 -0.1589 -0.0417
18707TIP3    H177612   3.673   2.716   0.315 -0.8897 -1.1820  1.5029
18707TIP3    H277613   3.583   2.809   0.393  0.1678  2.4447 -1.3272
18708TIP3   OH277614   1.276   1.715   1.673 -0.1261  0.2791 -0.7363
18708TIP3    H177615   1.369   1.709   1.695 -0.6456 -1.6407  1.3010
18708TIP3    H277616   1.261   1.808   1.658  1.9774  0.7183 -0.4863
18709TIP3   OH277617   0.912   4.384   4.083 -0.0661  0.4224  0.2970
18709TIP3    H177618   0.816   4.385   4.086 -0.0488 -0.4308  2.4888
18709TIP3    H277619   0.940   4.405   4.172  1.7773 -0.0867 -0.1186
18710TIP3   OH277620   1.550   2.019  12.614 -0.0618  0.3805  0.2830
18710TIP3    H177621   1.468   2.025  12.663  0.1114  1.0060  0.4984
18710TIP3    H277622   1.539   1.940  12.559 -1.1321  0.9064 -0.2980
18711TIP3   OH277623   2.784   3.900   0.224  0.8472 -0.0375  0.3941
18711TIP3    H177624   2.772   3.818   0.176  0.2124  0.5188 -0.4368
18711TIP3    H277625   2.729   3.890   0.302  1.3031 -0.6573  0.6445
18712TIP3   OH277626   5.733   6.098  14.184  0.0569 -0.5764  0.2900
18712TIP3    H177627   5.681   6.040  14.240 -0.0014  0.3262  1.1945
18712TIP3    H277628   5.671   6.165  14.155  0.7212  0.6504  1.5709
18713TIP3   OH277629   0.182   1.010  11.984  0.6550 -0.3492 -0.2277
18713TIP3    H177630   0.234   1.070  11.931 -0.7608  0.7365 -0.4559
18713TIP3    H277631   0.175   1.053  12.069  1.7006 -1.3948  0.4139
18714TIP3   OH277632   1.308   2.996   5.751 -0.0774 -0.0695 -0.1453
18714TIP3    H177633   1.286   2.945   5.672  1.4324 -1.3542  0.2169
18714TIP3    H277634   1.277   2.942   5.823 -1.6182  1.1856  0.1926
18715TIP3   OH277635   3.100   4.244  16.362  0.9696 -0.4869 -0.5082
18715TIP3    H177636   3.027   4.259  16.301  1.4934  1.5739 -0.6873
18715TIP3    H277637   3.143   4.329  16.370  2.2765 -1.2368  1.0205
18716TIP3   OH277638   3.905   3.421  14.400  0.2019  0.0285  0.1094
18716TIP3    H177639   3.828   3.395  14.449 -0.0560  0.6058  0.0192
18716TIP3    H277640   3.978   3.377  14.444 -0.0531  0.3620  0.8681
18717TIP3   OH277641   1.300   1.478   4.539 -0.0451 -0.2212 -0.3201
18717TIP3    H177642   1.300   1.398   4.591 -1.0394  0.3526  0.6183
18717TIP3    H277643   1.355   1.539   4.588  0.3545 -0.1841 -0.8040
18718TIP3   OH277644   0.447   3.538   1.775  0.3808 -0.4042 -0.0830
18718TIP3    H177645   0.444   3.632   1.792 -0.1415  0.2157 -3.0406
18718TIP3    H277646   0.357   3.508   1.782  0.2143 -0.2112 -1.1343
18719TIP3   OH277647   2.832   3.829   0.767  0.5893 -0.1898 -0.3343
18719TIP3    H177648   2.771   3.899   0.790  0.2391  0.3462 -2.7232
18719TIP3    H277649   2.776   3.754   0.746  0.9344 -0.9492  1.2839
18720TIP3   OH277650   2.321   4.260  14.395  0.5111 -0.0189 -0.0280
18720TIP3    H177651   2.248   4.311  14.429  1.0138  0.6835  0.0204
18720TIP3    H277652   2.378   4.324  14.352  0.4045 -0.7366 -1.3210
18721TIP3   OH277653   3.767   5.677  12.261 -0.1529  0.1046 -0.1556
18721TIP3    H177654   3.712   5.599  12.260 -0.1310  0.0539  0.9369
18721TIP3    H277655   3.785   5.696  12.169 -1.9925  0.1385 -0.5305
18722TIP3   OH277656   3.696   4.613   4.293 -0.1720 -0.5457  0.1041
18722TIP3    H177657   3.760   4.683   4.279 -2.5076  1.9040  0.7698
18722TIP3    H277658   3.681   4.577   4.206  1.7109 -0.8637 -0.1288
18723TIP3   OH277659   4.640   2.114   4.454  0.2514  0.0146  0.8357
18723TIP3    H177660   4.639   2.137   4.547 -1.7374 -0.3277  0.9484
18723TIP3    H277661   4.584   2.180   4.412 -1.4322 -1.5994  0.4073
18724TIP3   OH277662   6.192   5.157  16.692  0.6827  0.3423  0.1970
18724TIP3    H177663   6.228   5.068  16.680  2.0082  0.6384  1.6921
18724TIP3    H277664   6.105   5.152  16.654  0.1258 -2.0548  1.5486
18725TIP3   OH277665   3.806   4.199   2.867 -0.0859 -0.4065  0.2703
18725TIP3    H177666   3.865   4.257   2.914  0.1823  1.8373 -2.5286
18725TIP3    H277667   3.860   4.123   2.844  0.2424 -0.7109  1.9392
18726TIP3   OH277668   3.749   1.227   4.979 -0.0345 -0.6197  0.9085
18726TIP3    H177669   3.784   1.212   5.067  0.0875 -1.7862  0.6880
18726TIP3    H277670   3.826   1.250   4.927  0.2466 -1.9814  0.6829
18727TIP3   OH277671   2.645   0.079  17.370 -0.4379  0.3845  0.1531
18727TIP3    H177672   2.610   0.130  17.442  0.9731 -1.0867  1.9627
18727TIP3    H277673   2.568   0.043  17.326 -1.3263  1.5401  0.7326
18728TIP3   OH277674   1.454   6.252  11.770  0.1336  0.5392  0.3128
18728TIP3    H177675   1.528   6.312  11.769  0.6888 -0.0664  1.8206
18728TIP3    H277676   1.493   6.166  11.754 -0.3323  0.3023  0.4372
18729TIP3   OH277677   5.094   4.603   2.369  0.2759  0.4412  0.3241
18729TIP3    H177678   5.157   4.663   2.409 -0.4578  1.9209 -0.6074
18729TIP3    H277679   5.012   4.621   2.416 -0.6144  2.2589 -1.7595
18730TIP3   OH277680   2.349   4.784  15.949  0.2316  0.1941 -0.0039
18730TIP3    H177681   2.368   4.760  15.858  0.5256 -2.7141  0.7388
18730TIP3    H277682   2.411   4.855  15.968  1.8728 -0.7804 -1.3764
18731TIP3   OH277683   3.250   6.130   3.722 -0.1275  0.3404 -0.2462
18731TIP3    H177684   3.175   6.118   3.780  0.3072 -2.5392 -0.1613
18731TIP3    H277685   3.258   6.047   3.675  2.8158  0.6517 -0.4701
18732TIP3   OH277686   6.126   2.911   4.153 -0.2591 -0.0879 -0.1781
18732TIP3    H177687   6.114   2.978   4.085 -3.3672 -0.4195 -0.1159
18732TIP3    H277688   6.062   2.933   4.221 -0.7573 -2.5421  0.2757
18733TIP3   OH277689   5.415   3.093   3.691 -0.1470  0.7821 -0.4169
18733TIP3    H177690   5.440   3.019   3.635 -1.3763 -0.3552  0.4655
18733TIP3    H277691   5.453   3.170   3.648 -1.4139  0.0548 -3.0613
18734TIP3   OH277692   2.521   0.158  13.081 -0.1096 -0.2992 -0.0848
18734TIP3    H177693   2.433   0.196  13.081  0.3685  0.8754  0.8695
18734TIP3    H277694   2.545   0.153  13.174  0.6377 -1.1000 -0.3058
18735TIP3   OH277695   5.634   2.277  16.354  0.1358 -0.0086 -0.1905
18735TIP3    H177696   5.560   2.320  16.311 -0.1207 -0.5159 -0.2711
18735TIP3    H277697   5.605   2.262  16.444 -0.1039 -0.7586 -0.3816
18736TIP3   OH277698   5.163   1.147  12.306 -0.2902 -0.2436  0.1168
18736TIP3    H177699   5.141   1.238  12.286 -0.2575 -0.6493 -2.0615
18736TIP3    H277700   5.218   1.152  12.384  0.6237  1.7203 -0.5907
18737TIP3   OH277701   0.153   2.812  15.968  0.2633 -0.0093  0.3710
18737TIP3    H177702   0.203   2.893  15.964 -0.4384  0.4064 -0.1255
18737TIP3    H277703   0.215   2.744  15.944  0.7859  0.4109  0.5224
18738TIP3   OH277704   1.596   1.422   3.668  0.1328  0.0693  0.3909
18738TIP3    H177705   1.611   1.446   3.576 -0.3534  0.2918  0.3695
18738TIP3    H277706   1.567   1.331   3.665 -2.5608  0.8631  0.0787
18739TIP3   OH277707   3.653   2.444   2.481  0.3570 -0.3148  0.2031
18739TIP3    H177708   3.636   2.361   2.436  0.6293  0.4722 -1.4172
18739TIP3    H277709   3.638   2.424   2.573 -0.3372 -1.9696 -0.2222
18740TIP3   OH277710   6.312   5.862   2.358  0.2525  0.1460 -0.1568
18740TIP3    H177711   6.272   5.784   2.395 -0.5201  0.0625 -1.1186
18740TIP3    H277712   6.267   5.935   2.401 -0.9199  0.0523 -1.1403
18741TIP3   OH277713   2.320   4.824  12.589 -0.1586 -0.1481  0.7590
18741TIP3    H177714   2.298   4.913  12.617  0.9620 -0.5044  2.9919
18741TIP3    H277715   2.402   4.833  12.541 -0.1036  0.0281  0.8871
18742TIP3   OH277716   5.281   5.363  14.401 -0.2889 -0.5782  0.2637
18742TIP3    H177717   5.342   5.330  14.467 -0.6019 -1.8567 -0.0512
18742TIP3    H277718   5.197   5.322  14.424 -1.4024  2.1397  1.4614
18743TIP3   OH277719   4.557   0.736  11.399  0.2560 -0.1147  0.0666
18743TIP3    H177720   4.491   0.717  11.332 -0.9040  1.2089  0.7518
18743TIP3    H277721   4.634   0.763  11.350 -0.3863  0.2942 -0.7555
18744TIP3   OH277722   6.128   2.241  12.976 -0.1939  0.0611 -0.1214
18744TIP3    H177723   6.221   2.253  12.960 -0.4518 -0.0424 -1.9911
18744TIP3    H277724   6.095   2.328  12.999  0.0241  0.5522 -1.5630
18745TIP3   OH277725   6.604   3.590   6.219  0.1368 -0.6099  0.5825
18745TIP3    H177726   6.635   3.500   6.232  1.0653 -0.1705  1.6101
18745TIP3    H277727   6.517   3.591   6.259 -0.8209 -1.5672 -1.3321
18746TIP3   OH277728   6.723   1.618  13.623 -0.6176  0.7514  0.4291
18746TIP3    H177729   6.690   1.649  13.539  1.1119  2.6579  0.3598
18746TIP3    H277730   6.723   1.523  13.616 -0.2579  0.8693 -1.8506
18747TIP3   OH277731   0.603   3.067  11.085 -0.5529 -0.1902  0.0856
18747TIP3    H177732   0.508   3.068  11.079 -0.6015 -1.2268  0.6034
18747TIP3    H277733   0.630   3.149  11.044 -1.5859 -0.5229 -1.3167
18748TIP3   OH277734   2.505   6.300   4.679  0.1030  0.2672 -0.5694
18748TIP3    H177735   2.547   6.335   4.758  2.0528 -0.1421 -1.3617
18748TIP3    H277736   2.432   6.249   4.712  0.2152  0.9949  0.9058
18749TIP3   OH277737   3.466   0.449   3.943  0.3654  0.3137 -0.4637
18749TIP3    H177738   3.434   0.508   4.012  0.5146  1.8290 -1.6241
18749TIP3    H277739   3.388   0.424   3.894  0.3280 -0.2860 -0.0963
18750TIP3   OH277740   2.387   4.310  17.655 -0.1100 -0.2755 -0.1839
18750TIP3    H177741   2.364   4.384  17.598  2.2924  0.0549 -0.8324
18750TIP3    H277742   2.365   4.233  17.603 -0.4158  0.0039 -0.4796
18751TIP3   OH277743   1.398   6.201   0.921  0.0022 -0.2694  0.2354
18751TIP3    H177744   1.483   6.161   0.902  1.5035  2.4165  0.8106
18751TIP3    H277745   1.374   6.245   0.839  0.3294  0.8946  0.7496
18752TIP3   OH277746   6.279   6.031  11.867 -0.2488  0.4560 -0.6240
18752TIP3    H177747   6.339   5.989  11.805  1.9388  1.4450  0.6750
18752TIP3    H277748   6.311   6.121  11.874 -0.6040  0.4718  1.6365
18753TIP3   OH277749   5.128   2.687  11.839 -0.2864  0.3868  0.3139
18753TIP3    H177750   5.217   2.719  11.857 -0.7718  2.4492 -0.6391
18753TIP3    H277751   5.140   2.620  11.772  0.6765 -0.6912  1.5043
18754TIP3   OH277752   2.513   5.844  10.543 -0.1196  0.0671  0.1745
18754TIP3    H177753   2.450   5.899  10.589  0.9311  0.7779  0.8120
18754TIP3    H277754   2.557   5.794  10.611  0.7618  0.3973 -0.1343
18755TIP3   OH277755   4.604   3.459   4.094  0.0857  0.1457  0.2831
18755TIP3    H177756   4.638   3.380   4.053  1.6623  1.1675 -0.4835
18755TIP3    H277757   4.578   3.514   4.020 -0.2614  0.6564  0.7760
18756TIP3   OH277758   3.874   5.823   4.385  0.1143  0.3215 -0.5154
18756TIP3    H177759   3.788   5.851   4.418  0.2219 -0.7210  0.7652
18756TIP3    H277760   3.864   5.821   4.290 -1.7844 -1.1958 -0.3608
18757TIP3   OH277761   2.307   5.430   2.748 -0.5933 -0.3928 -0.5273
18757TIP3    H177762   2.269   5.349   2.783 -0.9427  1.0716  2.9126
18757TIP3    H277763   2.263   5.500   2.797  1.2100  1.7700 -1.8284
18758TIP3   OH277764   0.822   5.864   1.414  0.2171 -0.4635 -0.0423
18758TIP3    H177765   0.846   5.849   1.505  1.3095  0.6506 -0.1288
18758TIP3    H277766   0.900   5.840   1.364 -0.4845 -1.3978 -0.7298
18759TIP3   OH277767   6.532   0.541   3.871 -0.1268 -0.1724  0.0192
18759TIP3    H177768   6.550   0.609   3.806  0.7077  0.3755  0.8154
18759TIP3    H277769   6.443   0.558   3.900 -0.2096  0.0777 -0.3692
18760TIP3   OH277770   1.466   2.060  14.248 -0.5456 -0.1182 -0.4024
18760TIP3    H177771   1.404   1.988  14.238 -1.3757  0.6442 -0.8373
18760TIP3    H277772   1.548   2.017  14.273 -0.9732 -1.2287 -0.8368
18761TIP3   OH277773   0.228   6.211   4.949  0.4185 -0.1198  0.3240
18761TIP3    H177774   0.247   6.247   4.862  1.2905 -2.0428 -0.3497
18761TIP3    H277775   0.133   6.209   4.954  0.3038 -1.4215 -1.2963
18762TIP3   OH277776   2.514   1.401   4.307 -0.1855  0.2909  0.3087
18762TIP3    H177777   2.547   1.389   4.218 -0.8047  0.9002 -0.0063
18762TIP3    H277778   2.424   1.370   4.304  0.1600 -0.8497  1.0354
18763TIP3   OH277779   6.570   1.441   6.113 -0.1291 -0.2734  0.5362
18763TIP3    H177780   6.639   1.490   6.069  1.4471 -1.7219  1.2860
18763TIP3    H277781   6.605   1.422   6.200 -1.6512 -0.6770  1.1047
18764TIP3   OH277782   1.075   1.580  16.663 -0.2517 -0.0539 -0.0644
18764TIP3    H177783   1.067   1.672  16.638  2.0711  0.4243  0.7808
18764TIP3    H277784   1.155   1.550  16.621 -0.5943 -1.5167  0.2538
18765TIP3   OH277785   1.071   4.120   3.400  0.1429 -0.7170 -0.5413
18765TIP3    H177786   1.157   4.112   3.358  0.2439 -2.6844 -0.0752
18765TIP3    H277787   1.052   4.214   3.400  0.5893 -0.5010 -4.0369
18766TIP3   OH277788   4.578   3.623   4.754 -0.2249  0.1066  0.4548
18766TIP3    H177789   4.671   3.614   4.729 -0.0254  1.3273  0.7222
18766TIP3    H277790   4.580   3.669   4.838 -1.1120  1.4470 -0.2257
18767TIP3   OH277791   2.077   5.877   2.988  0.5909  0.4029  0.3155
18767TIP3    H177792   2.122   5.961   2.984  1.3942 -0.0098  0.3835
18767TIP3    H277793   2.061   5.854   2.896 -0.4630  1.0514  0.3241
18768TIP3   OH277794   0.285   4.330  14.487 -0.7683  0.2616 -0.3801
18768TIP3    H177795   0.331   4.399  14.439  0.4756  1.1777  1.9706
18768TIP3    H277796   0.229   4.376  14.548 -0.0002 -0.7712  1.1615
18769TIP3   OH277797   2.664   4.686  10.723  0.5366 -0.7495 -0.0965
18769TIP3    H177798   2.695   4.598  10.746  1.5367 -0.6444 -0.9378
18769TIP3    H277799   2.570   4.683  10.738  0.6615 -1.7182  0.6455
18770TIP3   OH277800   2.911   4.660  13.323 -0.6333  0.1318 -0.6567
18770TIP3    H177801   2.883   4.573  13.349 -1.0235  0.3815 -0.2288
18770TIP3    H277802   2.845   4.688  13.259 -0.4770  0.0903 -0.8367
18771TIP3   OH277803   3.613   0.958   1.678 -0.4856 -0.3350 -0.1990
18771TIP3    H177804   3.529   1.000   1.659 -0.2850 -0.5876 -1.6970
18771TIP3    H277805   3.616   0.881   1.622  0.6540 -0.4539 -0.0083
18772TIP3   OH277806   5.716   4.233  13.429 -0.0491 -0.3225  0.1741
18772TIP3    H177807   5.635   4.193  13.398 -0.3732 -1.4345  2.2293
18772TIP3    H277808   5.786   4.181  13.388 -0.3846  0.0008 -0.8182
18773TIP3   OH277809   0.975   3.362   4.853  0.0318  0.1774  0.4235
18773TIP3    H177810   0.930   3.374   4.937 -0.4587  1.7143 -0.0422
18773TIP3    H277811   1.032   3.438   4.844 -0.5923  0.4992 -1.0603
18774TIP3   OH277812   2.348   3.359   3.880  0.0056 -0.3292  0.4743
18774TIP3    H177813   2.342   3.408   3.798 -2.3452  2.2602  2.0107
18774TIP3    H277814   2.434   3.383   3.916  0.7081 -0.8352 -0.7970
18775TIP3   OH277815   4.555   3.297   0.882 -0.2465  0.1740 -0.1002
18775TIP3    H177816   4.582   3.341   0.802 -1.2469  1.2485  0.1280
18775TIP3    H277817   4.631   3.243   0.907  0.0915 -0.1420 -1.7195
18776TIP3   OH277818   2.388   2.735   1.200  0.0380  0.2091 -0.2056
18776TIP3    H177819   2.384   2.756   1.293 -0.9300 -1.9955  0.3002
18776TIP3    H277820   2.299   2.709   1.178  0.2443  0.7529 -1.7816
18777TIP3   OH277821   3.382   0.856   2.901 -0.3759 -0.3057 -0.0551
18777TIP3    H177822   3.388   0.767   2.866  0.5643 -0.3715  0.2445
18777TIP3    H277823   3.386   0.912   2.824 -0.4426 -0.5057 -0.2060
18778TIP3   OH277824   1.847   5.474   6.150  0.1243  0.1813  0.4174
18778TIP3    H177825   1.932   5.479   6.195 -0.5042  1.1733  1.5630
18778TIP3    H277826   1.783   5.465   6.221 -0.7112 -0.9370 -0.4514
18779TIP3   OH277827   3.226   1.306   2.758 -0.2750 -0.3558  0.0764
18779TIP3    H177828   3.207   1.235   2.697  0.3896  0.3879 -1.0224
18779TIP3    H277829   3.234   1.262   2.843  0.8427 -1.7158 -0.6869
18780TIP3   OH277830   6.269   6.703  15.484  0.0266  0.0681  0.6043
18780TIP3    H177831   6.182   6.665  15.474  0.1735 -0.0452 -0.3098
18780TIP3    H277832   6.292   6.687  15.576  0.1925 -2.2724  0.1995
18781TIP3   OH277833   0.480   3.589  11.409  0.0406 -0.3646  0.0104
18781TIP3    H177834   0.485   3.637  11.327 -0.1349  2.4904  1.5350
18781TIP3    H277835   0.390   3.598  11.438  0.1546 -1.1200  0.6516
18782TIP3   OH277836   2.820   6.401   1.447 -0.6047 -0.2031 -0.4008
18782TIP3    H177837   2.875   6.398   1.369  1.1186  1.7417  0.6379
18782TIP3    H277838   2.881   6.409   1.520 -2.2047 -0.1053  0.9988
18783TIP3   OH277839   1.762   2.164   1.106 -0.1836 -0.2496 -0.8210
18783TIP3    H177840   1.792   2.170   1.015 -0.0005 -1.1507 -0.8325
18783TIP3    H277841   1.668   2.150   1.098 -0.4035  1.0854 -0.8221
18784TIP3   OH277842   6.546   6.572   3.693 -0.2716 -0.9814 -0.1505
18784TIP3    H177843   6.497   6.500   3.731 -0.9707  0.3420  1.6017
18784TIP3    H277844   6.598   6.607   3.765 -0.1285  0.3972 -0.8796
18785TIP3   OH277845   3.975   5.962  17.456 -0.3192  0.3908 -0.1827
18785TIP3    H177846   4.007   5.909  17.382 -2.0473  0.9393 -1.3670
18785TIP3    H277847   3.961   6.049  17.420  0.1082  1.0451  1.1504
18786TIP3   OH277848   3.595   6.443   4.204 -0.4291  0.3556 -0.0487
18786TIP3    H177849   3.524   6.502   4.179 -2.1466 -0.3704  2.5998
18786TIP3    H277850   3.637   6.487   4.279  2.4256  1.0469 -1.9152
18787TIP3   OH277851   3.486   4.831   0.159 -0.1180  0.4979 -0.1468
18787TIP3    H177852   3.454   4.914   0.123 -0.0959  0.3166 -0.5946
18787TIP3    H277853   3.557   4.855   0.218 -0.4317  0.8321  0.0994
18788TIP3   OH277854   0.751   0.216  17.397 -0.0641 -0.6280 -0.1073
18788TIP3    H177855   0.811   0.284  17.429 -0.5581 -0.2428  0.0315
18788TIP3    H277856   0.758   0.146  17.461 -1.0305  0.1330  0.8823
18789TIP3   OH277857   6.530   6.672  16.188  0.0311  0.2349  0.3340
18789TIP3    H177858   6.499   6.615  16.259  0.3407  1.7979  1.8021
18789TIP3    H277859   6.485   6.755  16.203 -1.9176 -0.0856 -2.9122
18790TIP3   OH277860   6.500   0.977  17.381 -0.5584 -0.2395 -0.2304
18790TIP3    H177861   6.509   1.022  17.465  1.6826 -1.7071  0.4144
18790TIP3    H277862   6.471   0.889  17.403  0.2752 -0.7177 -0.9300
18791TIP3   OH277863   3.196   1.831  17.471  0.1050  0.1111  1.0518
18791TIP3    H177864   3.139   1.908  17.478  0.0516  0.2004 -0.2425
18791TIP3    H277865   3.284   1.867  17.465  0.1669  0.0260  1.4019
18792TIP3   OH277866   6.298   1.612   2.338 -0.3569  0.2185 -0.0391
18792TIP3    H177867   6.388   1.584   2.355 -0.4608  0.7675  1.5822
18792TIP3    H277868   6.266   1.642   2.423 -2.3703 -0.7719 -0.3934
18793TIP3   OH277869   5.432   0.504  14.637  0.3370  0.6811  0.2642
18793TIP3    H177870   5.520   0.474  14.661  0.2038  0.0908  0.0435
18793TIP3    H277871   5.383   0.499  14.719 -0.1364 -1.4100 -0.0851
18794TIP3   OH277872   1.487   0.725   0.053 -0.2948  0.2645  0.6501
18794TIP3    H177873   1.475   0.797   0.114 -0.4095  1.5959 -0.8761
18794TIP3    H277874   1.488   0.766  -0.033  0.6476 -1.4517 -0.2174
18795TIP3   OH277875   5.174   4.985   5.083  0.5047  0.1018 -0.6247
18795TIP3    H177876   5.152   4.922   5.151  0.0919  2.3342  1.4619
18795TIP3    H277877   5.093   4.997   5.034 -0.2220  0.9455  0.7119
18796TIP3   OH277878   5.418   3.424  12.684 -0.0828 -0.1640 -0.6253
18796TIP3    H177879   5.494   3.476  12.711  2.1267 -2.4169 -2.0790
18796TIP3    H277880   5.351   3.489  12.662  0.8271  1.8956  2.1050
18797TIP3   OH277881   4.206   6.016   3.943 -0.3586 -0.2392 -0.1732
18797TIP3    H177882   4.158   5.950   3.993 -1.3173 -0.5700 -1.4891
18797TIP3    H277883   4.138   6.073   3.907  0.3395  0.2801 -0.6966
18798TIP3   OH277884   4.588   0.106   1.834 -0.1897  0.3129 -0.2702
18798TIP3    H177885   4.574   0.183   1.779 -1.6596  0.9105  0.8843
18798TIP3    H277886   4.650   0.053   1.784  1.8983  2.7980 -0.5094
18799TIP3   OH277887   6.322   4.725  14.598  0.0903 -0.2807 -0.7501
18799TIP3    H177888   6.309   4.681  14.514 -3.2516  1.3675 -1.2487
18799TIP3    H277889   6.281   4.667  14.662 -0.5434  0.0959 -0.8051
18800TIP3   OH277890   3.693   0.946  16.644 -0.1530  0.0352  0.5239
18800TIP3    H177891   3.658   0.980  16.562 -2.0747  0.8365  1.6178
18800TIP3    H277892   3.723   1.025  16.691  1.4792 -0.4647  0.4005
18801TIP3   OH277893   5.563   4.691   7.101 -0.2160 -0.2992  0.0084
18801TIP3    H177894   5.486   4.667   7.153 -1.2476  0.5678 -1.0389
18801TIP3    H277895   5.530   4.756   7.039  1.7366  1.4137  0.6437
18802TIP3   OH277896   0.265   0.326   1.133 -0.1421  0.3200 -0.3030
18802TIP3    H177897   0.177   0.296   1.155 -0.6361  2.0658  0.1983
18802TIP3    H277898   0.319   0.246   1.137 -1.2849 -0.4098  1.4948
18803TIP3   OH277899   4.223   4.210   5.833  0.3447  0.1626  0.0386
18803TIP3    H177900   4.244   4.243   5.746 -0.6561  0.8677  0.0528
18803TIP3    H277901   4.162   4.138   5.818  2.3869 -1.6978  0.0154
18804TIP3   OH277902   2.249   6.556   1.308 -0.3230 -0.2045  0.1960
18804TIP3    H177903   2.279   6.549   1.217 -1.3950  0.6576 -0.2546
18804TIP3    H277904   2.241   6.651   1.323  0.4379 -0.3099  1.4074
18805TIP3   OH277905   1.300   2.879   4.246 -0.2767 -0.2819  0.3394
18805TIP3    H177906   1.319   2.947   4.310 -2.6258  1.2208 -0.4299
18805TIP3    H277907   1.207   2.861   4.257 -0.1543 -1.9113 -0.8730
18806TIP3   OH277908   4.703   3.731  13.198  0.0444 -0.0628 -0.4455
18806TIP3    H177909   4.766   3.756  13.130  0.2005 -0.4633 -0.4509
18806TIP3    H277910   4.680   3.813  13.241  1.4436 -0.0377  0.3093
18807TIP3   OH277911   0.833   4.120   5.864 -0.5559  0.3178  0.7303
18807TIP3    H177912   0.880   4.192   5.822  0.3620  1.6128  3.6856
18807TIP3    H277913   0.900   4.053   5.880 -1.0224 -0.4304 -0.3024
18808TIP3   OH277914   0.651   1.893  14.473 -0.6240 -0.1615 -0.1732
18808TIP3    H177915   0.628   1.819  14.416 -0.4924 -1.3299  1.2120
18808TIP3    H277916   0.738   1.871  14.507 -0.0586  1.2350 -0.6403
18809TIP3   OH277917   1.026   5.477   2.226  0.3941  0.2861 -0.1429
18809TIP3    H177918   0.948   5.523   2.195  1.0833 -0.6733 -3.8237
18809TIP3    H277919   0.993   5.415   2.291 -1.1513  2.8385  1.7193
18810TIP3   OH277920   0.621   5.099   5.992  0.0596  0.3578  0.3525
18810TIP3    H177921   0.709   5.078   6.022  0.5975  1.0583 -0.6495
18810TIP3    H277922   0.575   5.015   5.990  0.6178  0.0251  1.1445
18811TIP3   OH277923   1.416   4.151  13.929 -0.2682 -0.4141  0.0759
18811TIP3    H177924   1.396   4.242  13.950  1.1223 -0.2683  0.8934
18811TIP3    H277925   1.454   4.115  14.010  0.1872 -1.4072 -0.5553
18812TIP3   OH277926   6.446   0.992   3.581  0.2405  0.0344 -0.2543
18812TIP3    H177927   6.502   1.043   3.522  0.4927  1.0626  0.8423
18812TIP3    H277928   6.426   0.912   3.532  3.2376 -0.7106 -0.4656
18813TIP3   OH277929   5.488   2.729   2.285 -0.8235 -0.3882  0.5714
18813TIP3    H177930   5.530   2.669   2.223  0.5819 -0.4116  1.5137
18813TIP3    H277931   5.396   2.703   2.284 -0.6099 -1.1762 -0.6040
18814TIP3   OH277932   6.447   0.681   0.650 -0.3380  0.1777 -0.0591
18814TIP3    H177933   6.529   0.709   0.610 -0.6619  1.2068 -0.0399
18814TIP3    H277934   6.468   0.669   0.742 -0.1279  0.1046 -0.1159
18815TIP3   OH277935   6.219   1.652  13.559  0.3870 -0.2737 -0.0419
18815TIP3    H177936   6.245   1.569  13.519  2.9059  0.8996 -1.0748
18815TIP3    H277937   6.294   1.709  13.546 -1.0234  2.0115  1.1874
18816TIP3   OH277938   4.814   3.194   6.178 -0.0302  0.4332  0.0067
18816TIP3    H177939   4.755   3.158   6.244  0.3111  0.4961  0.3494
18816TIP3    H277940   4.878   3.125   6.162 -1.1592 -0.2959 -1.6133
18817TIP3   OH277941   3.619   1.906   2.618 -0.3871  0.8567 -0.1371
18817TIP3    H177942   3.554   1.836   2.614 -0.3602  0.7789 -4.1987
18817TIP3    H277943   3.693   1.872   2.567 -0.3565  3.6692 -2.1929
18818TIP3   OH277944   2.094   6.433   3.725 -0.8828 -0.0472 -0.1150
18818TIP3    H177945   2.056   6.435   3.813  3.6319  0.9992  2.1050
18818TIP3    H277946   2.126   6.344   3.715 -0.4621  0.1118 -0.2050
18819TIP3   OH277947   5.674   1.895  12.956  0.5221 -0.0168  0.3637
18819TIP3    H177948   5.733   1.912  12.883 -0.8292  0.0564 -0.7455
18819TIP3    H277949   5.629   1.978  12.972 -0.5555 -0.5051  0.0009
18820TIP3   OH277950   0.293   0.945   1.622 -0.6942 -0.0247 -0.1058
18820TIP3    H177951   0.235   0.987   1.685 -1.1442  0.8166 -1.0503
18820TIP3    H277952   0.262   0.854   1.618  1.1469 -0.9305  2.9577
18821TIP3   OH277953   4.618   1.094   0.889  0.3114 -0.3162  0.2017
18821TIP3    H177954   4.595   1.007   0.856  1.8298 -0.7488  0.2026
18821TIP3    H277955   4.633   1.081   0.982 -1.3717  0.3694  0.5959
18822TIP3   OH277956   6.153   4.572  17.121  0.3249 -0.4344 -0.1951
18822TIP3    H177957   6.235   4.526  17.101  0.6548  0.1126 -0.1044
18822TIP3    H277958   6.158   4.653  17.072  0.5508  0.3243  1.0368
18823TIP3   OH277959   3.733   1.522  13.835  0.1407 -0.1420  0.1079
18823TIP3    H177960   3.684   1.487  13.761  1.2481  0.4197 -0.9156
18823TIP3    H277961   3.751   1.613  13.811  0.8356 -0.0598  0.8990
18824TIP3   OH277962   3.185   6.145  13.709  0.1270 -0.2073  0.4545
18824TIP3    H177963   3.270   6.101  13.707  0.7817  0.8531  2.4485
18824TIP3    H277964   3.131   6.090  13.766 -0.6986 -1.0824 -1.1057
18825TIP3   OH277965   2.207   1.402  12.289  0.4638  0.2583  0.2407
18825TIP3    H177966   2.299   1.383  12.271  0.6331  1.6892 -0.6255
18825TIP3    H277967   2.159   1.342  12.231  0.8962  0.5815 -0.4683
18826TIP3   OH277968   1.390   2.204   2.468  0.2004  0.1955 -0.0974
18826TIP3    H177969   1.377   2.289   2.510  0.9248  0.1344  0.2732
18826TIP3    H277970   1.485   2.191   2.471  0.1001 -0.5840 -0.2312
18827TIP3   OH277971   3.627   0.544  17.083 -0.2633  0.4158  0.6066
18827TIP3    H177972   3.547   0.557  17.134 -0.3398 -0.8699  0.8320
18827TIP3    H277973   3.654   0.455  17.103 -1.0570 -0.6855 -2.6288
18828TIP3   OH277974   1.643   6.638  16.375  0.1568 -0.1693  0.6544
18828TIP3    H177975   1.701   6.631  16.451 -1.1285 -0.6438  1.6338
18828TIP3    H277976   1.561   6.599  16.404 -0.7058  0.5945 -0.6497
18829TIP3   OH277977   1.828   1.039  12.004 -0.3006 -0.7167 -0.1130
18829TIP3    H177978   1.880   1.013  11.929  0.1644 -0.5942  0.1632
18829TIP3    H277979   1.822   0.961  12.058 -0.1040 -0.6385  0.0245
18830TIP3   OH277980   0.542   1.607   0.561 -0.1934 -0.3093  0.4338
18830TIP3    H177981   0.630   1.633   0.588  0.9742 -0.4733 -2.7882
18830TIP3    H277982   0.500   1.688   0.533  0.6973 -0.7119 -2.3769
18831TIP3   OH277983   1.211   5.492  16.749 -0.0407 -0.5806  0.4123
18831TIP3    H177984   1.196   5.399  16.762  0.4195 -0.5576  1.2106
18831TIP3    H277985   1.306   5.499  16.735 -0.1946 -0.3243 -0.5792
18832TIP3   OH277986   0.941   3.426  12.302  0.3041  0.3161 -0.1063
18832TIP3    H177987   1.019   3.436  12.248  1.2311 -0.5789  1.0050
18832TIP3    H277988   0.922   3.515  12.333  0.3449  0.6746 -1.0909
18833TIP3   OH277989   5.273   5.787  16.440 -0.1553 -0.7445  0.1874
18833TIP3    H177990   5.320   5.720  16.391 -0.3458  0.3742 -1.6160
18833TIP3    H277991   5.285   5.868  16.390 -3.7520 -0.3251 -0.2905
18834TIP3   OH277992   2.214   5.217  12.508  0.2030  0.0688  0.2989
18834TIP3    H177993   2.237   5.178  12.423 -1.4288  2.3191 -1.3038
18834TIP3    H277994   2.161   5.150  12.551  0.1024 -0.6949 -0.9550
18835TIP3   OH277995   5.377   1.381   2.318 -0.1474  0.5452 -0.9263
18835TIP3    H177996   5.395   1.382   2.412  3.2950  0.7141 -1.4837
18835TIP3    H277997   5.383   1.289   2.293 -1.4380  0.4523 -0.9742
18836TIP3   OH277998   1.026   0.533  14.729  0.3970 -0.1957  0.1832
18836TIP3    H177999   1.044   0.610  14.676  0.0688 -0.6506 -0.6149
18836TIP3    H278000   0.971   0.565  14.800 -0.8772  0.0948 -0.8866
18837TIP3   OH278001   5.936   2.954  10.995  0.0966  0.1085  0.2583
18837TIP3    H178002   6.009   2.945  10.933  0.2856 -1.5104  0.6643
18837TIP3    H278003   5.964   3.023  11.055  0.8169  0.2739 -0.2545
18838TIP3   OH278004   6.352   1.704  12.924 -0.3858 -0.3092  0.3525
18838TIP3    H178005   6.340   1.783  12.977 -1.5352  0.2399 -0.7076
18838TIP3    H278006   6.435   1.718  12.879 -0.3348  0.0592  0.5553
18839TIP3   OH278007   0.323   4.220   4.329  0.2783 -0.3644 -0.3350
18839TIP3    H178008   0.413   4.205   4.298  0.2683  1.4594 -1.4457
18839TIP3    H278009   0.332   4.235   4.423  1.2559  0.4237 -0.5339
18840TIP3   OH278010   3.554   2.188   2.029 -0.1383 -0.1811 -0.4713
18840TIP3    H178011   3.538   2.278   2.057 -1.6790 -0.7107  0.4484
18840TIP3    H278012   3.494   2.175   1.956  2.6910  0.6593 -3.1494
18841TIP3   OH278013   4.352   2.691   0.057  0.4910 -0.6250  0.4409
18841TIP3    H178014   4.288   2.630   0.021  1.5744 -0.4659 -1.8684
18841TIP3    H278015   4.416   2.636   0.102  1.4269 -1.2770 -1.5762
18842TIP3   OH278016   3.221   5.013  15.508 -0.3662 -0.6278  0.0382
18842TIP3    H178017   3.173   4.933  15.483  0.0466 -0.6316 -0.7639
18842TIP3    H278018   3.269   4.988  15.587  0.0926 -1.3096 -0.4444
18843TIP3   OH278019   5.342   1.244  16.186 -0.4708  0.4632  0.3517
18843TIP3    H178020   5.381   1.322  16.226 -1.1348  0.6799  0.6013
18843TIP3    H278021   5.356   1.255  16.092 -1.9864  1.7141  0.2262
18844TIP3   OH278022   1.372   0.778  17.330  0.0786 -0.7529  0.2265
18844TIP3    H178023   1.450   0.806  17.378  0.8323  0.0784 -1.3963
18844TIP3    H278024   1.349   0.853  17.275 -1.4169 -1.2645  0.1057
18845TIP3   OH278025   3.389   5.957   3.959  0.4779 -0.5206  0.3692
18845TIP3    H178026   3.375   6.048   3.987 -1.3033 -0.5897 -0.1527
18845TIP3    H278027   3.471   5.932   4.001  1.9620  1.8834 -0.8646
18846TIP3   OH278028   1.872   0.300  14.262  0.6386  0.0380 -0.6018
18846TIP3    H178029   1.887   0.207  14.276 -0.7218 -0.1167 -0.0423
18846TIP3    H278030   1.834   0.331  14.344  0.0226  0.8371 -1.1713
18847TIP3   OH278031   1.635   6.459  12.868  0.0515  0.1375 -0.6850
18847TIP3    H178032   1.676   6.519  12.929 -1.9100  0.0501  0.8216
18847TIP3    H278033   1.693   6.383  12.866  0.5263  0.4525  0.5018
18848TIP3   OH278034   3.179   0.145  15.773 -0.3916 -0.2763  0.1772
18848TIP3    H178035   3.142   0.208  15.835 -1.1368 -1.2838  0.7842
18848TIP3    H278036   3.131   0.160  15.691 -0.2076  0.2756  0.1678
18849TIP3   OH278037   6.562   1.017  12.080 -0.2780  0.6077  0.2928
18849TIP3    H178038   6.468   1.004  12.090  0.0418 -1.7595  0.6977
18849TIP3    H278039   6.598   1.000  12.167  0.8303 -2.4273 -0.6281
18850TIP3   OH278040   6.307   6.033   4.578  0.1363  0.6804  0.2701
18850TIP3    H178041   6.381   6.073   4.532  0.8965  0.1964  1.0359
18850TIP3    H278042   6.317   5.939   4.562  0.4615  0.4976  1.4655
18851TIP3   OH278043   4.277   6.049   0.459  0.1931 -0.4884 -0.7268
18851TIP3    H178044   4.328   5.979   0.417  3.0811  1.3637 -0.6057
18851TIP3    H278045   4.264   6.114   0.390  1.8650  0.9716  0.2413
18852TIP3   OH278046   4.668   2.749   3.065 -0.0203  0.1833  0.4508
18852TIP3    H178047   4.702   2.661   3.081 -1.0993  0.0769  2.6455
18852TIP3    H278048   4.580   2.735   3.030 -0.3954  0.3563  1.2959
18853TIP3   OH278049   1.190   6.331  15.947  0.0420  0.6854 -0.4376
18853TIP3    H178050   1.178   6.265  15.879 -0.0408  0.4313 -0.1784
18853TIP3    H278051   1.282   6.355  15.941  0.3860 -0.3624  0.2784
18854TIP3   OH278052   5.605   6.501  12.797 -0.3414 -0.3007 -0.0557
18854TIP3    H178053   5.570   6.425  12.844 -0.5584  0.9898  1.9559
18854TIP3    H278054   5.605   6.474  12.705 -0.1171 -2.8414  0.6171
18855TIP3   OH278055   5.899   5.707  13.124  0.1706 -0.4992 -0.4625
18855TIP3    H178056   5.969   5.717  13.060  2.0499  2.7135  1.8162
18855TIP3    H278057   5.938   5.655  13.195  0.5360  1.5953  0.9741
18856TIP3   OH278058   0.129   3.289   2.924 -0.0392  0.1758  0.5697
18856TIP3    H178059   0.043   3.329   2.912 -0.9666 -1.4766  1.4065
18856TIP3    H278060   0.116   3.197   2.905  1.1882 -0.3761  2.1579
18857TIP3   OH278061   1.073   6.427  11.355 -0.4563 -0.6206 -0.1660
18857TIP3    H178062   1.041   6.461  11.271  1.9193  1.5732 -0.2825
18857TIP3    H278063   1.071   6.502  11.414  0.3904 -1.4884  1.0251
18858TIP3   OH278064   0.254   1.775   0.388 -0.2097  0.4158  0.1702
18858TIP3    H178065   0.173   1.770   0.337  0.3312 -3.0303 -0.5890
18858TIP3    H278066   0.321   1.799   0.325  0.0002 -1.0614 -0.2089
18859TIP3   OH278067   2.495   2.273   0.651  0.6479  0.2926  0.6214
18859TIP3    H178068   2.524   2.202   0.708 -0.1753 -0.5159  0.0552
18859TIP3    H278069   2.536   2.351   0.688  1.5714 -0.4650  1.2560
18860TIP3   OH278070   0.013   4.176   6.444 -0.0337 -0.4833  0.1579
18860TIP3    H178071   0.100   4.215   6.451 -0.1459 -0.1676 -0.1729
18860TIP3    H278072  -0.012   4.155   6.534  0.0728  0.1110  0.3279
18861TIP3   OH278073   0.642   5.577   4.144  0.0115 -0.6500 -0.1376
18861TIP3    H178074   0.697   5.525   4.201  0.7592  3.4200  3.3672
18861TIP3    H278075   0.701   5.605   4.073  0.4551 -1.8137 -0.2542
18862TIP3   OH278076   0.188   6.590   5.839  0.1861  0.0583 -0.2368
18862TIP3    H178077   0.097   6.579   5.811  0.2734  1.0158 -0.9167
18862TIP3    H278078   0.236   6.519   5.794 -0.2627 -0.6632  0.3956
18863TIP3   OH278079   6.570   6.204   3.070 -0.6783  0.2526  0.1405
18863TIP3    H178080   6.575   6.222   3.164 -1.6806  0.4302  0.1678
18863TIP3    H278081   6.642   6.144   3.054  0.4833  1.4170  0.7352
18864TIP3   OH278082   1.127   5.364  13.096  0.3256  0.4333  0.1005
18864TIP3    H178083   1.121   5.270  13.079  1.8712  0.3281 -0.0362
18864TIP3    H278084   1.133   5.371  13.191 -1.9005  0.5724  0.2744
18865TIP3   OH278085   1.985   0.177   0.917 -0.1178  0.6848 -0.3368
18865TIP3    H178086   1.987   0.245   0.985 -1.3734 -0.0755  0.5044
18865TIP3    H278087   1.926   0.110   0.952  0.6861 -0.6147 -1.3615
18866TIP3   OH278088   4.235   4.306  12.192 -0.0585 -0.0683 -0.2033
18866TIP3    H178089   4.173   4.325  12.262  1.0207 -1.0341  1.0458
18866TIP3    H278090   4.286   4.387  12.182  0.4870 -0.2701  0.8705
18867TIP3   OH278091   1.603   6.229  16.521 -0.0997  0.0340  0.3667
18867TIP3    H178092   1.601   6.284  16.600  0.1459  1.1147 -0.3661
18867TIP3    H278093   1.562   6.282  16.453  0.0963 -0.7131 -0.3537
18868TIP3   OH278094   6.684   4.813  16.635 -0.0010  0.2475  0.3543
18868TIP3    H178095   6.715   4.860  16.557 -0.0378  2.2668  1.4798
18868TIP3    H278096   6.614   4.757  16.603 -0.0493  1.0631 -1.0597
18869TIP3   OH278097   3.561   4.535  12.030  0.2268  0.1059  0.0238
18869TIP3    H178098   3.512   4.506  11.952  1.6439  0.1560 -0.9245
18869TIP3    H278099   3.561   4.630  12.024  1.1498  0.0833 -0.4519
18870TIP3   OH278100   1.949   0.579  14.423  0.2744  0.2213 -0.1313
18870TIP3    H178101   1.938   0.515  14.493  0.0572 -1.1593 -1.3626
18870TIP3    H278102   2.001   0.533  14.357 -0.9481  0.8635 -1.5986
18871TIP3   OH278103   0.455   1.628   5.103 -0.1522  0.2501 -0.6228
18871TIP3    H178104   0.409   1.674   5.174 -0.8985  1.5799 -1.9256
18871TIP3    H278105   0.466   1.539   5.137 -1.0925  0.6623  0.9009
18872TIP3   OH278106   1.027   5.920  12.186  0.1592 -0.3769  0.1139
18872TIP3    H178107   1.122   5.904  12.186  0.2956  0.1127  2.5283
18872TIP3    H278108   0.988   5.836  12.209  0.0271 -0.4318 -0.3006
18873TIP3   OH278109   6.269   4.418  12.638  0.8099 -0.2621 -0.0207
18873TIP3    H178110   6.176   4.416  12.617  0.8875 -0.4389 -0.3555
18873TIP3    H278111   6.312   4.442  12.555  0.9527  1.3850  0.4907
18874TIP3   OH278112   5.142   5.279  11.677  0.1105 -0.2988  0.2950
18874TIP3    H178113   5.227   5.321  11.662  0.1586 -0.2424  0.7280
18874TIP3    H278114   5.159   5.186  11.661 -0.2174 -0.0796 -1.6367
18875TIP3   OH278115   0.755   3.953  17.546  0.4973  0.7407  0.4994
18875TIP3    H178116   0.803   4.017  17.494 -2.0243  0.7387 -2.0524
18875TIP3    H278117   0.803   3.871  17.532 -0.2691  0.6628 -2.2398
18876TIP3   OH278118   2.029   1.811   3.482 -0.3434  0.1340  0.3181
18876TIP3    H178119   2.024   1.883   3.420  0.8235 -0.5129 -0.5544
18876TIP3    H278120   1.937   1.790   3.501 -0.7031  1.5155  0.2313
18877TIP3   OH278121   4.392   1.726   1.536  0.1696 -0.0465 -0.5590
18877TIP3    H178122   4.455   1.793   1.563  0.1096 -0.6089  1.1181
18877TIP3    H278123   4.418   1.703   1.447 -0.4211  2.8609 -1.5853
18878TIP3   OH278124   2.398   6.473   1.067  0.1725 -0.0830 -0.4707
18878TIP3    H178125   2.321   6.418   1.063  0.1177 -0.0020 -0.5363
18878TIP3    H278126   2.415   6.498   0.976  0.1100  0.1253 -0.4277
18879TIP3   OH278127   2.779   1.296   0.562  0.3212  0.3306  0.1011
18879TIP3    H178128   2.859   1.265   0.518  0.3071 -1.1613  1.0674
18879TIP3    H278129   2.789   1.268   0.653 -0.9583  0.8144  0.4122
18880TIP3   OH278130   0.577   3.561   2.421  0.3699 -0.3173  0.7560
18880TIP3    H178131   0.578   3.518   2.506 -0.3317 -0.4026  0.7279
18880TIP3    H278132   0.492   3.604   2.417  0.1113 -0.8817 -0.1776
18881TIP3   OH278133   4.706   4.686   4.589 -0.2461  0.5251 -0.1033
18881TIP3    H178134   4.633   4.685   4.527  1.0136 -0.0641 -1.6546
18881TIP3    H278135   4.671   4.729   4.667 -1.8392  1.5210 -1.3017
18882TIP3   OH278136   1.896   4.694  16.870  0.1584  0.0188  0.2132
18882TIP3    H178137   1.913   4.763  16.934  1.2585 -0.8469  0.8810
18882TIP3    H278138   1.863   4.741  16.793 -0.7427  1.1172  1.2281
18883TIP3   OH278139   4.627   3.586  17.109  0.3436  0.7018 -0.8702
18883TIP3    H178140   4.691   3.606  17.178  0.7450 -0.2491 -0.9489
18883TIP3    H278141   4.586   3.504  17.137 -1.6807  1.8450 -0.2536
18884TIP3   OH278142   2.583   3.014  16.120  0.1092 -0.0349 -0.2500
18884TIP3    H178143   2.519   3.078  16.151  1.3174  0.7236  0.7858
18884TIP3    H278144   2.549   2.930  16.149 -0.1000  0.4195  0.8751
18885TIP3   OH278145   2.957   2.358  11.444  0.3685  0.3283  0.4892
18885TIP3    H178146   3.002   2.306  11.511  0.8298 -0.1403 -0.1791
18885TIP3    H278147   2.932   2.295  11.377 -0.7667  0.6773  0.5533
18886TIP3   OH278148   0.610   3.547   3.920  0.2157  0.1656 -0.3099
18886TIP3    H178149   0.523   3.580   3.901  0.2992 -0.1381 -1.2543
18886TIP3    H278150   0.634   3.589   4.003 -0.1499  1.5547 -0.8906
18887TIP3   OH278151   4.267   3.721   6.066  0.3389  0.0839  0.3834
18887TIP3    H178152   4.328   3.792   6.048 -0.7654  0.7575 -0.8742
18887TIP3    H278153   4.181   3.761   6.062 -0.2203 -0.8392  2.1624
18888TIP3   OH278154   5.028   4.159   4.171 -0.2770  0.6047 -0.6969
18888TIP3    H178155   4.995   4.245   4.197  0.1798  0.7049 -0.4521
18888TIP3    H278156   5.121   4.160   4.193  0.1468  0.6963 -2.3323
18889TIP3   OH278157   5.945   3.466  12.120  0.5308  0.2857  0.3234
18889TIP3    H178158   5.907   3.388  12.160 -0.6259  1.3632  1.4131
18889TIP3    H278159   5.871   3.509  12.076  1.0473  1.0046  0.1370
18890TIP3   OH278160   1.951   0.613   4.091  0.2494  0.4147 -0.2884
18890TIP3    H178161   2.031   0.585   4.136 -1.3383 -0.5125  2.2136
18890TIP3    H278162   1.972   0.699   4.055  1.9458  0.8402  1.5486
18891TIP3   OH278163   3.691   3.661   2.673  0.4389  0.1035 -0.3044
18891TIP3    H178164   3.683   3.749   2.709  2.5363  0.1372  0.2127
18891TIP3    H278165   3.614   3.614   2.705 -0.2779  1.5049  0.0832
18892TIP3   OH278166   2.129   0.783  12.826  0.6311  0.2135 -0.3599
18892TIP3    H178167   2.159   0.808  12.913 -1.2257  1.8291 -0.0983
18892TIP3    H278168   2.040   0.750  12.840  0.5877 -0.2366 -1.5574
18893TIP3   OH278169   0.604   6.472  11.451 -0.4297  0.0321  0.5956
18893TIP3    H178170   0.528   6.423  11.421 -1.7828  2.4464 -0.1034
18893TIP3    H278171   0.588   6.487  11.544  1.0928 -2.6473  1.4079
18894TIP3   OH278172   3.506   2.544  13.661 -0.0009  0.2540 -0.9401
18894TIP3    H178173   3.515   2.639  13.654 -0.6983  0.1985 -4.2214
18894TIP3    H278174   3.411   2.529  13.666  0.0815 -0.2992 -0.9961
18895TIP3   OH278175   4.246   0.102  17.023  1.1811 -0.1331 -0.2299
18895TIP3    H178176   4.172   0.121  17.081  0.0043  0.2300 -1.7803
18895TIP3    H278177   4.274   0.188  16.990  1.5802 -0.3558 -0.4793
18896TIP3   OH278178   2.721   5.942  15.979 -0.4157 -0.6589 -0.6970
18896TIP3    H178179   2.788   5.949  16.047  0.2432 -1.0044 -1.3117
18896TIP3    H278180   2.765   5.967  15.898 -1.0669 -0.7418 -1.0867
18897TIP3   OH278181   1.452   1.241   2.233  0.8174 -0.3086 -0.3623
18897TIP3    H178182   1.524   1.293   2.268  1.3930 -1.5068  0.2651
18897TIP3    H278183   1.376   1.268   2.285  1.1035 -0.0902 -0.0522
18898TIP3   OH278184   5.956   5.691   5.290 -0.0511  0.2373 -0.4564
18898TIP3    H178185   6.025   5.756   5.285  0.2526 -0.0851 -0.5090
18898TIP3    H278186   5.879   5.734   5.253 -0.4631  1.3553  1.5863
18899TIP3   OH278187   2.823   6.580   4.053  0.0458 -0.0277 -0.2518
18899TIP3    H178188   2.742   6.562   4.102  1.1966 -2.0450  1.0445
18899TIP3    H278189   2.856   6.662   4.090 -0.1329 -0.4909  0.9495
18900TIP3   OH278190   1.455   0.089  14.710  0.5796  0.3859 -0.1515
18900TIP3    H178191   1.406   0.163  14.674 -0.3531 -0.5336 -0.8569
18900TIP3    H278192   1.545   0.121  14.719  0.1165  1.7135 -0.0563
18901TIP3   OH278193   0.121   3.206  13.643 -0.3897 -0.0174  0.7128
18901TIP3    H178194   0.041   3.211  13.592  0.7898  0.8540 -1.1493
18901TIP3    H278195   0.108   3.268  13.715 -1.6339 -0.4075  0.8396
18902TIP3   OH278196   4.390   5.937   1.168  0.0745 -0.6992  0.0701
18902TIP3    H178197   4.315   5.961   1.222  1.1339  1.2742  0.7676
18902TIP3    H278198   4.392   6.004   1.100  1.6382 -0.2424  0.5295
18903TIP3   OH278199   1.129   2.787  17.546  0.3975 -0.3568  0.1833
18903TIP3    H178200   1.158   2.858  17.604 -1.4740  1.0983 -0.5348
18903TIP3    H278201   1.199   2.722  17.549  0.9977  0.3268  2.9252
18904TIP3   OH278202   3.357   4.690   1.961 -0.3893  0.4059  0.0897
18904TIP3    H178203   3.323   4.677   1.872 -1.9270 -1.1578  0.8484
18904TIP3    H278204   3.423   4.622   1.972 -0.2645  0.5406  0.1836
18905TIP3   OH278205   5.393   1.426   0.648 -0.0837  1.2052 -0.5298
18905TIP3    H178206   5.411   1.365   0.577 -0.7615 -0.8419  0.9425
18905TIP3    H278207   5.429   1.383   0.726 -0.2509  2.8754  0.5198
18906TIP3   OH278208   6.195   5.383  15.173 -0.3629  0.1166  0.1020
18906TIP3    H178209   6.178   5.294  15.205  0.4174 -0.0742 -0.0019
18906TIP3    H278210   6.108   5.418  15.154 -0.6542 -0.8210 -0.3755
18907TIP3   OH278211   5.439   5.089  13.479 -0.4889 -0.0737  0.8148
18907TIP3    H178212   5.428   4.995  13.494  1.0022 -0.2076  1.2841
18907TIP3    H278213   5.477   5.095  13.391 -2.6976  0.2660 -0.1692
18908TIP3   OH278214   6.014   4.355  12.630  0.1705 -0.3778 -0.1532
18908TIP3    H178215   5.996   4.264  12.653  3.0635 -1.1965 -0.7544
18908TIP3    H278216   5.946   4.377  12.565 -1.4184 -1.5787  1.0272
18909TIP3   OH278217   1.905   6.688  13.649 -0.1485  0.4220  0.0714
18909TIP3    H178218   1.812   6.711  13.657 -0.5940 -1.7354  1.8509
18909TIP3    H278219   1.941   6.703  13.736  0.4705 -1.4864  0.1894
18910TIP3   OH278220   5.687   3.278   3.189 -0.9216  0.3956 -0.0517
18910TIP3    H178221   5.681   3.324   3.105 -0.8968  1.0369  0.2879
18910TIP3    H278222   5.708   3.347   3.252  1.8826 -0.4294  0.0834
18911TIP3   OH278223   1.526   5.648  14.572  0.3967  0.2594 -0.7146
18911TIP3    H178224   1.516   5.678  14.663  0.0035 -3.2397  0.5597
18911TIP3    H278225   1.602   5.696  14.540  1.4374  0.6295  1.9883
18912TIP3   OH278226   3.656   2.903   6.073  0.8719  0.1407 -0.0433
18912TIP3    H178227   3.568   2.938   6.057  1.2031  1.9806  1.7131
18912TIP3    H278228   3.664   2.830   6.011 -1.1133  1.1709 -1.6696
18913TIP3   OH278229   5.736   2.028   1.458  0.1808 -0.3721 -0.0205
18913TIP3    H178230   5.791   2.039   1.381 -0.3111  0.6113 -0.2530
18913TIP3    H278231   5.717   1.935   1.461  1.5157 -0.6687 -0.1621
18914TIP3   OH278232   5.260   5.690   4.668  0.0994  0.1810 -0.0030
18914TIP3    H178233   5.319   5.742   4.613  1.3226  0.8021  1.8092
18914TIP3    H278234   5.315   5.660   4.740 -0.6214 -3.4229 -0.7461
18915TIP3   OH278235   3.141   4.417   4.783  0.2469  0.7221 -0.1962
18915TIP3    H178236   3.184   4.432   4.699 -1.0581  0.9262 -0.8572
18915TIP3    H278237   3.209   4.378   4.839  0.9799  0.0677 -1.5088
18916TIP3   OH278238   0.653   3.649   4.172  0.6063  0.5509  0.0239
18916TIP3    H178239   0.721   3.705   4.208  1.9790 -0.4319 -0.9473
18916TIP3    H278240   0.645   3.576   4.234 -0.6961  1.4380  0.9366
18917TIP3   OH278241   6.321   0.870  11.530 -0.1222 -0.2636  0.3914
18917TIP3    H178242   6.338   0.943  11.589  1.9165  0.0157 -0.4190
18917TIP3    H278243   6.348   0.903  11.444  0.4575 -1.8089 -0.0634
18918TIP3   OH278244   5.542   2.566   4.934  0.1417  0.9247 -0.7227
18918TIP3    H178245   5.486   2.564   4.857 -0.4065 -2.5553 -0.4015
18918TIP3    H278246   5.493   2.617   4.998 -0.6295  1.5918 -1.8147
18919TIP3   OH278247   5.282   1.674   0.275  0.6037  0.0692  0.0901
18919TIP3    H178248   5.200   1.702   0.315  0.6049 -0.4695  0.4761
18919TIP3    H278249   5.349   1.726   0.320  0.5053  0.2837 -0.0089
18920TIP3   OH278250   6.079   1.176  16.745 -0.4264 -0.2845 -0.1813
18920TIP3    H178251   6.045   1.088  16.730  3.2386 -1.6806 -1.5232
18920TIP3    H278252   6.146   1.187  16.677 -0.5198  3.4457  0.1712
18921TIP3   OH278253   5.775   3.549   4.620 -0.2459  0.0894 -0.7488
18921TIP3    H178254   5.808   3.460   4.633  1.0483  0.5582 -0.6935
18921TIP3    H278255   5.715   3.542   4.546  1.0919 -0.5430 -1.8111
18922TIP3   OH278256   1.258   3.006   6.258 -0.0940  0.3541 -0.1517
18922TIP3    H178257   1.187   2.953   6.295  2.2236 -3.9005 -1.1365
18922TIP3    H278258   1.308   3.036   6.334  0.6713 -2.3155  0.4999
18923TIP3   OH278259   0.715   3.619   4.868  0.0575  0.0719 -0.1180
18923TIP3    H178260   0.715   3.711   4.896 -2.6992  0.0420  0.2573
18923TIP3    H278261   0.676   3.571   4.941 -2.5551 -0.7204 -1.8846
18924TIP3   OH278262   4.276   6.456   5.837 -0.1703 -0.3944 -0.0877
18924TIP3    H178263   4.275   6.539   5.884  0.3535  0.0327 -0.8090
18924TIP3    H278264   4.305   6.392   5.902  2.4941  0.4958 -0.2724
18925TIP3   OH278265   4.685   4.392   5.397  0.1371 -0.4990  0.4954
18925TIP3    H178266   4.647   4.361   5.315 -1.0024 -1.4030  1.3242
18925TIP3    H278267   4.744   4.321   5.424  0.7606 -0.0606  0.3110
18926TIP3   OH278268   3.399   2.290   0.877  0.2818 -0.3363 -0.1245
18926TIP3    H178269   3.389   2.282   0.782 -0.5857 -1.5485  0.0394
18926TIP3    H278270   3.493   2.285   0.891  0.3213 -2.4321 -0.7861
18927TIP3   OH278271   1.420   0.271   2.212  0.0463  0.1820  0.3676
18927TIP3    H178272   1.509   0.287   2.181 -0.3458 -0.5097 -1.1786
18927TIP3    H278273   1.421   0.182   2.245  0.4087  0.8452  2.2704
18928TIP3   OH278274   4.953   5.997  16.948  0.2221  0.7807 -0.2011
18928TIP3    H178275   4.930   5.924  16.890  1.0090  0.4418 -0.0970
18928TIP3    H278276   4.887   5.995  17.017  1.5853 -1.3841  1.1716
18929TIP3   OH278277   0.293   0.106   6.857  0.7246 -0.3853  0.4253
18929TIP3    H178278   0.340   0.124   6.938  0.5947 -0.0179  0.4206
18929TIP3    H278279   0.222   0.047   6.883  0.4304  0.0678  0.6527
18930TIP3   OH278280   5.045   2.991  12.172  0.0005  0.4608 -0.0726
18930TIP3    H178281   4.986   3.046  12.120 -1.1722 -0.8338 -0.1911
18930TIP3    H278282   4.991   2.961  12.245  1.0687  0.6874  0.8332
18931TIP3   OH278283   6.238   4.124   2.837 -0.4513  0.3934  0.0216
18931TIP3    H178284   6.305   4.056   2.844  0.8402  1.5546 -0.5407
18931TIP3    H278285   6.195   4.107   2.754  0.3671  0.6919 -0.4682
18932TIP3   OH278286   3.327   3.733   1.300  0.1239 -0.5507 -0.5081
18932TIP3    H178287   3.308   3.732   1.206 -2.6740  0.3756 -0.0479
18932TIP3    H278288   3.385   3.808   1.311  0.1079 -0.3846 -1.4500
18933TIP3   OH278289   1.316   0.521   2.867  0.0575 -0.3448 -0.3596
18933TIP3    H178290   1.338   0.445   2.920  0.7190  1.0632  1.5188
18933TIP3    H278291   1.222   0.533   2.878  0.4918  1.3100  2.6315
18934TIP3   OH278292   1.641   6.401   5.379  0.0650 -0.4079  0.0713
18934TIP3    H178293   1.671   6.442   5.298  0.2366  0.6596  0.6577
18934TIP3    H278294   1.563   6.452   5.404  0.6814  0.0315  1.1769
18935TIP3   OH278295   0.537   3.080  12.236  0.0610  0.1930 -0.4332
18935TIP3    H178296   0.631   3.091  12.218  0.1829 -1.2999 -0.8931
18935TIP3    H278297   0.532   3.075  12.331  0.7377 -1.6577 -0.4549
18936TIP3   OH278298   4.657   2.723  13.432 -0.0584  0.2847 -0.2211
18936TIP3    H178299   4.577   2.679  13.404 -0.5005  0.9930 -0.0722
18936TIP3    H278300   4.726   2.657  13.419 -0.8497 -0.8146  0.9459
18937TIP3   OH278301   0.410   5.260  16.537 -0.4632  0.3261 -0.4551
18937TIP3    H178302   0.315   5.250  16.528 -0.4864 -1.1392  0.9461
18937TIP3    H278303   0.422   5.296  16.625  0.3172 -0.8323 -0.0668
18938TIP3   OH278304   2.459   0.040   3.813  0.0910 -0.3000 -0.6617
18938TIP3    H178305   2.470  -0.046   3.854 -0.1172  0.6407  1.5211
18938TIP3    H278306   2.403   0.024   3.737  1.3979 -2.3057 -1.2733
18939TIP3   OH278307   1.466   0.128  16.236 -0.3770 -0.1521 -0.2712
18939TIP3    H178308   1.438   0.196  16.176 -0.2348 -0.4749 -0.7043
18939TIP3    H278309   1.386   0.079  16.255 -0.8890  1.2457  1.5249
18940TIP3   OH278310   1.073   0.452   5.839  0.0444 -0.9388 -0.0981
18940TIP3    H178311   1.151   0.464   5.894  1.1850 -1.4591 -1.5198
18940TIP3    H278312   1.008   0.414   5.897  0.8403 -0.4517  1.1468
18941TIP3   OH278313   4.546   6.258   4.831 -1.0719  0.0234  0.3405
18941TIP3    H178314   4.617   6.201   4.861 -0.6058 -0.4127 -1.4587
18941TIP3    H278315   4.544   6.329   4.895  0.5180 -0.3333  0.8427
18942TIP3   OH278316   4.909   5.389  14.117  0.3097  0.1625 -1.0940
18942TIP3    H178317   4.903   5.465  14.175  0.7700 -0.1865 -0.5753
18942TIP3    H278318   4.993   5.398  14.073  0.7805 -0.4897 -0.3706
18943TIP3   OH278319   5.851   5.545  14.389 -0.3476  0.0714 -0.2309
18943TIP3    H178320   5.935   5.503  14.374 -0.5453 -0.0057 -1.1904
18943TIP3    H278321   5.789   5.493  14.338 -1.0675 -0.1794  0.8677
18944TIP3   OH278322   0.653   3.193  16.856 -0.3467 -0.3643 -0.8235
18944TIP3    H178323   0.588   3.260  16.835 -0.6279 -0.5695 -0.6127
18944TIP3    H278324   0.640   3.174  16.949 -1.9868 -2.5207 -1.4049
18945TIP3   OH278325   1.969   3.201  11.743  0.2325  0.1539  0.3324
18945TIP3    H178326   1.925   3.274  11.788 -0.4230 -0.8527  1.3712
18945TIP3    H278327   2.032   3.244  11.685  0.0920  1.5497  1.1515
18946TIP3   OH278328   2.156   0.161  10.851 -0.8460 -0.2072 -0.0137
18946TIP3    H178329   2.215   0.200  10.786 -0.3998 -1.6925 -0.5583
18946TIP3    H278330   2.164   0.066  10.836 -1.2803 -0.5532  1.7496
18947TIP3   OH278331   3.042   0.507   4.110  0.3335 -0.2143 -0.7029
18947TIP3    H178332   3.104   0.479   4.177  0.7418 -0.1828 -1.0667
18947TIP3    H278333   3.045   0.603   4.113  0.2265 -0.2119 -0.6545
18948TIP3   OH278334   1.239   0.425  14.962  0.2359  0.1998 -0.8353
18948TIP3    H178335   1.168   0.463  14.911 -1.1500 -1.0218  0.1133
18948TIP3    H278336   1.227   0.460  15.050  0.1980 -0.7640 -0.4444
18949TIP3   OH278337   4.249   4.190   4.370  0.3003 -0.3886  0.1987
18949TIP3    H178338   4.157   4.209   4.389  0.3538 -1.6367  1.8546
18949TIP3    H278339   4.263   4.101   4.403  2.3241  0.0883  0.7522
18950TIP3   OH278340   0.088   0.804  17.127  0.1090  0.4346 -0.8853
18950TIP3    H178341   0.100   0.855  17.207  0.7881 -1.1411  0.0668
18950TIP3    H278342   0.137   0.851  17.060 -1.4789  2.4494 -0.7127
18951TIP3   OH278343   4.824   2.455   4.575 -0.0516 -0.3959  0.0786
18951TIP3    H178344   4.762   2.397   4.531  0.3569 -1.3063  0.6735
18951TIP3    H278345   4.783   2.541   4.571 -1.3012 -0.9542  0.3470
18952TIP3   OH278346   0.985   4.643   3.007  0.3426 -0.1645 -0.6419
18952TIP3    H178347   1.038   4.582   3.059 -0.4858 -0.2818  0.0845
18952TIP3    H278348   1.048   4.685   2.948  0.8427 -2.2460 -1.7073
18953TIP3   OH278349   6.366   3.335  16.175  0.1438 -0.3256  0.8765
18953TIP3    H178350   6.406   3.280  16.108  0.8452  1.0220  0.1461
18953TIP3    H278351   6.398   3.423  16.156 -2.4453  0.7040  0.7856
18954TIP3   OH278352   4.615   1.105  12.109 -0.1865 -0.5788  0.0283
18954TIP3    H178353   4.638   1.162  12.183 -0.8352 -0.4460  0.1286
18954TIP3    H278354   4.590   1.022  12.150 -3.6439  0.4227  0.2385
18955TIP3   OH278355   2.135   2.107  12.933 -0.0790 -0.1340  0.1148
18955TIP3    H178356   2.106   2.169  13.000  1.1598 -0.8530  1.3667
18955TIP3    H278357   2.173   2.161  12.865  0.4393  0.5306  0.9142
18956TIP3   OH278358   5.442   1.893   1.931  0.5343  0.2444  0.1529
18956TIP3    H178359   5.429   1.943   2.011 -0.4868  0.5913 -0.2136
18956TIP3    H278360   5.353   1.879   1.896  0.7265 -2.1307  0.4226
18957TIP3   OH278361   4.268   3.056  12.144  0.2087  0.3970 -0.3117
18957TIP3    H178362   4.299   3.030  12.057  0.4558  1.2657 -0.4915
18957TIP3    H278363   4.347   3.066  12.196  0.0138 -1.2643  0.3722
18958TIP3   OH278364   0.387   1.959   2.226 -0.2676  0.2445 -0.0734
18958TIP3    H178365   0.461   1.972   2.285  0.3247 -1.2395 -0.4498
18958TIP3    H278366   0.330   1.897   2.272 -0.5684  0.2776 -0.3939
18959TIP3   OH278367   2.423   5.193  13.052  0.4139  0.0833 -0.7603
18959TIP3    H178368   2.446   5.175  13.143  1.4479  1.2531 -0.7635
18959TIP3    H278369   2.367   5.270  13.057 -1.5786 -1.2930 -0.9547
18960TIP3   OH278370   0.473   6.439   0.465 -0.5918 -0.7702  0.4365
18960TIP3    H178371   0.461   6.429   0.560  0.9770 -1.1002  0.6296
18960TIP3    H278372   0.567   6.452   0.454 -1.0080  1.6611 -0.9066
18961TIP3   OH278373   0.999   5.365   3.105  0.1221  0.4777 -0.3344
18961TIP3    H178374   1.069   5.309   3.070 -0.9261  0.0813 -1.9067
18961TIP3    H278375   0.996   5.439   3.045  0.3120  1.3617  0.7182
18962TIP3   OH278376   6.557   6.678  13.192  0.2132  0.7290 -0.4155
18962TIP3    H178377   6.587   6.690  13.282  0.5821 -1.8920 -0.0942
18962TIP3    H278378   6.462   6.677  13.198  0.2066 -1.9543  0.4647
18963TIP3   OH278379   4.080   4.446  12.423  0.0367 -0.2310  0.2204
18963TIP3    H178380   4.081   4.375  12.487  0.0449 -0.8212 -0.4178
18963TIP3    H278381   4.085   4.526  12.475 -0.3856 -0.6826  0.9744
18964TIP3   OH278382   5.750   3.628   4.885  0.0394  0.6693  0.1053
18964TIP3    H178383   5.827   3.644   4.940  1.2640  0.1318 -1.3754
18964TIP3    H278384   5.786   3.622   4.796 -1.7108  0.2271 -0.5984
18965TIP3   OH278385   3.702   0.115   3.697  0.5365 -0.1332 -0.1922
18965TIP3    H178386   3.753   0.113   3.616 -0.7718  0.2398 -1.0674
18965TIP3    H278387   3.668   0.205   3.702  0.3223 -0.2450  0.5992
18966TIP3   OH278388   4.630   2.099   5.437  0.1750  0.0792  0.0403
18966TIP3    H178389   4.536   2.097   5.422  0.4938 -0.3215 -2.2219
18966TIP3    H278390   4.641   2.067   5.527 -1.7187 -2.0851 -0.4202
18967TIP3   OH278391   5.312   3.531  17.374 -0.5284 -0.7971 -0.0850
18967TIP3    H178392   5.328   3.615  17.416 -1.3529 -0.4770 -0.3903
18967TIP3    H278393   5.398   3.489  17.371 -0.0431  0.1827 -0.2598
18968TIP3   OH278394   5.838   6.022  13.931 -0.2660 -0.4831  0.1856
18968TIP3    H178395   5.921   6.070  13.938  0.8117 -2.0287 -1.2404
18968TIP3    H278396   5.800   6.028  14.019  0.4047  1.8393  0.4095
18969TIP3   OH278397   4.983   1.377  11.810 -0.2459  0.3748 -0.0439
18969TIP3    H178398   4.947   1.318  11.744 -0.9020  2.1349 -1.3313
18969TIP3    H278399   4.916   1.383  11.877 -1.7178  2.2295 -1.5604
18970TIP3   OH278400   0.277   3.445   5.549 -0.5511  0.6281  0.1299
18970TIP3    H178401   0.316   3.508   5.610 -0.5258  2.1861 -1.4262
18970TIP3    H278402   0.195   3.486   5.522  0.5193  1.1956 -2.6643
18971TIP3   OH278403   1.968   1.174  12.725  0.0002  0.4960 -0.0845
18971TIP3    H178404   1.985   1.233  12.799  0.1025 -0.9026  1.0711
18971TIP3    H278405   1.936   1.093  12.767  1.1484 -0.7336 -1.4898
18972TIP3   OH278406   5.868   0.593   0.147 -0.2679  0.2939  0.1731
18972TIP3    H178407   5.872   0.686   0.128 -1.2045  0.2568 -0.2389
18972TIP3    H278408   5.818   0.586   0.228 -0.5322  0.1254 -0.0031
18973TIP3   OH278409   3.487   5.603  12.457  0.0360  0.2835  0.6248
18973TIP3    H178410   3.518   5.550  12.384  0.3272 -0.0282  0.9723
18973TIP3    H278411   3.520   5.691  12.438 -0.5447  0.3739 -0.0102
18974TIP3   OH278412   5.831   4.225   5.025  0.2286  0.4118  1.1085
18974TIP3    H178413   5.834   4.130   5.035 -0.3857  0.3839  1.0405
18974TIP3    H278414   5.896   4.257   5.087  0.9796 -0.0818  0.6086
18975TIP3   OH278415   0.044   1.798  15.710  0.2171 -0.3959 -0.8454
18975TIP3    H178416   0.108   1.728  15.711 -0.0953 -0.6912  0.4478
18975TIP3    H278417  -0.040   1.753  15.699 -0.0119 -0.2635  0.3086
18976TIP3   OH278418   0.633   2.406   0.108 -0.8343 -0.2866 -0.0586
18976TIP3    H178419   0.643   2.457   0.188  2.4458 -1.2339  0.2686
18976TIP3    H278420   0.555   2.352   0.124 -1.3439  0.8810  1.6976
18977TIP3   OH278421   2.534   6.048   2.824 -0.7032 -0.1474  0.0115
18977TIP3    H178422   2.628   6.056   2.806 -0.8148  2.0010  0.0375
18977TIP3    H278423   2.527   5.981   2.891  0.7519 -0.7263 -0.3772
18978TIP3   OH278424   6.012   5.898   5.709  0.0495  0.2226 -0.3874
18978TIP3    H178425   6.025   5.889   5.615 -1.0722  1.4067 -0.6880
18978TIP3    H278426   6.090   5.859   5.748 -0.1035 -1.5597 -1.7494
18979TIP3   OH278427   2.696   2.718   4.280  0.4456  0.2140 -0.1130
18979TIP3    H178428   2.643   2.746   4.206  1.4385  1.7570 -0.3011
18979TIP3    H278429   2.654   2.758   4.357 -0.0763 -0.6535  0.0686
18980TIP3   OH278430   2.302   2.549  12.800 -0.4319 -0.0945  0.0079
18980TIP3    H178431   2.270   2.588  12.881 -0.5328 -3.6303  1.8196
18980TIP3    H278432   2.390   2.517  12.821 -1.6267 -3.9262 -0.1054
18981TIP3   OH278433   2.879   3.063   2.875  0.1257 -0.1353 -0.4702
18981TIP3    H178434   2.900   3.147   2.835 -0.3270  0.0845 -0.2561
18981TIP3    H278435   2.927   2.998   2.824 -1.1012  0.0423 -1.8948
18982TIP3   OH278436   0.705   6.093   2.891  0.4448 -0.1093  0.1182
18982TIP3    H178437   0.799   6.111   2.893  0.3642  0.3194  0.2266
18982TIP3    H278438   0.695   6.007   2.931  0.7902 -0.1474  0.1193
18983TIP3   OH278439   5.299   6.289   0.209  0.5232 -0.3975 -0.4852
18983TIP3    H178440   5.291   6.238   0.290  1.4482  3.4513  2.2959
18983TIP3    H278441   5.391   6.313   0.204  0.2826  0.3397 -2.1368
18984TIP3   OH278442   0.027   4.439  16.963  0.6721  0.5192 -0.5350
18984TIP3    H178443   0.019   4.432  17.058 -0.1522 -1.2931 -0.6883
18984TIP3    H278444   0.047   4.350  16.934  0.9091  1.0375 -2.0619
18985TIP3   OH278445   6.503   6.124  10.782  0.3013  0.8516  0.0799
18985TIP3    H178446   6.492   6.199  10.724  1.5388  1.1107  0.1643
18985TIP3    H278447   6.431   6.131  10.845  0.3414  1.9067  0.0240
18986TIP3   OH278448   1.932   5.656  16.992  1.0876 -0.3022 -0.2961
18986TIP3    H178449   1.941   5.732  16.935  2.5243  0.5014  0.9331
18986TIP3    H278450   1.969   5.583  16.942 -0.5719 -0.3230 -1.6020
18987TIP3   OH278451   2.699   1.459  16.998 -0.4331  0.5833 -0.5058
18987TIP3    H178452   2.737   1.415  16.922 -0.3161  0.2484 -0.2565
18987TIP3    H278453   2.648   1.530  16.961 -1.3618 -0.3029 -0.9823
18988TIP3   OH278454   4.566   2.376  13.825  0.4591 -0.1138  0.0758
18988TIP3    H178455   4.661   2.373  13.821  0.4338  0.6662 -1.6585
18988TIP3    H278456   4.545   2.468  13.841 -0.0169 -0.2391  0.2067
18989TIP3   OH278457   2.936   1.510   1.685  0.2988  0.0797  0.2462
18989TIP3    H178458   2.919   1.420   1.656  1.3634 -0.2768  0.6991
18989TIP3    H278459   2.993   1.547   1.617  0.9948 -0.0473  0.7473
18990TIP3   OH278460   0.297   1.910   5.594 -0.3322  0.2303  0.2362
18990TIP3    H178461   0.307   1.996   5.553 -0.3232  0.3504  0.4901
18990TIP3    H278462   0.357   1.912   5.668  0.5894 -0.4391 -0.4589
18991TIP3   OH278463   2.165   6.573   3.517 -0.1329  0.1944 -0.1376
18991TIP3    H178464   2.244   6.527   3.488  0.1010  0.4159  0.1360
18991TIP3    H278465   2.140   6.528   3.598  0.0981  0.5420  0.1316
18992TIP3   OH278466   6.550   0.097  16.611  0.0790  0.5033  0.4196
18992TIP3    H178467   6.473   0.136  16.570  0.7591  0.3511 -1.0664
18992TIP3    H278468   6.519   0.013  16.646  0.3890 -2.0310 -4.4490
18993TIP3   OH278469   5.419   5.200  12.787 -0.0466  0.2587  0.2524
18993TIP3    H178470   5.456   5.115  12.809  0.6296  0.4153 -0.2378
18993TIP3    H278471   5.485   5.242  12.732 -0.3909  1.0789  0.4380
18994TIP3   OH278472   0.870   3.105   2.988  0.4985  0.2312  0.2382
18994TIP3    H178473   0.839   3.084   3.076  0.0279 -2.6652 -0.5257
18994TIP3    H278474   0.956   3.062   2.982  0.5389  0.4247 -0.7222
18995TIP3   OH278475   3.407   0.187  13.834  0.2474  0.1204 -0.1875
18995TIP3    H178476   3.446   0.100  13.827  1.9573  0.5775  2.1926
18995TIP3    H278477   3.323   0.173  13.877  0.3120 -0.4108 -0.2377
18996TIP3   OH278478   3.265   6.402  13.812  0.0619 -0.0601 -0.1622
18996TIP3    H178479   3.284   6.352  13.732 -2.7861  1.7241 -2.1762
18996TIP3    H278480   3.246   6.335  13.878  1.9593 -1.6071 -1.0887
18997TIP3   OH278481   6.414   2.942   3.343 -0.4255 -0.2684 -0.6090
18997TIP3    H178482   6.321   2.953   3.324 -0.7232  0.3015  0.9817
18997TIP3    H278483   6.451   2.900   3.265 -1.4556  2.0584 -2.4618
18998TIP3   OH278484   3.805   0.213  15.970  0.1401  0.2967 -0.1022
18998TIP3    H178485   3.872   0.173  15.915 -0.6859 -1.0064 -0.2127
18998TIP3    H278486   3.776   0.291  15.922  0.5525  0.0601 -0.7354
18999TIP3   OH278487   1.497   3.194   4.313 -0.3404 -0.5377  0.0046
18999TIP3    H178488   1.444   3.143   4.373 -0.3842 -1.9738 -1.2062
18999TIP3    H278489   1.587   3.173   4.337 -0.3416 -0.2022  0.3109
19000TIP3   OH278490   0.447   0.811   6.090 -0.3925  0.4882  0.3478
19000TIP3    H178491   0.388   0.825   6.164  1.2677  2.4324  1.4080
19000TIP3    H278492   0.535   0.820   6.128  0.5198  0.6515 -1.7068
19001TIP3   OH278493   4.689   6.695   3.538  0.1533 -0.4986 -0.0838
19001TIP3    H178494   4.653   6.694   3.626  0.6305  2.6632  0.2942
19001TIP3    H278495   4.784   6.701   3.551  0.2012  0.5286 -0.7267
19002TIP3   OH278496   3.960   3.740   2.661 -0.0602  0.1757  0.0598
19002TIP3    H178497   3.887   3.678   2.675  0.9125 -1.1499 -0.5229
19002TIP3    H278498   4.038   3.684   2.661  1.1032  1.6862  1.7852
19003TIP3   OH278499   3.053   3.949   0.024 -0.3138  0.1833 -0.3673
19003TIP3    H178500   3.069   3.857   0.043  0.3376  0.3972  0.1500
19003TIP3    H278501   2.960   3.954   0.003 -0.5677 -0.4279  0.5796
19004TIP3   OH278502   6.151   1.887   4.910  1.0034 -0.3882  0.4203
19004TIP3    H178503   6.187   1.949   4.846 -0.3658  1.4847  1.3747
19004TIP3    H278504   6.105   1.942   4.973 -0.3485 -2.4212  1.2939
19005TIP3   OH278505   1.408   3.010   5.171  0.1355  0.3810  0.4979
19005TIP3    H178506   1.400   2.934   5.230  0.4263 -1.2650 -1.4628
19005TIP3    H278507   1.361   2.983   5.092  1.9820  1.4219 -1.0258
19006TIP3   OH278508   0.669   6.459  13.732  0.2852 -0.9186 -0.2532
19006TIP3    H178509   0.671   6.525  13.663  0.5140 -1.0532 -0.3771
19006TIP3    H278510   0.724   6.495  13.801 -1.9515  0.3928  0.9569
19007TIP3   OH278511   2.656   0.269   3.811 -0.4301  0.2837 -0.4189
19007TIP3    H178512   2.731   0.228   3.769 -0.1499  2.1477 -1.8436
19007TIP3    H278513   2.599   0.195   3.835 -0.6189 -0.9859 -4.1097
19008TIP3   OH278514   1.978   3.452  16.401 -0.4323  0.2674  0.1795
19008TIP3    H178515   2.051   3.474  16.343 -0.6468 -1.7457 -0.9494
19008TIP3    H278516   1.995   3.502  16.480  1.5009  0.8292 -0.5260
19009TIP3   OH278517   1.823   0.237   4.389 -0.2911 -0.1042 -0.1837
19009TIP3    H178518   1.881   0.184   4.444 -0.3470 -0.9938 -0.9403
19009TIP3    H278519   1.786   0.302   4.448  0.8038 -0.0716  0.5009
19010TIP3   OH278520   4.045   1.504   2.921  0.6595 -0.2302  0.3569
19010TIP3    H178521   4.045   1.413   2.891 -0.0905 -0.7191  1.7837
19010TIP3    H278522   3.967   1.512   2.975 -1.1774  2.1766 -2.3077
19011TIP3   OH278523   0.498   4.178  14.915  0.8626  0.1723  0.6682
19011TIP3    H178524   0.563   4.244  14.940  0.1443  1.3433 -0.4571
19011TIP3    H278525   0.542   4.126  14.847  1.5670 -0.8178  1.8207
19012TIP3   OH278526   6.313   4.910  12.835  0.2936 -0.4356 -0.2879
19012TIP3    H178527   6.322   4.996  12.795 -0.9312 -0.0824  0.1715
19012TIP3    H278528   6.219   4.893  12.836  0.3515 -0.8415  1.5567
19013TIP3   OH278529   3.011   2.695  15.589  0.2358  0.0368  0.1265
19013TIP3    H178530   2.963   2.687  15.672 -1.5430  0.1525 -0.8529
19013TIP3    H278531   3.093   2.738  15.614  0.2507 -0.9602  1.9958
19014TIP3   OH278532   2.375   5.911   4.663 -0.0132 -1.0727 -0.5624
19014TIP3    H178533   2.420   5.988   4.627  0.2758 -0.8261  0.3088
19014TIP3    H278534   2.282   5.928   4.646 -0.0512 -0.0283  0.5075
19015TIP3   OH278535   6.568   4.141  15.529 -0.2122 -0.3983  0.3961
19015TIP3    H178536   6.650   4.190  15.536  0.0667 -0.9759  1.3889
19015TIP3    H278537   6.561   4.119  15.436  0.8135 -0.4127  0.3085
19016TIP3   OH278538   3.921   3.756   4.239 -0.5332  0.3588 -0.0810
19016TIP3    H178539   3.941   3.663   4.232 -1.3574  0.1598  0.0949
19016TIP3    H278540   4.006   3.799   4.237 -0.2236 -0.2592 -2.0676
19017TIP3   OH278541   0.134   0.074   5.126  0.2183  0.0130 -0.0766
19017TIP3    H178542   0.143   0.131   5.049  0.6097 -0.0182 -0.0576
19017TIP3    H278543   0.203   0.104   5.186  1.6657 -1.6797 -0.8269
19018TIP3   OH278544   6.655   5.685  16.450  0.4392  0.3039 -0.0021
19018TIP3    H178545   6.561   5.667  16.441  0.1598  1.4277  0.5352
19018TIP3    H278546   6.697   5.603  16.425 -0.6832 -0.1998 -0.3094
19019TIP3   OH278547   1.756   4.555   3.586  0.7522 -0.5360 -0.7584
19019TIP3    H178548   1.828   4.503   3.552  0.5288 -0.9571 -0.5850
19019TIP3    H278549   1.750   4.532   3.678  0.2562 -0.6734 -0.8201
19020TIP3   OH278550   4.029   5.248  15.409 -0.3502  0.4062 -0.1343
19020TIP3    H178551   4.106   5.192  15.396 -0.5695  0.0227  0.2056
19020TIP3    H278552   4.065   5.329  15.446 -0.1472  0.0818  0.3909
19021TIP3   OH278553   5.876   0.653  14.688 -0.5509  0.1786  0.3161
19021TIP3    H178554   5.875   0.748  14.671 -1.3711  0.3028  0.9951
19021TIP3    H278555   5.967   0.628  14.674 -0.6720  0.7017 -1.7695
19022TIP3   OH278556   0.905   2.616   5.757  0.0166  0.5531  0.1329
19022TIP3    H178557   0.990   2.578   5.779  0.0529 -0.2848 -1.3644
19022TIP3    H278558   0.909   2.704   5.795  1.3347  0.3439  0.5548
19023TIP3   OH278559   5.794   2.781  11.176  0.1925  0.2251  0.4550
19023TIP3    H178560   5.831   2.862  11.141 -1.2385  1.7726  2.2550
19023TIP3    H278561   5.708   2.774  11.134  0.3296 -0.4206  0.2659
19024TIP3   OH278562   1.300   1.118   0.145 -0.2012 -0.3298 -0.3224
19024TIP3    H178563   1.278   1.105   0.053 -1.3574 -0.4818 -0.0440
19024TIP3    H278564   1.247   1.053   0.192 -0.2793  0.3103  0.5042
19025TIP3   OH278565   3.776   0.375   6.370  0.6967 -0.5640 -0.2728
19025TIP3    H178566   3.864   0.357   6.338  0.9364 -0.9218  0.5672
19025TIP3    H278567   3.785   0.376   6.465 -0.3399 -1.3802 -0.1433
19026TIP3   OH278568   1.073   5.103  13.017 -0.2979  0.3430  0.1142
19026TIP3    H178569   1.026   5.116  12.935  1.5048  0.8911 -0.8734
19026TIP3    H278570   1.062   5.009  13.036  0.7363 -0.1861 -1.7156
19027TIP3   OH278571   5.682   3.779  16.760 -0.3469 -0.0762 -0.2549
19027TIP3    H178572   5.742   3.852  16.777 -0.3916 -0.3299  1.1460
19027TIP3    H278573   5.613   3.817  16.706 -0.3734  0.9397  0.4546
19028TIP3   OH278574   0.720   0.902   4.068  0.3018 -0.4899 -0.1496
19028TIP3    H178575   0.634   0.942   4.084  0.7947  0.6471 -0.2933
19028TIP3    H278576   0.710   0.811   4.099 -2.2025 -1.6648 -3.8167
19029TIP3   OH278577   1.582   3.273  17.592  0.1087 -0.2215  0.3349
19029TIP3    H178578   1.647   3.335  17.558  0.1502 -0.2009  0.4511
19029TIP3    H278579   1.544   3.318  17.668  2.4673 -1.6509  2.4958
19030TIP3   OH278580   3.893   0.705  15.289  0.4249 -0.3586 -0.0495
19030TIP3    H178581   3.986   0.684  15.291  0.8476  1.2874 -0.7342
19030TIP3    H278582   3.889   0.795  15.256 -1.5301 -1.1438 -2.2813
19031TIP3   OH278583   6.164   5.479   0.622  0.1788  0.1878  0.3522
19031TIP3    H178584   6.204   5.393   0.638  1.4632  0.3005 -1.8643
19031TIP3    H278585   6.078   5.473   0.664  0.4046 -2.0134  0.6520
19032TIP3   OH278586   4.781   4.822  13.850 -0.1517  0.1544 -0.7697
19032TIP3    H178587   4.738   4.764  13.913 -1.4837 -1.0406 -2.6879
19032TIP3    H278588   4.864   4.845  13.892 -0.9447 -0.6157  1.3745
19033TIP3   OH278589   4.100   2.384  15.014 -0.2008  0.5526  0.5006
19033TIP3    H178590   4.014   2.347  14.993  0.6618 -0.5258 -1.4175
19033TIP3    H278591   4.082   2.475  15.035 -1.9279  0.0962  1.2031
19034TIP3   OH278592   2.668   0.877  15.240 -0.0354  0.7872  0.4129
19034TIP3    H178593   2.576   0.891  15.262 -0.2774 -0.6064  0.3779
19034TIP3    H278594   2.702   0.964  15.222 -1.3443  1.3241  0.4413
19035TIP3   OH278595   4.189   3.264  16.680 -0.1879 -0.1133  0.3644
19035TIP3    H178596   4.186   3.258  16.776  0.6713  1.5021  0.5258
19035TIP3    H278597   4.244   3.190  16.653  1.4004  0.6578  1.3234
19036TIP3   OH278598   1.831   2.493  15.173  0.2464  0.3624 -0.3649
19036TIP3    H178599   1.916   2.534  15.155 -0.2291  0.7920 -1.8347
19036TIP3    H278600   1.830   2.479  15.267  1.8793  0.5034 -0.2923
19037TIP3   OH278601   3.924   3.356   0.689 -0.7848  0.1324 -0.1834
19037TIP3    H178602   3.983   3.409   0.744 -1.0753 -1.1283  1.4276
19037TIP3    H278603   3.871   3.307   0.752 -0.2816 -2.3622 -1.5801
19038TIP3   OH278604   1.177   6.691  13.349 -0.0187 -0.4982 -0.0135
19038TIP3    H178605   1.188   6.752  13.277  0.7144 -0.4924  0.0979
19038TIP3    H278606   1.256   6.701  13.402  0.3955 -1.9528 -0.3077
19039TIP3   OH278607   0.145   5.911  11.411 -0.4905 -0.1961  0.0116
19039TIP3    H178608   0.106   5.925  11.497 -1.3869 -0.5421 -0.3227
19039TIP3    H278609   0.083   5.853  11.366  0.6229 -1.1178 -0.3921
19040TIP3   OH278610   5.094   4.669  12.169  0.2597  0.3620  0.3748
19040TIP3    H178611   5.103   4.605  12.099 -0.6647  0.3685  0.2295
19040TIP3    H278612   5.149   4.743  12.142  0.3249  0.1455 -0.0820
19041TIP3   OH278613   3.812   0.067  16.774  0.3257 -0.7346 -0.9494
19041TIP3    H178614   3.906   0.084  16.784  0.2489  0.3095 -1.8313
19041TIP3    H278615   3.775   0.091  16.859  0.5687  1.1399 -1.3315
19042TIP3   OH278616   3.029   6.476   2.350  0.0706 -0.1607 -0.2326
19042TIP3    H178617   3.042   6.571   2.341  1.6337 -0.4569 -1.6986
19042TIP3    H278618   2.944   6.459   2.309  0.5082  0.4417 -1.4630
19043TIP3   OH278619   5.890   3.990   2.495  0.0464  0.2015  0.0031
19043TIP3    H178620   5.914   4.044   2.419  0.6873 -2.2451 -1.6534
19043TIP3    H278621   5.811   3.944   2.467  0.0957 -0.4955  0.9726
19044TIP3   OH278622   6.287   5.189   3.769 -0.1261 -0.2438 -0.1292
19044TIP3    H178623   6.269   5.110   3.717  0.2009 -0.6795  0.4081
19044TIP3    H278624   6.347   5.159   3.837 -1.3091  0.1126  1.0969
19045TIP3   OH278625   5.089   1.223  14.309 -0.3034  0.0141  0.4132
19045TIP3    H178626   5.046   1.209  14.393 -1.9026  0.6916 -0.2421
19045TIP3    H278627   5.051   1.306  14.277  0.6677  0.0439 -0.7193
19046TIP3   OH278628   3.590   3.960  13.636  0.4101 -0.5346 -0.0153
19046TIP3    H178629   3.556   3.964  13.725  2.3026  0.4994  0.7114
19046TIP3    H278630   3.677   4.000  13.641  0.5369 -0.3640 -2.3451
19047TIP3   OH278631   0.484   4.631  16.158  0.0627  0.0732 -0.7794
19047TIP3    H178632   0.417   4.652  16.093  0.3278  0.4300 -0.9423
19047TIP3    H278633   0.555   4.591  16.107 -0.9912 -2.5782 -0.3040
19048TIP3   OH278634   2.102   0.627  11.643 -0.0715 -0.3959  0.3650
19048TIP3    H178635   2.010   0.654  11.637  0.1182 -0.0349 -1.3838
19048TIP3    H278636   2.100   0.546  11.693 -1.4007 -0.6524 -0.0611
19049TIP3   OH278637   6.286   5.569  12.082 -0.5751  0.0190  0.1085
19049TIP3    H178638   6.346   5.640  12.103  0.5852 -0.7248 -0.5923
19049TIP3    H278639   6.292   5.560  11.987  0.7006 -2.2011  0.3456
19050TIP3   OH278640   0.128   0.723  17.684  0.8486  0.3247  0.3260
19050TIP3    H178641   0.162   0.796  17.736  1.4185 -0.0537  0.4978
19050TIP3    H278642   0.067   0.679  17.743  0.0354  1.0135  0.0144
19051TIP3   OH278643   6.631   3.721  15.304 -0.2165  0.1398 -0.4855
19051TIP3    H178644   6.614   3.731  15.398 -0.2807  0.7198 -0.5566
19051TIP3    H278645   6.572   3.783  15.262 -0.5413 -0.4719 -0.9445
19052TIP3   OH278646   4.603   0.158  11.314  0.7475  0.5196  0.3212
19052TIP3    H178647   4.689   0.152  11.271  0.3807  0.9826 -0.5063
19052TIP3    H278648   4.612   0.232  11.374  1.2663 -0.1372  1.0936
19053TIP3   OH278649   2.409   1.963   5.157 -0.5690  0.2630 -0.5073
19053TIP3    H178650   2.329   1.979   5.107 -0.2746  1.4057 -0.6413
19053TIP3    H278651   2.419   2.041   5.211  1.2557  0.8287 -1.5754
19054TIP3   OH278652   2.710   1.476  14.745  0.0703  0.2002  0.0150
19054TIP3    H178653   2.658   1.442  14.672 -1.2648  1.9600  0.0908
19054TIP3    H278654   2.652   1.537  14.790  2.1500  2.2892  0.0845
19055TIP3   OH278655   6.399   2.217  17.586 -0.3901 -0.0096 -0.3417
19055TIP3    H178656   6.329   2.168  17.629 -1.4212  1.7978  0.1889
19055TIP3    H278657   6.362   2.305  17.573  0.9617  0.3590 -2.2170
19056TIP3   OH278658   2.431   0.144  11.494 -0.0597 -0.2442 -0.0391
19056TIP3    H178659   2.395   0.172  11.578 -4.1242  1.3435 -1.9807
19056TIP3    H278660   2.492   0.213  11.469 -0.3950  0.3337  0.7193
19057TIP3   OH278661   5.619   4.954  14.056 -0.4261 -0.3548  0.1816
19057TIP3    H178662   5.553   5.003  14.008  0.0658  1.3100  1.1239
19057TIP3    H278663   5.647   4.885  13.995 -1.0195  0.6399 -1.2705
19058TIP3   OH278664   5.338   0.466  17.083 -0.2932 -0.7311  0.8653
19058TIP3    H178665   5.342   0.393  17.022  0.5939  0.0134 -0.0040
19058TIP3    H278666   5.259   0.514  17.058  0.3901 -0.0781 -0.1648
19059TIP3   OH278667   5.166   3.457  14.382  0.0390  0.1556 -0.1171
19059TIP3    H178668   5.096   3.444  14.318  0.2624  1.5132 -0.6857
19059TIP3    H278669   5.131   3.421  14.464 -1.6454  1.4347 -0.2096
19060TIP3   OH278670   4.984   2.924  16.799  0.7108  0.0970 -0.2134
19060TIP3    H178671   4.930   3.003  16.807 -3.6489 -2.4571 -0.9340
19060TIP3    H278672   4.971   2.896  16.708  1.0453 -2.1178  0.3764
19061TIP3   OH278673   0.680   4.051  13.789 -0.0810 -1.0496 -0.2266
19061TIP3    H178674   0.613   4.019  13.729  0.1687 -1.2169 -0.4172
19061TIP3    H278675   0.638   4.124  13.835  0.0374 -0.2542 -1.3209
19062TIP3   OH278676   6.077   4.647   6.501 -0.0154  0.3608 -0.1380
19062TIP3    H178677   6.077   4.552   6.505 -1.8179  0.2858 -1.0837
19062TIP3    H278678   6.099   4.667   6.410 -0.1280  0.8365 -0.0655
19063TIP3   OH278679   0.594   2.050  17.016  0.1288 -0.0105  0.2998
19063TIP3    H178680   0.648   2.125  17.041  1.1489 -0.8570  0.7741
19063TIP3    H278681   0.548   2.077  16.937  0.5461  1.0756  0.4184
19064TIP3   OH278682   0.014   0.301   1.527  0.0918  0.5089  0.4588
19064TIP3    H178683   0.010   0.394   1.504 -0.6958  0.2611 -0.4660
19064TIP3    H278684  -0.061   0.262   1.482  1.9828 -1.0895 -1.5026
19065TIP3   OH278685   0.331   5.655  17.150 -0.5300 -0.6596  0.3671
19065TIP3    H178686   0.247   5.692  17.123  0.4396  0.4995 -1.2272
19065TIP3    H278687   0.344   5.580  17.092 -0.4152 -0.7921  0.5622
19066TIP3   OH278688   5.924   3.010   1.548  0.3193  0.4914 -0.7402
19066TIP3    H178689   5.840   2.978   1.516  0.5390 -0.9955  0.0729
19066TIP3    H278690   5.903   3.058   1.628  0.1286  1.2177 -1.2184
19067TIP3   OH278691   3.573   4.843  14.607  0.2042  0.4923  0.2869
19067TIP3    H178692   3.548   4.800  14.525  0.1157  2.6353 -0.9067
19067TIP3    H278693   3.663   4.816  14.623 -0.5241 -1.8336  0.8447
19068TIP3   OH278694   6.057   4.841   4.601  0.1184  0.3549  0.2422
19068TIP3    H178695   5.997   4.882   4.663  1.6449  0.9051  1.4233
19068TIP3    H278696   6.144   4.869   4.629  0.9546 -0.4196 -1.3980
19069TIP3   OH278697   5.252   0.813   2.444  0.2786  0.8103 -0.4243
19069TIP3    H178698   5.346   0.820   2.429  0.1251  2.4462 -0.8253
19069TIP3    H278699   5.214   0.802   2.357  0.0947 -0.0172 -0.2494
19070TIP3   OH278700   0.709   5.759  11.683 -0.5093  0.2664  0.2720
19070TIP3    H178701   0.802   5.775  11.700 -0.5230  0.3613  0.2603
19070TIP3    H278702   0.697   5.665  11.696  0.3149 -0.4217 -3.0481
19071TIP3   OH278703   1.716   4.776  12.420  0.3444 -0.8138 -0.5017
19071TIP3    H178704   1.642   4.717  12.413 -1.3082  0.8871  1.3699
19071TIP3    H278705   1.779   4.730  12.475  0.9623 -2.4482 -2.4548
19072TIP3   OH278706   5.823   2.813  14.142  0.1697 -0.0007 -0.1883
19072TIP3    H178707   5.786   2.883  14.197 -0.2377  1.3892 -2.1324
19072TIP3    H278708   5.895   2.777  14.194  0.3588  1.8309  0.9063
19073TIP3   OH278709   3.348   5.392   1.419  0.1555 -0.0923  0.2978
19073TIP3    H178710   3.361   5.470   1.473  0.0989  0.5916 -0.6574
19073TIP3    H278711   3.429   5.383   1.369 -0.6373  0.6230 -1.1704
19074TIP3   OH278712   2.836   4.256   0.517 -0.6797 -0.2322  0.1177
19074TIP3    H178713   2.746   4.243   0.488 -0.7488 -0.3611  0.3843
19074TIP3    H278714   2.889   4.224   0.444 -0.8518 -1.1258  0.3656
19075TIP3   OH278715   6.657   1.472   2.674  0.2920  0.2964 -0.1204
19075TIP3    H178716   6.649   1.493   2.767 -2.4026  0.2821 -0.2881
19075TIP3    H278717   6.583   1.415   2.655  0.7291  0.3447 -2.3071
19076TIP3   OH278718   1.135   6.099  15.207 -0.1444  0.4973 -0.5898
19076TIP3    H178719   1.181   6.122  15.288  1.1039  1.8818 -1.6159
19076TIP3    H278720   1.043   6.114  15.226  0.0334 -0.0397  0.8145
19077TIP3   OH278721   0.562   4.107   4.295 -0.3693  0.0571 -0.2712
19077TIP3    H178722   0.532   4.040   4.356 -1.1148  0.7306  0.1169
19077TIP3    H278723   0.622   4.061   4.237  1.7476 -0.2361  2.0026
19078TIP3   OH278724   6.167   5.673   3.681 -0.1771  0.6279  0.4137
19078TIP3    H178725   6.211   5.612   3.623  0.7025  1.0381  0.6376
19078TIP3    H278726   6.181   5.638   3.769 -1.7724 -0.1622  0.3951
19079TIP3   OH278727   5.206   6.712  11.403 -0.4101 -0.0584  0.1378
19079TIP3    H178728   5.197   6.741  11.494  1.3301 -0.9863  0.6538
19079TIP3    H278729   5.170   6.784  11.351 -0.3735  1.0027  1.5201
19080TIP3   OH278730   5.059   1.658   6.239 -0.0692  0.0425 -0.2009
19080TIP3    H178731   5.131   1.636   6.297 -0.6941 -1.6381 -0.0048
19080TIP3    H278732   5.007   1.722   6.288 -0.3619 -1.0364  0.9582
19081TIP3   OH278733   1.596   2.352   3.567  0.1485  0.8415  0.8150
19081TIP3    H178734   1.555   2.413   3.506  0.2756  0.1432  0.0121
19081TIP3    H278735   1.564   2.379   3.653 -1.0927  1.0167  0.3197
19082TIP3   OH278736   4.897   2.159   3.442 -0.7464  0.3225 -0.0013
19082TIP3    H178737   4.838   2.134   3.513 -0.8023  0.5487  0.0339
19082TIP3    H278738   4.984   2.161   3.482 -0.5562 -1.0347 -0.2953
19083TIP3   OH278739   1.101   5.224   6.299 -0.1865  0.1599  0.5562
19083TIP3    H178740   1.136   5.136   6.313  0.0388 -0.1254 -1.5067
19083TIP3    H278741   1.135   5.275   6.373 -0.6990 -1.5521  2.0470
19084TIP3   OH278742   1.524   6.031   3.250 -0.4071 -0.6564 -0.1128
19084TIP3    H178743   1.465   6.060   3.320  0.5002  0.2697  0.2977
19084TIP3    H278744   1.517   5.935   3.251 -2.5890 -0.5416 -0.7042
19085TIP3   OH278745   3.261   4.143   2.467 -0.1003  0.3088 -0.4286
19085TIP3    H178746   3.302   4.064   2.503 -0.6318 -0.4782 -1.4834
19085TIP3    H278747   3.224   4.188   2.543 -0.2863 -0.7630  0.1306
19086TIP3   OH278748   0.859   1.833   5.064 -0.7666  0.3195  0.3331
19086TIP3    H178749   0.793   1.814   5.131  0.0515 -0.2854  0.9735
19086TIP3    H278750   0.843   1.767   4.996 -1.1925  0.5478  0.2015
19087TIP3   OH278751   5.282   0.596   3.265  0.2484  0.0970 -0.0322
19087TIP3    H178752   5.187   0.602   3.260  0.2981 -0.2003 -1.9677
19087TIP3    H278753   5.299   0.508   3.297 -0.1150  0.3644  0.9303
19088TIP3   OH278754   6.003   2.699   5.402  0.0642  0.1525 -0.5076
19088TIP3    H178755   6.091   2.726   5.376  0.9492  0.3073  2.3189
19088TIP3    H278756   6.014   2.612   5.439 -1.3539 -0.6681 -1.9253
19089TIP3   OH278757   0.339   5.819  11.073 -0.0832 -0.7611 -0.2284
19089TIP3    H178758   0.434   5.806  11.079 -0.0538 -0.6012 -0.3261
19089TIP3    H278759   0.324   5.841  10.981 -0.1638 -0.4000 -0.1336
19090TIP3   OH278760   0.506   4.796   5.494  0.7023  0.1781 -0.2822
19090TIP3    H178761   0.471   4.857   5.430 -0.7202 -2.4181 -2.1704
19090TIP3    H278762   0.594   4.774   5.462  0.3883 -0.3368 -0.8105
19091TIP3   OH278763   0.943   6.333   4.054  0.6459 -0.1782  0.3134
19091TIP3    H178764   0.992   6.258   4.020  0.5969 -0.5452  1.0341
19091TIP3    H278765   0.851   6.307   4.048  0.4393  0.8597 -1.8791
19092TIP3   OH278766   5.482   0.431   1.071 -0.3258 -0.1956  0.6393
19092TIP3    H178767   5.403   0.483   1.055  0.6530  1.3477  0.6363
19092TIP3    H278768   5.517   0.467   1.153 -0.1325 -1.5333  1.1685
19093TIP3   OH278769   2.342   1.038  17.070  0.0180 -0.2178  0.0827
19093TIP3    H178770   2.423   1.087  17.058 -0.6986  1.9034  2.7900
19093TIP3    H278771   2.333   0.986  16.990  2.9908  0.9500 -1.1623
19094TIP3   OH278772   2.923   1.787   0.607 -0.0440 -0.0983 -0.6265
19094TIP3    H178773   3.006   1.796   0.654 -0.2364 -0.0079 -0.3029
19094TIP3    H278774   2.941   1.823   0.520  0.4159 -0.6101 -0.7482
19095TIP3   OH278775   1.270   4.368   3.537  0.0534  0.3140 -0.2941
19095TIP3    H178776   1.362   4.366   3.562  0.3837  2.2572 -1.1997
19095TIP3    H278777   1.225   4.321   3.607  1.7001 -0.5483  0.2340
19096TIP3   OH278778   0.529   6.307   3.232  0.5540 -0.1157 -0.7197
19096TIP3    H178779   0.563   6.335   3.317 -0.6213 -0.6003 -0.0694
19096TIP3    H278780   0.456   6.366   3.215  1.9611  1.2557 -2.3508
19097TIP3   OH278781   1.950   1.965   6.241 -0.0168 -0.9328 -0.5042
19097TIP3    H178782   2.019   1.989   6.180 -0.7560 -1.0395 -1.4119
19097TIP3    H278783   1.994   1.951   6.324  0.7533  1.4034 -0.4507
19098TIP3   OH278784   3.114   4.334  11.469  0.4284  0.0698 -0.2108
19098TIP3    H178785   3.194   4.318  11.419  1.3005  1.6469  0.5883
19098TIP3    H278786   3.044   4.298  11.415  1.7284 -2.1333 -0.5582
19099TIP3   OH278787   4.185   0.592  15.237 -0.2370  0.0146  0.5660
19099TIP3    H178788   4.241   0.542  15.177 -0.6045  0.4372 -0.1375
19099TIP3    H278789   4.162   0.529  15.306  0.4347 -0.3901  0.4319
19100TIP3   OH278790   6.712   0.118   5.739 -0.6662  0.6293 -0.1213
19100TIP3    H178791   6.804   0.118   5.763 -0.7351  0.6278  0.1386
19100TIP3    H278792   6.667   0.157   5.814 -1.1006 -1.1204  0.5762
19101TIP3   OH278793   4.445   6.651  15.214 -0.3121  0.1186  0.3744
19101TIP3    H178794   4.428   6.663  15.120 -1.0603 -1.0856  0.3430
19101TIP3    H278795   4.404   6.727  15.255 -0.9159  0.1002 -0.1849
19102TIP3   OH278796   0.068   5.022  14.605  0.3058 -0.0731  0.4696
19102TIP3    H178797   0.080   5.117  14.613  1.9841 -0.3624  1.7293
19102TIP3    H278798   0.033   4.995  14.690 -0.1632 -0.6025  0.1161
19103TIP3   OH278799   6.509   3.681  12.239  0.3903 -0.1734  0.3771
19103TIP3    H178800   6.491   3.775  12.231  0.0429 -0.1338  1.4404
19103TIP3    H278801   6.427   3.644  12.273  1.1670 -0.5324  1.9428
19104TIP3   OH278802   5.378   1.574   4.687 -0.2986 -0.3907 -0.5529
19104TIP3    H178803   5.373   1.567   4.592 -0.1431  0.6768 -0.6574
19104TIP3    H278804   5.452   1.633   4.703  0.5913 -1.7001  0.2923
19105TIP3   OH278805   3.794   3.128   2.658  0.2833  0.3086  0.4532
19105TIP3    H178806   3.839   3.207   2.627  0.8352  0.2739  1.1408
19105TIP3    H278807   3.778   3.144   2.751  0.9219 -0.6137  0.7373
19106TIP3   OH278808   0.182   2.943   5.205 -0.2696  0.1652 -0.2199
19106TIP3    H178809   0.110   2.941   5.141  0.4147  1.5539 -1.0974
19106TIP3    H278810   0.142   2.980   5.284 -0.9749 -0.9663 -0.0223
19107TIP3   OH278811   0.817   1.621   1.621 -0.7715  0.1000  0.0142
19107TIP3    H178812   0.811   1.555   1.690  0.1573  0.1098  0.1156
19107TIP3    H278813   0.836   1.703   1.667  0.1102  0.0622 -0.2498
19108TIP3   OH278814   2.377   0.277  12.042  0.4353 -0.3617 -0.1334
19108TIP3    H178815   2.385   0.226  12.122  0.1265 -0.7918 -0.3698
19108TIP3    H278816   2.287   0.262  12.013  0.0818  0.9399  0.2042
19109TIP3   OH278817   2.348   6.172  13.932 -0.1497  0.2990 -0.0077
19109TIP3    H178818   2.312   6.225  14.003  0.3176 -0.4273  0.7889
19109TIP3    H278819   2.299   6.090  13.937  0.0081  0.1780 -0.4148
19110TIP3   OH278820   0.278   0.016  14.035  0.1605  0.2423 -0.3244
19110TIP3    H178821   0.350  -0.036  13.998 -0.1189 -0.5423  0.2078
19110TIP3    H278822   0.280  -0.003  14.129 -0.6641  0.3038 -0.2862
19111TIP3   OH278823   1.314   6.566   0.549  0.2065  0.8062  0.3365
19111TIP3    H178824   1.233   6.576   0.499 -0.3125  0.5469  1.1089
19111TIP3    H278825   1.319   6.644   0.603  0.3532  0.7143  0.4547
19112TIP3   OH278826   1.811   6.298   3.448 -0.6658  0.0984 -0.3521
19112TIP3    H178827   1.733   6.351   3.431  1.3954  3.5766  0.2071
19112TIP3    H278828   1.805   6.275   3.541 -0.7954  0.7764 -0.1914
19113TIP3   OH278829   4.670   2.877   5.270 -0.0250 -0.4044  0.2758
19113TIP3    H178830   4.711   2.842   5.349  0.7123 -1.9493 -0.7430
19113TIP3    H278831   4.681   2.808   5.205 -3.0553 -0.3590 -0.4476
19114TIP3   OH278832   2.321   6.411  16.633 -0.1520 -0.3010  0.6307
19114TIP3    H178833   2.304   6.443  16.722  0.3151 -0.6660  0.8507
19114TIP3    H278834   2.416   6.409  16.626 -0.1773  0.7868 -0.2655
19115TIP3   OH278835   5.017   5.365  17.466  0.1745 -0.1799  0.0983
19115TIP3    H178836   5.078   5.342  17.536 -0.0000 -0.1410  0.2651
19115TIP3    H278837   5.013   5.288  17.410  0.0790 -0.3253  0.3031
19116TIP3   OH278838   3.136   5.990   4.288 -0.5309  0.3050 -0.2053
19116TIP3    H178839   3.212   6.029   4.333 -0.3647  1.7144 -1.6263
19116TIP3    H278840   3.085   6.065   4.259 -0.9617 -0.5703 -1.8053
19117TIP3   OH278841   3.614   3.752   3.858  0.2161  0.6486 -0.1788
19117TIP3    H178842   3.702   3.767   3.893  0.3081 -0.5721  0.1556
19117TIP3    H278843   3.559   3.814   3.906  0.7113  0.6007  0.4707
19118TIP3   OH278844   1.029   6.238   0.888 -0.1567 -0.1999 -0.4763
19118TIP3    H178845   0.950   6.184   0.887  0.6818 -1.4938  0.0096
19118TIP3    H278846   1.067   6.226   0.801 -0.5278  0.5002 -0.7438
19119TIP3   OH278847   2.120   3.396   1.279  0.1567  0.3386  0.0641
19119TIP3    H178848   2.203   3.354   1.302  0.6587  1.5085  0.4925
19119TIP3    H278849   2.060   3.324   1.264  1.2149 -0.5396 -0.1078
19120TIP3   OH278850   6.137   6.129  17.176 -0.6606  0.0665 -0.1560
19120TIP3    H178851   6.175   6.112  17.262  0.2445 -2.3399 -0.9386
19120TIP3    H278852   6.044   6.142  17.192 -0.6383 -1.1009  1.1460
19121TIP3   OH278853   3.645   1.232   4.690  0.4683 -0.1947 -0.0911
19121TIP3    H178854   3.623   1.162   4.752  1.3744 -0.2985  0.1262
19121TIP3    H278855   3.630   1.313   4.739  2.3450 -0.2809  0.7231
19122TIP3   OH278856   1.539   2.977  16.011 -0.2024 -0.5155  0.4362
19122TIP3    H178857   1.549   3.072  16.012 -0.1404 -0.4996 -0.6481
19122TIP3    H278858   1.457   2.962  15.965 -0.4579 -0.9807  1.0285
19123TIP3   OH278859   2.238   4.501   0.910  0.0568  0.3456 -0.1097
19123TIP3    H178860   2.169   4.474   0.971  1.3812 -1.5245  0.6681
19123TIP3    H278861   2.308   4.535   0.966  0.6263  0.1746 -0.6963
19124TIP3   OH278862   3.927   5.684  12.899  0.2640 -0.1478 -0.7051
19124TIP3    H178863   3.902   5.673  12.807 -0.6052 -0.7307 -0.4158
19124TIP3    H278864   4.018   5.713  12.896 -0.0585  0.8618 -1.7766
19125TIP3   OH278865   2.288   2.399   6.585  0.5324 -0.1929 -0.1107
19125TIP3    H178866   2.215   2.337   6.576 -0.2365  0.6663  0.1340
19125TIP3    H278867   2.331   2.374   6.667  0.3895 -0.5563 -0.1431
19126TIP3   OH278868   4.858   4.130   1.348 -0.0132 -0.1488  0.0957
19126TIP3    H178869   4.942   4.175   1.360 -0.3310  0.4024  0.2488
19126TIP3    H278870   4.830   4.156   1.260 -0.0886 -0.2305  0.0957
19127TIP3   OH278871   3.241   0.368  15.023  0.1024  0.0762  0.0480
19127TIP3    H178872   3.315   0.332  14.974 -0.8448 -0.3401 -1.1296
19127TIP3    H278873   3.193   0.421  14.959  0.4708  2.0166  1.3005
19128TIP3   OH278874   4.379   6.678  13.711  0.1319 -0.0148 -0.3142
19128TIP3    H178875   4.291   6.640  13.716  0.4590 -0.8263 -0.5276
19128TIP3    H278876   4.429   6.632  13.778  0.1968  1.0268  0.3752
19129TIP3   OH278877   1.623   3.940  17.599 -0.1571 -0.0060 -0.0344
19129TIP3    H178878   1.545   3.929  17.652  0.0310 -0.5356  0.1334
19129TIP3    H278879   1.596   4.000  17.529 -0.6327  0.0296  0.1746
19130TIP3   OH278880   4.163   5.211  16.044  0.1800  0.8176  0.1482
19130TIP3    H178881   4.095   5.278  16.033  1.3011  1.8497 -0.8700
19130TIP3    H278882   4.119   5.139  16.089 -2.0699  0.7151 -1.9867
19131TIP3   OH278883   0.263   2.957  14.042  0.3316 -0.8003  0.0398
19131TIP3    H178884   0.241   2.969  13.950  0.8208  1.6465  0.1681
19131TIP3    H278885   0.345   3.005  14.054  0.3521 -1.1707  1.7167
19132TIP3   OH278886   0.912   5.180   1.980  0.7007  0.3968 -0.1681
19132TIP3    H178887   0.984   5.143   2.032  1.3631  0.6922 -0.8550
19132TIP3    H278888   0.949   5.190   1.892  0.1981  1.6669 -0.2593
19133TIP3   OH278889   0.876   0.609  13.216  0.1897  0.2089  0.7839
19133TIP3    H178890   0.782   0.594  13.210  0.1339  0.5880  0.6660
19133TIP3    H278891   0.909   0.593  13.128 -0.0428  1.8662  0.3497
19134TIP3   OH278892   5.104   2.630   4.507  0.1676  0.3039 -0.5702
19134TIP3    H178893   5.062   2.638   4.592 -0.4906  0.9219 -0.9329
19134TIP3    H278894   5.195   2.656   4.522  0.7396 -2.0523  0.4397
19135TIP3   OH278895   5.440   2.874  15.574 -0.5329 -0.6157 -0.1273
19135TIP3    H178896   5.473   2.792  15.536  0.4446  0.0852 -0.8112
19135TIP3    H278897   5.514   2.934  15.572 -0.8291 -0.1201  1.6785
19136TIP3   OH278898   2.885   5.383  13.608 -0.0527  0.1858 -0.2063
19136TIP3    H178899   2.891   5.404  13.515  1.1960 -0.9762 -0.4264
19136TIP3    H278900   2.944   5.446  13.651 -2.2113  2.1203  0.1109
19137TIP3   OH278901   4.763   6.245  15.531  0.4225  0.2381 -0.2578
19137TIP3    H178902   4.717   6.310  15.585  0.0072  0.1020 -0.4419
19137TIP3    H278903   4.693   6.201  15.482  0.5725 -1.1554  0.7312
19138TIP3   OH278904   2.781   0.774  17.365  0.0989 -0.3133 -0.0762
19138TIP3    H178905   2.689   0.793  17.347  0.7360  1.5861 -1.6708
19138TIP3    H278906   2.826   0.789  17.282  1.6245 -3.2112  0.0802
19139TIP3   OH278907   3.627   5.520  11.347 -0.2037  0.3106  0.1093
19139TIP3    H178908   3.586   5.505  11.262 -0.5531  1.0350  0.1411
19139TIP3    H278909   3.714   5.555  11.326  0.3901 -1.1312  0.0439
19140TIP3   OH278910   4.596   1.365  16.706  0.5101  0.4200  0.0219
19140TIP3    H178911   4.618   1.458  16.701  0.6818  0.3488 -0.5402
19140TIP3    H278912   4.666   1.321  16.659 -0.4116  0.1319 -1.1084
19141TIP3   OH278913   2.572   6.504  13.987  0.3077 -0.4002  0.0075
19141TIP3    H178914   2.566   6.460  14.072  1.7894 -1.7513 -0.5363
19141TIP3    H278915   2.538   6.592  14.003 -0.4429 -0.9589  1.7347
19142TIP3   OH278916   6.228   6.240   1.619 -0.1067  0.2606 -0.2044
19142TIP3    H178917   6.161   6.210   1.558  2.6083 -1.7888 -2.4948
19142TIP3    H278918   6.220   6.182   1.694 -0.5841 -0.3218 -0.6932
19143TIP3   OH278919   5.694   2.241   4.379 -0.7815 -0.5045  0.5505
19143TIP3    H178920   5.626   2.302   4.349 -0.1978 -0.0814  0.0525
19143TIP3    H278921   5.751   2.294   4.434 -1.1067 -0.9681  1.3401
19144TIP3   OH278922   6.604   5.606   2.066  0.4109 -0.1579 -0.1639
19144TIP3    H178923   6.547   5.682   2.077  1.8138  0.8211  0.6442
19144TIP3    H278924   6.591   5.580   1.975 -0.3501  0.8349 -0.3590
19145TIP3   OH278925   0.522   5.493   1.258  0.6530  0.2742 -0.0283
19145TIP3    H178926   0.523   5.589   1.260 -1.5773  0.3476 -0.6969
19145TIP3    H278927   0.600   5.470   1.208  0.5644  1.7887 -0.9201
19146TIP3   OH278928   5.667   1.629   1.130 -0.2997 -0.3179  0.1284
19146TIP3    H178929   5.684   1.541   1.164  3.6518  0.5723  0.8332
19146TIP3    H278930   5.726   1.638   1.056  0.2233  2.1349  0.7656
19147TIP3   OH278931   4.446   3.740  15.344 -0.0815  0.8725 -0.0276
19147TIP3    H178932   4.393   3.660  15.347  1.1562  0.0049  2.8992
19147TIP3    H278933   4.423   3.787  15.424  3.0748  0.6987  1.1114
19148TIP3   OH278934   2.073   2.362  12.254 -0.3185 -0.1342 -0.0499
19148TIP3    H178935   2.152   2.310  12.266 -0.9777 -0.6605  2.5057
19148TIP3    H278936   2.101   2.452  12.270  0.1996  0.0156 -1.5604
19149TIP3   OH278937   1.069   0.902  13.033  0.4816 -0.1337  0.6800
19149TIP3    H178938   1.062   0.926  12.940  0.3764 -1.3277  0.3661
19149TIP3    H278939   1.156   0.933  13.059  0.3028  0.6786  0.3332
19150TIP3   OH278940   0.309   1.197  16.552 -0.1726 -0.0926  0.1822
19150TIP3    H178941   0.321   1.184  16.647 -0.0466 -1.3319  0.0109
19150TIP3    H278942   0.393   1.170  16.514 -1.0382 -2.0428 -0.4629
19151TIP3   OH278943   3.647   1.422   5.358  0.4780 -0.5461 -0.4958
19151TIP3    H178944   3.721   1.438   5.417  0.1691 -1.0857  0.0375
19151TIP3    H278945   3.627   1.508   5.321  0.3502 -0.1131  0.5589
19152TIP3   OH278946   3.622   3.620  11.983  0.0034 -0.3021 -0.1342
19152TIP3    H178947   3.568   3.597  11.908 -0.2501 -0.5812  0.1329
19152TIP3    H278948   3.585   3.571  12.056 -1.2380  1.6969  0.6885
19153TIP3   OH278949   0.874   1.475  13.567 -0.0720 -0.8190  0.1029
19153TIP3    H178950   0.862   1.462  13.473  1.8342  0.3639 -0.3572
19153TIP3    H278951   0.871   1.569  13.579  3.4819 -0.6038  0.5180
19154TIP3   OH278952   5.243   2.892   3.812  0.1731 -0.2038 -0.0939
19154TIP3    H178953   5.211   2.835   3.742 -0.7901  2.4779 -1.9994
19154TIP3    H278954   5.278   2.969   3.766  0.7051  1.0994  2.3402
19155TIP3   OH278955   5.791   5.083   4.955 -0.2766 -0.0786  0.4803
19155TIP3    H178956   5.715   5.128   4.916 -0.3949  0.7662  1.6016
19155TIP3    H278957   5.843   5.054   4.881 -2.0593 -1.3377 -0.3537
19156TIP3   OH278958   3.112   1.422  15.344 -0.3539 -0.7890  0.4728
19156TIP3    H178959   3.085   1.381  15.262  1.9165 -0.6896 -0.4066
19156TIP3    H278960   3.137   1.349  15.400 -1.0558 -0.8168  0.7535
19157TIP3   OH278961   3.902   3.749   5.767  0.5786 -0.2235  0.2854
19157TIP3    H178962   3.869   3.831   5.731  2.7016  0.8045  0.5155
19157TIP3    H278963   3.881   3.753   5.860  2.8475  1.2985  0.8053
19158TIP3   OH278964   5.492   5.960  14.260  0.5239  1.3506 -0.2419
19158TIP3    H178965   5.417   6.008  14.296 -0.3429  0.3135 -0.5819
19158TIP3    H278966   5.502   5.884  14.318  1.5422  1.6477 -0.0080
19159TIP3   OH278967   0.901   2.957  11.885  0.0324 -0.2270  0.2397
19159TIP3    H178968   0.831   2.988  11.827  1.5253  0.6170 -1.1798
19159TIP3    H278969   0.965   2.917  11.827  2.2084  1.8111  1.0693
19160TIP3   OH278970   2.005   1.400   0.116 -0.1297 -0.0217 -0.7440
19160TIP3    H178971   2.086   1.390   0.167 -0.5483 -0.8687 -0.2185
19160TIP3    H278972   2.035   1.425   0.029  0.6643  0.3626 -0.3722
19161TIP3   OH278973   4.563   6.030  17.421 -0.5486 -0.2847  0.4786
19161TIP3    H178974   4.598   5.967  17.484  0.2183 -0.7289 -0.3615
19161TIP3    H278975   4.468   6.021  17.428 -0.4636 -0.7326  1.1581
19162TIP3   OH278976   4.729   5.322  17.090 -0.5905  0.4981  0.3699
19162TIP3    H178977   4.700   5.413  17.099 -0.8126  0.7040 -1.9081
19162TIP3    H278978   4.791   5.323  17.017  0.7523 -0.9245  1.4146
19163TIP3   OH278979   0.951   6.394  17.327  0.2849  0.4803  0.2188
19163TIP3    H178980   1.022   6.456  17.338  0.9318 -0.2484  0.2206
19163TIP3    H278981   0.878   6.447  17.296  1.3456  0.9718 -1.5657
19164TIP3   OH278982   0.677   4.191  11.965 -0.2701  0.3301 -0.1505
19164TIP3    H178983   0.588   4.156  11.970  0.4043 -1.3645  0.6106
19164TIP3    H278984   0.668   4.282  11.996 -1.6106 -0.0338  0.6372
19165TIP3   OH278985   3.620   5.858  13.298 -0.3626  0.1381  0.1147
19165TIP3    H178986   3.686   5.820  13.240 -0.1587  2.3995 -1.2991
19165TIP3    H278987   3.537   5.845  13.252 -0.5556 -0.3068  0.5779
19166TIP3   OH278988   5.811   2.686   1.128 -0.0281  0.2680 -0.1179
19166TIP3    H178989   5.809   2.743   1.051  1.6556 -1.7975 -1.7742
19166TIP3    H278990   5.872   2.729   1.188  1.3043  0.1791 -1.3862
19167TIP3   OH278991   5.801   0.614   0.784 -0.3852  0.0622 -0.0584
19167TIP3    H178992   5.872   0.553   0.803  0.5759  1.3134  0.5119
19167TIP3    H278993   5.723   0.559   0.778  0.6037 -1.3241 -0.5797
19168TIP3   OH278994   1.877   2.828   4.349 -0.4739  0.3925 -0.5092
19168TIP3    H178995   1.838   2.748   4.385 -1.5159 -0.2519 -2.9014
19168TIP3    H278996   1.942   2.797   4.286  0.4432  1.4822 -0.1533
19169TIP3   OH278997   4.080   2.149  12.353 -0.0617  0.4036  0.0946
19169TIP3    H178998   4.002   2.198  12.325 -1.4731 -1.6789  0.1219
19169TIP3    H278999   4.070   2.063  12.312  3.3735  0.6729 -1.6765
19170TIP3   OH279000   0.075   0.347  12.280 -0.3034  0.2239 -0.2918
19170TIP3    H179001   0.148   0.364  12.339  0.3742 -0.9213 -0.7641
19170TIP3    H279002   0.054   0.433  12.243  1.7303  0.3934 -1.1831
19171TIP3   OH279003   3.869   2.184   2.484  0.3340 -0.0851 -0.3808
19171TIP3    H179004   3.793   2.207   2.429 -0.3314  0.0360  0.5629
19171TIP3    H279005   3.842   2.104   2.530  0.1670  0.7691  1.0801
19172TIP3   OH279006   4.391   5.209  15.204 -0.2113 -0.2370 -0.2843
19172TIP3    H179007   4.327   5.250  15.146  0.4205 -1.0332 -1.5841
19172TIP3    H279008   4.467   5.267  15.202 -0.5041  0.1853  0.4571
19173TIP3   OH279009   1.188   0.684   1.229  0.0793 -0.1910  0.3511
19173TIP3    H179010   1.205   0.713   1.319  1.1928 -1.2569  0.5047
19173TIP3    H279011   1.095   0.663   1.228  0.0234 -0.0321  1.2132
19174TIP3   OH279012   4.459   3.737   4.460 -0.3714 -0.1328 -0.1020
19174TIP3    H179013   4.546   3.716   4.428 -0.3915 -1.1096  0.4265
19174TIP3    H279014   4.472   3.759   4.553 -0.7426 -0.8462  0.1301
19175TIP3   OH279015   0.176   3.627  11.938 -0.0657  0.2296 -0.3572
19175TIP3    H179016   0.211   3.539  11.955 -0.8951  0.0743  0.6265
19175TIP3    H279017   0.237   3.686  11.982 -0.2088  0.0571  0.0809
19176TIP3   OH279018   2.548   3.907  15.372 -0.4782 -0.0054  0.7906
19176TIP3    H179019   2.631   3.945  15.403  1.3390 -2.1074 -1.1619
19176TIP3    H279020   2.486   3.927  15.442  1.6582  1.6657  2.3652
19177TIP3   OH279021   1.157   1.001  12.787  0.2644 -0.4811  0.0924
19177TIP3    H179022   1.179   1.088  12.820 -0.3858 -1.0414  2.1577
19177TIP3    H279023   1.080   1.015  12.733  0.8840  0.3661 -0.6095
19178TIP3   OH279024   4.199   0.096   3.829 -0.8779 -0.0668 -0.1048
19178TIP3    H179025   4.226   0.124   3.741 -0.3624  0.2697  0.1552
19178TIP3    H279026   4.112   0.057   3.816 -0.1950 -1.3530 -0.9851
19179TIP3   OH279027   1.670   1.144  13.598  0.3337 -0.0848 -0.9597
19179TIP3    H179028   1.694   1.192  13.677  0.3030  0.0249 -1.0162
19179TIP3    H279029   1.616   1.206  13.548  0.2406 -0.2011 -1.0033
19180TIP3   OH279030   3.011   2.833  15.358  0.1647  0.8262  0.1751
19180TIP3    H179031   2.956   2.911  15.353  0.7225  1.1501 -1.4121
19180TIP3    H279032   3.002   2.803  15.449 -1.5445  1.6379  0.3111
19181TIP3   OH279033   2.273   5.925  15.948 -0.0779  0.4792  0.1149
19181TIP3    H179034   2.222   5.993  15.905 -0.4094  0.2977  0.2234
19181TIP3    H279035   2.223   5.903  16.027 -0.4396 -0.5371 -0.3849
19182TIP3   OH279036   6.519   1.229   6.338 -0.8185 -0.8527 -0.5401
19182TIP3    H179037   6.567   1.298   6.383 -1.2728 -1.3443  0.7571
19182TIP3    H279038   6.574   1.151   6.349 -0.6090 -0.8464 -1.4513
19183TIP3   OH279039   2.615   5.168   1.188  0.1461  0.1333  0.0571
19183TIP3    H179040   2.627   5.233   1.257  0.9770  0.2185 -0.1568
19183TIP3    H279041   2.654   5.088   1.222  0.4139  0.1322 -0.2427
19184TIP3   OH279042   5.634   0.282   2.566 -0.6644  0.5310  0.3898
19184TIP3    H179043   5.642   0.244   2.654 -0.3704  0.1655  0.2111
19184TIP3    H279044   5.541   0.274   2.545 -0.7323  0.5958  0.6562
19185TIP3   OH279045   0.768   0.533  16.629 -0.1734 -0.0130 -0.1159
19185TIP3    H179046   0.762   0.470  16.701 -1.1288  0.2182  0.0202
19185TIP3    H279047   0.754   0.618  16.670 -2.4636 -0.0032 -0.7830
19186TIP3   OH279048   3.086   4.229  15.571  0.4934 -0.0323  0.6332
19186TIP3    H179049   3.103   4.137  15.553  0.1096 -0.4369  2.1723
19186TIP3    H279050   3.125   4.244  15.657 -0.8664  0.8092  1.1355
19187TIP3   OH279051   5.260   3.967  13.616  0.5669 -0.0960  0.4026
19187TIP3    H179052   5.210   3.991  13.694  0.5142 -1.9271  0.9725
19187TIP3    H279053   5.202   3.909  13.566  1.8002 -1.7000  0.7331
19188TIP3   OH279054   3.950   1.468   0.344  0.2395 -0.1150  0.3249
19188TIP3    H179055   3.911   1.424   0.420  0.0835 -2.1490 -0.8654
19188TIP3    H279056   3.915   1.557   0.348 -0.3618 -0.3856  2.2042
19189TIP3   OH279057   0.072   0.166   2.006  0.7537 -0.2405 -0.0399
19189TIP3    H179058   0.081   0.207   2.092  0.6339  0.1576 -0.2187
19189TIP3    H279059   0.040   0.235   1.949  0.7006 -0.5397 -0.3777
19190TIP3   OH279060   4.762   5.749   3.439 -0.4762  0.6448 -0.1931
19190TIP3    H179061   4.716   5.827   3.409  4.0400  3.4880 -0.6648
19190TIP3    H279062   4.806   5.716   3.361  1.2142  0.3305  0.8504
19191TIP3   OH279063   3.740   2.102  16.302 -0.4459  0.3167 -0.0339
19191TIP3    H179064   3.761   2.159  16.228 -0.5465  0.8059  0.3165
19191TIP3    H279065   3.755   2.156  16.379 -2.1770  0.4168  0.2602
19192TIP3   OH279066   1.449   2.636  12.211  0.6519 -0.1993  0.2458
19192TIP3    H179067   1.478   2.699  12.278 -2.3978  1.3995  0.2155
19192TIP3    H279068   1.453   2.685  12.129  0.0071 -0.6514 -0.0575
19193TIP3   OH279069   3.490   5.225  16.117  0.2216 -0.5669 -0.0091
19193TIP3    H179070   3.402   5.241  16.083  0.6586 -0.8952 -1.3440
19193TIP3    H279071   3.513   5.306  16.163 -0.3254 -0.0439 -0.6419
19194TIP3   OH279072   0.855   2.525  16.187  0.0627 -0.3180 -0.8598
19194TIP3    H179073   0.942   2.534  16.148  0.8842 -2.8187  0.2645
19194TIP3    H279074   0.804   2.479  16.120  0.5847 -1.7931 -0.2838
19195TIP3   OH279075   4.642   5.399  16.215 -0.2825  0.3808 -0.0107
19195TIP3    H179076   4.584   5.323  16.203 -0.0231 -0.1789  1.9330
19195TIP3    H279077   4.660   5.429  16.126 -0.3545 -1.8731 -0.8698
19196TIP3   OH279078   2.033   4.499  12.980 -0.2564  0.3778 -0.3263
19196TIP3    H179079   2.004   4.428  12.923 -0.0195 -1.2270  1.4241
19196TIP3    H279080   2.100   4.544  12.929 -0.0447 -0.9893 -1.3325
19197TIP3   OH279081   6.368   1.811  14.942  0.0860 -0.6570  0.2942
19197TIP3    H179082   6.284   1.766  14.954 -0.4089  0.0375 -0.4978
19197TIP3    H279083   6.384   1.856  15.025 -2.4598  2.7013 -0.8155
19198TIP3   OH279084   3.923   0.725   2.715  0.4991 -0.5345 -0.5387
19198TIP3    H179085   3.895   0.634   2.730  1.0399 -0.2322  3.1162
19198TIP3    H279086   3.856   0.760   2.656 -2.2087 -2.1605  1.3048
19199TIP3   OH279087   1.043   0.891   6.238  0.1044  0.1141  0.2590
19199TIP3    H179088   1.036   0.971   6.290  0.8474  0.4734 -0.1859
19199TIP3    H279089   1.056   0.821   6.303  1.1808  0.5799  0.5580
19200TIP3   OH279090   0.546   5.127   5.112  0.0455 -0.6253 -0.3438
19200TIP3    H179091   0.507   5.054   5.064 -0.1581 -0.5790 -0.2491
19200TIP3    H279092   0.600   5.086   5.179 -1.3561 -0.7074  0.7767
19201TIP3   OH279093   1.637   0.343   5.038 -0.6118 -0.2446  0.1038
19201TIP3    H179094   1.635   0.317   5.130 -1.7433  2.5058  0.9667
19201TIP3    H279095   1.619   0.262   4.990 -0.5319 -1.6582  2.3078
19202TIP3   OH279096   0.540   1.445   2.597 -0.1161 -0.2694 -0.3542
19202TIP3    H179097   0.485   1.485   2.530  0.1213  0.9082  0.1265
19202TIP3    H279098   0.618   1.501   2.600  0.5932 -1.2429 -0.2161
19203TIP3   OH279099   4.487   0.519   1.650 -0.3430  0.8676  0.1834
19203TIP3    H179100   4.539   0.504   1.729 -1.8620 -0.1240  1.0392
19203TIP3    H279101   4.455   0.609   1.660  1.6928  1.7707 -0.7090
19204TIP3   OH279102   4.292   3.852   0.234 -0.5094  0.3376 -0.0384
19204TIP3    H179103   4.248   3.875   0.316 -1.9369 -1.7971 -0.1210
19204TIP3    H279104   4.318   3.936   0.196  0.0710  1.3968  2.5005
19205TIP3   OH279105   2.106   2.826   1.902 -0.0626  0.3877 -0.4019
19205TIP3    H179106   2.170   2.756   1.909  0.7731  1.0673 -0.9684
19205TIP3    H279107   2.023   2.786   1.927  0.2825 -0.9545 -1.2896
19206TIP3   OH279108   1.012   2.349   3.280 -0.2474 -0.1382 -0.2654
19206TIP3    H179109   1.096   2.339   3.234 -0.2554  1.2651 -0.6563
19206TIP3    H279110   1.035   2.351   3.373  0.0629 -0.5015 -0.3321
19207TIP3   OH279111   3.936   1.812  12.060  0.2249  0.5056 -0.0435
19207TIP3    H179112   3.919   1.747  12.128  1.8302  1.7902  1.7130
19207TIP3    H279113   3.854   1.860  12.052 -0.3914 -0.5143  0.0001
19208TIP3   OH279114   1.710   0.981  11.730  0.2177  0.0351  0.1815
19208TIP3    H179115   1.714   1.058  11.787 -0.9197  0.4414 -0.2580
19208TIP3    H279116   1.750   1.010  11.648  1.9197 -0.5708  0.7503
19209TIP3   OH279117   1.289   1.787  16.406  0.3831  0.6866  0.3337
19209TIP3    H179118   1.343   1.864  16.388 -0.6023  1.2388 -0.3938
19209TIP3    H279119   1.221   1.818  16.466 -0.1398  0.4657 -0.1215
19210TIP3   OH279120   3.755   3.196   2.937 -0.4150 -0.0761 -0.0705
19210TIP3    H179121   3.687   3.263   2.935 -1.2608 -0.9010  0.0829
19210TIP3    H279122   3.754   3.163   3.027 -2.3262 -2.5412 -0.8874
19211TIP3   OH279123   2.767   5.297   1.003 -0.4806  0.2418 -0.2127
19211TIP3    H179124   2.719   5.237   1.060  0.6970  0.9354  1.6026
19211TIP3    H279125   2.801   5.364   1.062  1.9416  0.2850 -1.5246
19212TIP3   OH279126   3.377   5.331   0.143  0.1948 -0.4761  0.1875
19212TIP3    H179127   3.337   5.366   0.223 -0.3254  2.0191 -1.0550
19212TIP3    H279128   3.463   5.374   0.139 -0.1943  0.2424 -1.0534
19213TIP3   OH279129   6.465   6.281   5.715  0.5373  0.3475  0.2893
19213TIP3    H179130   6.425   6.265   5.629  2.1655  1.4447 -0.7213
19213TIP3    H279131   6.394   6.318   5.768 -0.0920  1.1375 -1.0730
19214TIP3   OH279132   1.338   4.527  15.346  0.6481 -0.1048  0.0600
19214TIP3    H179133   1.362   4.606  15.394  2.2266 -1.0824  1.0142
19214TIP3    H279134   1.243   4.532  15.335  0.6626  1.6599  0.5283
19215TIP3   OH279135   4.100   2.683   6.360 -0.4765  0.1973  0.5042
19215TIP3    H179136   4.097   2.668   6.455 -0.3377 -0.7882  0.3670
19215TIP3    H279137   4.063   2.770   6.348  2.4377  1.7397  1.7342
19216TIP3   OH279138   6.169   4.178  15.598  0.4994 -0.2217 -0.2745
19216TIP3    H179139   6.244   4.150  15.650 -1.1230 -2.5081  1.0515
19216TIP3    H279140   6.137   4.098  15.556 -1.6862  0.4647 -0.0787
19217TIP3   OH279141   3.120   2.523   0.861 -0.5134  0.1827 -0.3790
19217TIP3    H179142   3.084   2.539   0.774 -2.6007 -0.5096  0.3130
19217TIP3    H279143   3.061   2.569   0.921  0.1456 -0.4081  0.7592
19218TIP3   OH279144   0.598   1.430   0.365 -0.3957  0.2249 -0.0934
19218TIP3    H179145   0.602   1.486   0.442  2.6262 -0.3991  0.3662
19218TIP3    H279146   0.555   1.350   0.395  0.8159 -0.0454  1.0547
19219TIP3   OH279147   4.768   4.855  10.853  0.0541  0.7572  0.2692
19219TIP3    H179148   4.697   4.874  10.914  1.0064  0.0463  1.6457
19219TIP3    H279149   4.748   4.768  10.818 -0.7697  1.3772 -0.9039
19220TIP3   OH279150   3.624   1.726  14.963  0.2911  0.2128  0.0234
19220TIP3    H179151   3.627   1.822  14.967  1.2015  0.2596 -1.1120
19220TIP3    H279152   3.587   1.708  14.876 -2.2802 -0.5046  1.1661
19221TIP3   OH279153   4.702   0.383   1.778 -0.0402 -0.1507 -0.3418
19221TIP3    H179154   4.765   0.311   1.770 -1.2611 -1.6336  2.2590
19221TIP3    H279155   4.743   0.455   1.730  3.0374 -1.4190  0.1417
19222TIP3   OH279156   0.071   5.194   2.806 -0.3207 -0.0523  0.1351
19222TIP3    H179157   0.016   5.140   2.748 -0.6436  2.3307 -1.9489
19222TIP3    H279158   0.025   5.192   2.890 -3.0679  0.9018 -1.2172
19223TIP3   OH279159   0.460   4.413   3.912 -0.0276  0.1042  0.1690
19223TIP3    H179160   0.377   4.452   3.884  0.1954  0.7871  0.4216
19223TIP3    H279161   0.447   4.393   4.004 -0.2535 -0.7474 -0.0402
19224TIP3   OH279162   0.669   2.817  16.044  0.4587 -0.2109  0.3547
19224TIP3    H179163   0.759   2.827  16.014  0.2182  2.2288  0.2587
19224TIP3    H279164   0.637   2.739  15.997  1.2436  1.2856 -2.9708
19225TIP3   OH279165   2.118   3.911   1.954  0.1088  0.3048 -0.1273
19225TIP3    H179166   2.157   3.961   2.026 -1.7960 -1.1783  2.0612
19225TIP3    H279167   2.114   3.821   1.986 -3.2236  0.0367 -0.9347
19226TIP3   OH279168   1.551   6.175   0.544 -0.1802  0.4173  0.0336
19226TIP3    H179169   1.567   6.081   0.547  2.5052  0.7675 -0.9880
19226TIP3    H279170   1.530   6.193   0.452 -0.1476  0.8841  0.1142
19227TIP3   OH279171   4.337   5.621   2.835  0.2052 -0.5423  0.6675
19227TIP3    H179172   4.266   5.681   2.860 -0.5650 -1.6078  1.1167
19227TIP3    H279173   4.340   5.557   2.906  0.6478 -1.3595 -0.0710
19228TIP3   OH279174   4.329   3.526  16.762 -0.4794 -0.1443 -0.0461
19228TIP3    H179175   4.359   3.494  16.847  0.7234 -0.1918 -0.4586
19228TIP3    H279176   4.317   3.447  16.710 -0.3602 -0.0747 -0.1783
19229TIP3   OH279177   3.576   5.480  12.214 -0.4847  0.2664  0.5832
19229TIP3    H179178   3.641   5.419  12.180  0.3127  1.4755 -0.1157
19229TIP3    H279179   3.504   5.477  12.151 -1.2552 -1.2281  1.4644
19230TIP3   OH279180   5.186   3.629  11.459 -0.4623  0.0889  0.0395
19230TIP3    H179181   5.266   3.645  11.409 -0.2257  0.1028  0.4158
19230TIP3    H279182   5.148   3.551  11.419  0.0524 -0.2706  0.2320
19231TIP3   OH279183   6.212   4.274  17.243 -0.2009  0.4676 -0.1689
19231TIP3    H179184   6.231   4.351  17.297  1.6969 -0.1733  0.1175
19231TIP3    H279185   6.236   4.300  17.154 -1.0735  0.7208 -0.3404
19232TIP3   OH279186   5.135   3.972  17.071 -0.7264  0.0638 -0.4198
19232TIP3    H179187   5.104   3.902  17.128  0.8086 -1.0771 -0.9088
19232TIP3    H279188   5.116   3.941  16.982  0.4183 -0.0017 -0.6629
19233TIP3   OH279189   2.444   6.625  15.971  0.5525  0.3382  0.4863
19233TIP3    H179190   2.360   6.615  15.926 -0.0263 -0.4527  1.6964
19233TIP3    H279191   2.503   6.567  15.922  0.1004 -0.0081  0.3327
19234TIP3   OH279192   6.625   3.623   2.894  0.1385 -0.4568  0.6218
19234TIP3    H179193   6.574   3.611   2.814  3.1576 -1.0638 -1.3914
19234TIP3    H279194   6.576   3.686   2.946 -2.4772 -0.8588 -1.1945
19235TIP3   OH279195   6.737   0.226  16.749 -0.0546  0.0390 -0.1579
19235TIP3    H179196   6.818   0.176  16.755 -0.1788 -0.0182  1.5400
19235TIP3    H279197   6.675   0.168  16.705 -0.7509 -2.1769  3.3312
19236TIP3   OH279198   0.211   3.657   1.130  0.3269  0.5158  0.4301
19236TIP3    H179199   0.251   3.646   1.216  0.6713  1.8889  0.4746
19236TIP3    H279200   0.282   3.642   1.068  1.1765  3.5025  0.5202
19237TIP3   OH279201   3.369   6.437  15.180  0.3460  0.3116 -0.1055
19237TIP3    H179202   3.278   6.456  15.157  0.7333  0.9289 -1.1979
19237TIP3    H279203   3.387   6.352  15.140  0.1122 -0.0371  0.5211
19238TIP3   OH279204   5.230   3.469  12.994  0.1686 -0.2270 -0.3947
19238TIP3    H179205   5.204   3.446  13.083  0.9817  0.9417  0.1660
19238TIP3    H279206   5.300   3.533  13.005 -0.9155  1.2997 -1.8565
19239TIP3   OH279207   0.230   1.301   0.321  0.0279 -0.1994 -0.0808
19239TIP3    H179208   0.244   1.368   0.388  2.3814  0.3533 -1.0086
19239TIP3    H279209   0.158   1.335   0.267 -0.9998 -0.0240  1.3638
19240TIP3   OH279210   0.623   2.339  17.399  0.6642  0.4527 -0.3765
19240TIP3    H179211   0.687   2.402  17.434  1.7585  0.1421 -1.7000
19240TIP3    H279212   0.565   2.392  17.345 -0.9770  0.9197  1.7249
19241TIP3   OH279213   4.563   3.155  14.151 -0.3196  0.1573  0.4102
19241TIP3    H179214   4.577   3.107  14.233 -1.4055 -0.1513  0.4458
19241TIP3    H279215   4.632   3.124  14.093 -0.0817 -0.3114  0.9288
19242TIP3   OH279216   4.969   0.581  15.494  0.0389  0.3336 -0.4226
19242TIP3    H179217   5.024   0.548  15.423  0.5416 -0.3000  0.2468
19242TIP3    H279218   4.881   0.550  15.472  0.2391 -0.1007 -0.6155
19243TIP3   OH279219   5.588   4.893   2.247  0.2821  0.8687  0.3019
19243TIP3    H179220   5.662   4.833   2.253 -1.5841 -1.5008  1.9071
19243TIP3    H279221   5.558   4.903   2.338 -2.6197 -0.0760 -0.4243
19244TIP3   OH279222   3.189   3.188   1.436  0.3885 -0.5916  0.2964
19244TIP3    H179223   3.168   3.097   1.414 -1.3825 -0.9237  2.8326
19244TIP3    H279224   3.109   3.236   1.415  1.2220  0.3808 -0.7690
19245TIP3   OH279225   4.304   6.390   5.577  0.2047 -0.2218  0.2369
19245TIP3    H179226   4.300   6.424   5.666  0.7730 -0.4021  0.3346
19245TIP3    H279227   4.349   6.458   5.527 -1.2900  0.4857 -0.2180
19246TIP3   OH279228   1.455   4.957   3.558 -0.5173  0.3031  0.4127
19246TIP3    H179229   1.404   4.910   3.624  1.4738 -0.2822  1.6333
19246TIP3    H279230   1.505   5.021   3.608  0.3052  0.5154 -0.6514
19247TIP3   OH279231   1.648   2.759  11.709  0.2288 -0.2301 -0.6106
19247TIP3    H179232   1.699   2.680  11.689 -0.3880 -0.3078 -1.9902
19247TIP3    H279233   1.707   2.832  11.687  0.3880 -0.3013 -0.4273
19248TIP3   OH279234   3.791   4.190  14.060 -0.0472  0.1440  0.2094
19248TIP3    H179235   3.780   4.254  13.990  0.2004  0.5317  0.5248
19248TIP3    H279236   3.871   4.217  14.105 -0.5275  0.2322  1.0084
19249TIP3   OH279237   2.668   2.289   5.971  0.0860 -0.3292 -0.0536
19249TIP3    H179238   2.592   2.342   5.996  0.9027  1.0647 -0.4242
19249TIP3    H279239   2.731   2.352   5.937  1.6598 -1.3803  0.8163
19250TIP3   OH279240   6.658   2.127  16.328 -0.3888  0.3749  0.5855
19250TIP3    H179241   6.605   2.144  16.406 -0.1471 -0.3894  0.9289
19250TIP3    H279242   6.680   2.214  16.294  0.4344  0.7478  2.0020
19251TIP3   OH279243   3.687   2.519   1.785 -0.3168 -0.2880 -0.1041
19251TIP3    H179244   3.619   2.454   1.768 -1.5013  0.2370  2.1873
19251TIP3    H279245   3.659   2.597   1.738 -0.6878 -0.4259 -0.1146
19252TIP3   OH279246   1.367   0.262   5.971 -0.2161  0.2334  0.1274
19252TIP3    H179247   1.454   0.275   6.009 -0.5914  0.7855  0.8361
19252TIP3    H279248   1.368   0.312   5.890  0.6697 -1.1260 -0.7230
19253TIP3   OH279249   4.153   1.218  12.758  0.5979  0.2537  0.3199
19253TIP3    H179250   4.241   1.209  12.724  0.7665 -2.7501  1.2846
19253TIP3    H279251   4.130   1.309  12.742  4.0296  1.2705  0.4735
19254TIP3   OH279252   6.313   3.489  15.763 -0.2811 -0.0661 -0.1200
19254TIP3    H179253   6.308   3.396  15.785 -0.6161  0.2517  1.2287
19254TIP3    H279254   6.239   3.504  15.705 -0.9805 -0.3813  0.6809
19255TIP3   OH279255   3.187   3.489  14.977 -0.6991 -0.2295  0.1166
19255TIP3    H179256   3.249   3.560  14.959 -0.6234 -0.2051  0.4749
19255TIP3    H279257   3.104   3.521  14.944 -0.6076 -0.0921  0.0168
19256TIP3   OH279258   4.242   3.769   4.000  0.6542 -0.0967 -0.0035
19256TIP3    H179259   4.249   3.816   4.082  0.7011  1.2457 -0.7536
19256TIP3    H279260   4.197   3.829   3.941 -1.3591 -1.8364 -0.3775
19257TIP3   OH279261   3.141   2.449   5.334  0.3207  0.0050  0.1774
19257TIP3    H179262   3.067   2.510   5.331  0.3050 -0.0477 -2.3354
19257TIP3    H279263   3.102   2.364   5.350 -0.1067  0.0634 -0.5435
19258TIP3   OH279264   2.853   6.011   6.439 -0.1149 -0.2098 -0.1399
19258TIP3    H179265   2.783   5.947   6.440  1.0021 -1.4605  0.5368
19258TIP3    H279266   2.928   5.966   6.479  0.8469  1.3385 -0.1103
19259TIP3   OH279267   2.049   2.142   2.369 -0.0080  0.3493  0.2284
19259TIP3    H179268   2.075   2.211   2.430 -1.1424  2.7138 -1.7479
19259TIP3    H279269   1.955   2.130   2.386  0.4077 -1.6708  1.3609
19260TIP3   OH279270   5.944   5.092  16.559 -0.6587 -0.2557  0.3205
19260TIP3    H179271   5.909   5.087  16.648  1.0445 -1.9717  0.9796
19260TIP3    H279272   5.933   5.004  16.524 -2.3129  0.6684 -1.6400
19261TIP3   OH279273   2.335   3.771   0.421  0.2015 -0.2137 -0.5368
19261TIP3    H179274   2.294   3.822   0.491  0.0284 -0.9796 -0.0578
19261TIP3    H279275   2.317   3.680   0.445  3.3101 -0.7068  0.4461
19262TIP3   OH279276   4.512   2.609  13.175 -0.4473  0.9361  0.4006
19262TIP3    H179277   4.471   2.537  13.127 -0.3554  0.7702  0.5713
19262TIP3    H279278   4.449   2.631  13.244 -0.3736  0.8680  0.4888
19263TIP3   OH279279   0.591   1.631  16.633 -0.1337  0.8445  0.5750
19263TIP3    H179280   0.554   1.660  16.550  1.5630 -0.6321 -0.7952
19263TIP3    H279281   0.678   1.599  16.610  0.7679  1.2613  3.1044
19264TIP3   OH279282   5.195   1.835  13.777  0.3229 -0.0498  0.2237
19264TIP3    H179283   5.146   1.768  13.729 -1.2203  0.3531  1.1927
19264TIP3    H279284   5.272   1.788  13.810  0.5102 -0.7462 -1.1192
19265TIP3   OH279285   0.373   3.918  16.995  0.5629  0.5584  0.3370
19265TIP3    H179286   0.300   3.856  16.989  1.4931 -0.4706 -1.0714
19265TIP3    H279287   0.428   3.885  17.066  1.8542 -1.2066 -1.3936
19266TIP3   OH279288   1.465   0.003  16.724 -0.1757 -0.5904 -0.1087
19266TIP3    H179289   1.410   0.056  16.782  1.4768 -1.9321  2.9051
19266TIP3    H279290   1.440  -0.087  16.743  0.1426 -1.0800 -1.8656
19267TIP3   OH279291   5.189   5.459  11.288  0.1180  0.7155 -0.2480
19267TIP3    H179292   5.263   5.413  11.247 -0.1186 -0.1060  0.2062
19267TIP3    H279293   5.115   5.441  11.230 -0.4643 -1.3841  1.0382
19268TIP3   OH279294   4.378   5.632  14.876  0.3542  0.2177 -0.6286
19268TIP3    H179295   4.397   5.619  14.784 -0.7396 -1.6194 -0.6542
19268TIP3    H279296   4.332   5.552  14.903 -1.6029  1.7268  0.8846
19269TIP3   OH279297   2.675   4.630   3.211  0.2726 -0.1744  0.0375
19269TIP3    H179298   2.703   4.539   3.223 -0.2207 -0.1680  1.3119
19269TIP3    H279299   2.631   4.630   3.125 -0.3787 -1.3102  0.3523
19270TIP3   OH279300   3.698   5.455  11.883  0.6027 -0.2290  0.1732
19270TIP3    H179301   3.617   5.449  11.833  1.3658  0.5368 -1.2203
19270TIP3    H279302   3.682   5.403  11.961 -2.6051  2.7819  1.8382
19271TIP3   OH279303   3.146   5.381   3.362  0.1000  0.0105 -0.4648
19271TIP3    H179304   3.105   5.402   3.446 -2.1521  2.0719 -1.9382
19271TIP3    H279305   3.091   5.312   3.325  2.1883 -2.3087  0.4133
19272TIP3   OH279306   0.037   4.520   4.551  0.5508 -0.1417  0.0760
19272TIP3    H179307   0.000   4.434   4.573  2.8859 -1.0661  0.6604
19272TIP3    H279308  -0.026   4.583   4.587  0.0450 -1.6111  1.9512
19273TIP3   OH279309   5.504   4.383  12.845 -0.5706  0.0461 -0.9861
19273TIP3    H179310   5.480   4.472  12.872  1.3382  0.4861 -0.6290
19273TIP3    H279311   5.450   4.326  12.900 -0.7788  0.9717 -0.2065
19274TIP3   OH279312   3.264   3.318   3.697 -0.1026  0.0356 -0.0326
19274TIP3    H179313   3.217   3.400   3.714  0.7155 -0.0214  3.2484
19274TIP3    H279314   3.196   3.252   3.686 -0.8865  0.4522  1.8389
19275TIP3   OH279315   4.952   6.598   3.865  0.1245  0.3831 -0.5504
19275TIP3    H179316   4.965   6.526   3.927  2.4259  1.0474 -0.1630
19275TIP3    H279317   4.966   6.677   3.917  1.5050  0.9737 -1.7617
19276TIP3   OH279318   1.214   4.177  12.233 -0.0173 -0.0151  0.1354
19276TIP3    H179319   1.193   4.215  12.319 -0.7122  0.9568 -0.4471
19276TIP3    H279320   1.131   4.143  12.201  0.1406  0.0603 -0.3592
19277TIP3   OH279321   2.353   5.678   2.967  0.1932  0.0978  0.3909
19277TIP3    H179322   2.321   5.746   3.026  1.7334  0.7646  0.4879
19277TIP3    H279323   2.276   5.624   2.950 -0.8086  1.2109  1.1923
19278TIP3   OH279324   6.600   0.004   6.119  0.3807 -0.5393 -0.0481
19278TIP3    H179325   6.580   0.085   6.072  0.8734 -0.3240  0.0952
19278TIP3    H279326   6.696  -0.002   6.115  0.3355 -1.2143 -0.2185
19279TIP3   OH279327   2.703   6.326   1.133  0.1841 -0.4606 -0.0029
19279TIP3    H179328   2.674   6.357   1.047 -1.2540  1.3678  1.0668
19279TIP3    H279329   2.794   6.353   1.140 -0.1005  0.6604 -0.4189
19280TIP3   OH279330   3.926   0.438  17.107  0.8880  0.2418 -0.3375
19280TIP3    H179331   3.910   0.502  17.038  0.9626 -0.3351 -0.8899
19280TIP3    H279332   3.856   0.373  17.097 -0.4648  1.3078  1.5324
19281TIP3   OH279333   4.462   4.371   4.309 -0.7850 -0.3124 -0.0275
19281TIP3    H179334   4.518   4.326   4.246 -1.6751  1.3157 -2.0994
19281TIP3    H279335   4.394   4.307   4.330  0.3200 -1.3662  0.4353
19282TIP3   OH279336   2.077   1.112   2.746  0.2334  0.3098  0.4017
19282TIP3    H179337   2.081   1.185   2.684  0.9895  1.7252  2.0297
19282TIP3    H279338   1.984   1.101   2.766  0.1616  1.2035  0.5639
19283TIP3   OH279339   3.747   5.721   3.744 -0.1159 -0.1925  0.3174
19283TIP3    H179340   3.725   5.651   3.805 -0.8267 -0.0207  0.2620
19283TIP3    H279341   3.806   5.680   3.680 -0.6133 -0.7672  0.2224
19284TIP3   OH279342   4.866   5.094  14.143  0.3331  0.2286 -0.6790
19284TIP3    H179343   4.887   5.187  14.146  0.0463  0.2817 -0.0046
19284TIP3    H279344   4.773   5.090  14.123  0.3520  0.0819 -0.7455
19285TIP3   OH279345   2.807   5.824  13.275  0.6227 -0.2803  0.0368
19285TIP3    H179346   2.900   5.847  13.278  1.1585 -2.1040 -0.9530
19285TIP3    H279347   2.806   5.728  13.282 -1.3383 -0.1819  2.1155
19286TIP3   OH279348   3.305   5.985   0.907  0.0097  0.3253 -0.3763
19286TIP3    H179349   3.376   5.956   0.850 -1.1273 -0.1868 -1.5874
19286TIP3    H279350   3.331   6.073   0.934  0.7962  0.4009 -1.3286
19287TIP3   OH279351   3.367   1.484  15.093 -0.4132 -0.3024  0.3583
19287TIP3    H179352   3.379   1.395  15.124  0.5133 -0.6158 -0.8205
19287TIP3    H279353   3.295   1.479  15.031  1.1913 -0.7789 -1.5972
19288TIP3   OH279354   1.823   5.490   0.236 -0.3540 -0.0437 -0.0179
19288TIP3    H179355   1.808   5.494   0.331 -1.4999 -1.2653 -0.1188
19288TIP3    H279356   1.736   5.475   0.199 -0.1497  1.8535 -1.4010
19289TIP3   OH279357   0.670   3.735  12.773  0.1931 -0.6523 -0.0799
19289TIP3    H179358   0.763   3.715  12.784  0.2396 -0.5407 -0.2745
19289TIP3    H279359   0.654   3.805  12.837 -0.2204 -2.0208  1.3848
19290TIP3   OH279360   3.055   1.216  16.806 -0.4667  0.6076 -0.0924
19290TIP3    H179361   3.031   1.304  16.778 -0.5059  0.2479 -1.2575
19290TIP3    H279362   3.088   1.174  16.726  2.2280  0.4623  1.0028
19291TIP3   OH279363   4.998   0.173   3.101 -0.6804  0.0700 -0.0281
19291TIP3    H179364   4.995   0.089   3.056 -0.8225 -0.3105  0.6702
19291TIP3    H279365   5.030   0.234   3.035 -0.3059 -0.5823 -0.4708
19292TIP3   OH279366   5.135   2.499  11.642 -0.7412  0.5106  0.3754
19292TIP3    H179367   5.052   2.451  11.635 -1.9443  2.6085 -0.5927
19292TIP3    H279368   5.189   2.463  11.571 -0.8102 -0.8045  0.9494
19293TIP3   OH279369   2.604   3.702   4.986 -0.1425 -0.3691  0.2937
19293TIP3    H179370   2.510   3.713   4.967  0.0301 -0.8835 -0.9548
19293TIP3    H279371   2.648   3.757   4.921  0.4415 -0.9275  0.2082
19294TIP3   OH279372   5.810   3.737   1.870 -0.1542 -0.0527  0.1661
19294TIP3    H179373   5.864   3.661   1.849 -1.6605 -1.1994  0.2210
19294TIP3    H279374   5.754   3.707   1.942 -1.5328  0.7325 -0.5297
19295TIP3   OH279375   5.544   2.674  15.758  0.0223 -0.1316  0.8605
19295TIP3    H179376   5.453   2.693  15.734  0.2545 -0.4619 -0.3658
19295TIP3    H279377   5.548   2.689  15.852 -1.8173 -2.0489  1.3288
19296TIP3   OH279378   2.899   6.423  13.447 -0.0296 -0.5411 -0.0323
19296TIP3    H179379   2.988   6.458  13.454  0.4919 -2.1618  2.7790
19296TIP3    H279380   2.842   6.501  13.448  1.2654  0.4440 -0.5517
19297TIP3   OH279381   2.073   6.555   5.481  0.8569 -0.2433 -0.1070
19297TIP3    H179382   2.126   6.489   5.437 -0.6347 -1.1726 -0.5491
19297TIP3    H279383   2.073   6.528   5.573  0.7183 -0.5372 -0.1927
19298TIP3   OH279384   4.959   2.728  12.629 -0.1832 -0.2354 -0.3656
19298TIP3    H179385   4.918   2.814  12.631  0.4728  0.1790 -2.2725
19298TIP3    H279386   4.933   2.686  12.711  1.1430  2.5077  1.6203
19299TIP3   OH279387   4.231   0.672   1.015 -0.0634  0.2230 -0.4743
19299TIP3    H179388   4.214   0.755   1.058 -0.5866 -0.4376  0.6422
19299TIP3    H279389   4.309   0.638   1.058  0.0841  0.0867 -0.8491
19300TIP3   OH279390   4.539   1.201   2.046  0.6571  0.2662 -0.5266
19300TIP3    H179391   4.590   1.214   1.966  0.3123 -0.9286 -0.9609
19300TIP3    H279392   4.589   1.245   2.114  1.2345  0.8348 -1.3055
19301TIP3   OH279393   1.335   2.916  14.718 -0.0445  0.1292 -0.3009
19301TIP3    H179394   1.345   2.845  14.781  0.0026  1.7574  1.6417
19301TIP3    H279395   1.324   2.873  14.634  0.4329 -2.1429  0.7377
19302TIP3   OH279396   2.701   6.025  14.681  0.0178  0.1362  0.3338
19302TIP3    H179397   2.612   5.996  14.701 -0.8649  2.4431  0.0786
19302TIP3    H279398   2.753   5.997  14.757 -0.6952 -1.9493  0.1292
19303TIP3   OH279399   4.897   0.198  11.336 -0.0280  0.1970 -0.0182
19303TIP3    H179400   4.897   0.222  11.244  0.5537  0.5894  0.0810
19303TIP3    H279401   4.984   0.222  11.368  0.7840 -2.4375 -0.0187
19304TIP3   OH279402   5.510   5.731  12.123 -0.0288  0.2673  0.2349
19304TIP3    H179403   5.543   5.807  12.075  0.1444 -0.5110 -0.9220
19304TIP3    H279404   5.545   5.742  12.211 -1.5307  2.4677  0.6329
19305TIP3   OH279405   3.246   4.330  12.262  0.3046  0.2266  0.0936
19305TIP3    H179406   3.166   4.364  12.301  0.3287  1.8019 -1.1320
19305TIP3    H279407   3.221   4.304  12.174  1.0028  0.0536 -0.0637
19306TIP3   OH279408   0.228   3.450  14.542 -0.6919  0.1793  0.5578
19306TIP3    H179409   0.238   3.440  14.447  1.7313 -0.3165  0.8013
19306TIP3    H279410   0.149   3.400  14.562 -2.4425  1.9656 -1.4151
19307TIP3   OH279411   5.024   1.932   0.590  0.5743 -0.1740 -0.0381
19307TIP3    H179412   5.003   1.940   0.683  1.9442 -0.3698  0.3006
19307TIP3    H279413   5.036   2.023   0.561  0.7078 -0.1456  0.1048
19308TIP3   OH279414   4.419   0.465   5.969  0.2466 -0.3023 -0.1891
19308TIP3    H179415   4.509   0.464   5.934  0.1945  1.1067 -0.3885
19308TIP3    H279416   4.385   0.551   5.945 -0.7080 -0.3224  1.0525
19309TIP3   OH279417   6.218   5.462  11.083  0.2147  0.0798 -0.1294
19309TIP3    H179418   6.148   5.436  11.023  1.3976 -1.9598 -0.7062
19309TIP3    H279419   6.295   5.471  11.027  0.8323  0.4639  0.7641
19310TIP3   OH279420   6.455   6.334   4.786 -0.0383 -0.9072  0.1680
19310TIP3    H179421   6.547   6.338   4.809 -0.0828 -0.0624  0.2258
19310TIP3    H279422   6.413   6.294   4.862  0.0584  0.2392  0.8460
19311TIP3   OH279423   3.472   6.409   1.309 -0.3412 -0.7920 -0.4857
19311TIP3    H179424   3.512   6.401   1.395 -1.0237  1.0026  0.0363
19311TIP3    H279425   3.379   6.389   1.323 -0.3476 -1.1010 -0.9313
19312TIP3   OH279426   2.769   1.564  15.658  0.7717 -0.5808 -0.0300
19312TIP3    H179427   2.738   1.526  15.575  0.6533 -0.6288  0.0352
19312TIP3    H279428   2.842   1.507  15.685  0.1321 -1.1992  0.4344
19313TIP3   OH279429   6.410   5.727   4.088 -0.1100  0.6158  0.1253
19313TIP3    H179430   6.486   5.749   4.142 -1.0579  1.2446  1.2625
19313TIP3    H279431   6.420   5.779   4.009  0.8810  0.3185  0.0374
19314TIP3   OH279432   0.073   4.959   0.479 -0.2683 -0.2151 -0.0189
19314TIP3    H179433  -0.019   4.955   0.503  0.2469 -0.7965  2.0897
19314TIP3    H279434   0.102   5.046   0.507 -0.5746  0.8050 -2.5568
19315TIP3   OH279435   2.240   4.598   5.376 -0.3530 -0.0834 -0.4590
19315TIP3    H179436   2.293   4.677   5.373  0.9873 -0.9062  0.3407
19315TIP3    H279437   2.220   4.579   5.285  0.7986  0.2308 -0.7953
19316TIP3   OH279438   3.597   2.430  14.426 -0.0408 -0.7765 -0.3266
19316TIP3    H179439   3.685   2.393  14.438  0.6443  1.0418  0.6844
19316TIP3    H279440   3.567   2.394  14.343  0.5655 -3.5056  0.5329
19317TIP3   OH279441   1.194   0.739  14.028 -0.2985  0.2507 -0.0380
19317TIP3    H179442   1.132   0.677  14.067  1.0410 -0.9751  0.2184
19317TIP3    H279443   1.213   0.703  13.942  0.4144  0.3683  0.0691
19318TIP3   OH279444   3.281   5.321  15.576 -0.4217  0.0333 -0.3835
19318TIP3    H179445   3.302   5.344  15.485 -0.3096 -0.3129 -0.4442
19318TIP3    H279446   3.254   5.229  15.572  0.2848 -0.1969  0.0467
19319TIP3   OH279447   4.632   5.426  14.339  0.1021 -0.3566 -1.0006
19319TIP3    H179448   4.678   5.350  14.372  0.4963  0.2132 -0.2128
19319TIP3    H279449   4.701   5.483  14.305 -0.0243  0.3954 -0.0304
19320TIP3   OH279450   4.176   2.740  17.098  0.0667  0.3449  0.1615
19320TIP3    H179451   4.180   2.832  17.125  0.7268  0.3565  0.0433
19320TIP3    H279452   4.225   2.737  17.016 -0.4630 -0.0058 -0.1463
19321TIP3   OH279453   2.900   4.363   2.581 -0.6740  0.5833 -0.1007
19321TIP3    H179454   2.850   4.438   2.611  0.6895  0.9487  1.3909
19321TIP3    H279455   2.907   4.375   2.486 -1.9120  1.4147 -0.1029
19322TIP3   OH279456   4.649   1.158  13.644  0.0067  0.0832  0.0097
19322TIP3    H179457   4.666   1.219  13.717  0.7389 -0.1091  0.0073
19322TIP3    H279458   4.645   1.072  13.685  0.3645 -0.0197 -0.1687
19323TIP3   OH279459   1.201   5.208   3.034  0.4056  0.6840 -0.0141
19323TIP3    H179460   1.213   5.187   2.941 -0.3394 -1.4133  0.3156
19323TIP3    H279461   1.289   5.198   3.072  0.5831  0.8908 -0.3624
19324TIP3   OH279462   2.210   2.463   3.402  0.4394 -0.5415 -0.4577
19324TIP3    H179463   2.190   2.421   3.318 -0.7887 -1.0374  0.0704
19324TIP3    H279464   2.166   2.548   3.398 -2.3823 -1.8283  0.8975
19325TIP3   OH279465   1.922   3.415   4.700 -0.4539 -0.2907  0.6572
19325TIP3    H179466   1.838   3.447   4.733 -0.8839 -0.1272 -0.5445
19325TIP3    H279467   1.971   3.494   4.677 -1.1404 -0.3985 -1.3983
19326TIP3   OH279468   3.425   4.139  12.923 -0.1869  0.3554  0.3197
19326TIP3    H179469   3.355   4.203  12.912  0.1842  1.3377  2.9665
19326TIP3    H279470   3.494   4.167  12.863 -0.7392  1.3676  0.1423
19327TIP3   OH279471   0.995   1.996  14.109  0.4655  0.7219 -0.0401
19327TIP3    H179472   0.925   1.966  14.051 -0.0478  2.3210 -0.2959
19327TIP3    H279473   0.951   2.009  14.193  0.9773 -0.5280  0.4440
19328TIP3   OH279474   6.328   4.685  13.199 -0.1471  0.0426 -0.0060
19328TIP3    H179475   6.410   4.730  13.179  0.4777 -0.9631  0.1923
19328TIP3    H279476   6.264   4.722  13.138  0.3045  1.2810  0.2537
19329TIP3   OH279477   4.850   4.584   3.053 -0.9217 -0.3951  0.8544
19329TIP3    H179478   4.768   4.549   3.086  0.1947 -1.9332  2.1571
19329TIP3    H279479   4.913   4.571   3.124  0.4359  0.8504 -0.0477
19330TIP3   OH279480   3.088   6.358  13.191 -0.3576 -0.0280 -0.3386
19330TIP3    H179481   3.045   6.340  13.274 -0.4410  0.0223 -0.3715
19330TIP3    H279482   3.051   6.294  13.130  0.2254 -0.5389 -0.1688
19331TIP3   OH279483   6.337   3.897   6.744 -0.7068  0.0839  0.4917
19331TIP3    H179484   6.420   3.900   6.792 -0.8016 -0.7519  0.7359
19331TIP3    H279485   6.283   3.965   6.785 -0.7136 -0.4721  1.4506
19332TIP3   OH279486   4.968   4.414   2.710  0.1622  0.4939  0.3909
19332TIP3    H179487   4.986   4.344   2.773 -0.0204  0.5820  0.5416
19332TIP3    H279488   5.002   4.493   2.752  1.3987  0.3331 -0.2569
19333TIP3   OH279489   5.816   6.046  12.117 -0.6129 -0.2648 -0.8041
19333TIP3    H179490   5.836   6.026  12.208 -2.3029  0.1940 -0.3130
19333TIP3    H279491   5.902   6.045  12.073  0.0478 -2.2311  0.4076
19334TIP3   OH279492   2.636   2.052   3.861  0.9421 -0.5302  0.7321
19334TIP3    H179493   2.651   2.059   3.767  0.6588  1.3285  0.7920
19334TIP3    H279494   2.697   1.984   3.890  1.1237 -1.0381 -0.7642
19335TIP3   OH279495   5.720   1.672  14.515  1.0416  0.4747  0.3414
19335TIP3    H179496   5.675   1.749  14.550 -0.0675 -0.0307  0.0432
19335TIP3    H279497   5.780   1.708  14.450  1.0148  1.1501  0.6793
19336TIP3   OH279498   0.331   4.193  17.014  1.1625 -0.1924 -0.3466
19336TIP3    H179499   0.321   4.099  17.001 -0.4905 -0.2221  0.9517
19336TIP3    H279500   0.290   4.211  17.098  3.0968  1.4298  0.3479
19337TIP3   OH279501   1.448   0.960  16.833 -0.6066 -0.2321  0.2757
19337TIP3    H179502   1.413   0.875  16.805 -1.5565 -0.8472  2.9753
19337TIP3    H279503   1.532   0.939  16.873 -0.5029  0.2101  0.2875
19338TIP3   OH279504   4.695   5.461  15.955 -0.2544  0.6157  0.3038
19338TIP3    H179505   4.686   5.381  15.904 -0.2409  0.8193 -0.0247
19338TIP3    H279506   4.652   5.528  15.901  0.7371  1.0488  0.0274
19339TIP3   OH279507   1.644   6.106   1.551  0.5121 -0.2863 -0.2085
19339TIP3    H179508   1.716   6.060   1.507  1.3210  0.2245  0.5461
19339TIP3    H279509   1.682   6.190   1.578 -0.3220 -0.0775  0.3489
19340TIP3   OH279510   2.397   2.415  13.915 -0.2467  0.1578 -0.3083
19340TIP3    H179511   2.314   2.453  13.944 -0.0701  1.6971 -1.6505
19340TIP3    H279512   2.444   2.489  13.876  0.6548 -1.2026 -1.9208
19341TIP3   OH279513   1.372   4.585  13.575  0.0268 -0.2498 -0.2205
19341TIP3    H179514   1.451   4.590  13.522  0.2240 -0.9034 -0.0042
19341TIP3    H279515   1.312   4.648  13.536  1.7503  2.6905  1.4824
19342TIP3   OH279516   2.047   3.654  10.958 -0.4971 -0.0035 -0.6809
19342TIP3    H179517   2.094   3.655  11.041  1.1545  0.2874 -1.5812
19342TIP3    H279518   1.985   3.726  10.965  1.8327  2.1776 -0.8655
19343TIP3   OH279519   0.802   1.691  12.752 -1.2216 -0.0366  0.0133
19343TIP3    H179520   0.748   1.753  12.702 -0.7550  2.2222  2.1226
19343TIP3    H279521   0.754   1.677  12.833  0.6526  1.0116  1.3891
19344TIP3   OH279522   2.595   6.507   6.692  0.4449  0.6372  0.3917
19344TIP3    H179523   2.512   6.468   6.719 -0.0742  1.2500 -0.2744
19344TIP3    H279524   2.661   6.446   6.723 -0.3199 -0.5518 -0.2265
19345TIP3   OH279525   4.651   5.848  15.966 -0.3385 -0.0857  0.2427
19345TIP3    H179526   4.705   5.848  15.887  0.4078 -1.1336  0.7272
19345TIP3    H279527   4.629   5.940  15.980  0.1649  0.1968 -0.7475
19346TIP3   OH279528   6.459   2.633  12.451 -0.2315  0.5823 -0.0042
19346TIP3    H179529   6.515   2.710  12.450  2.1381 -1.0332 -1.3152
19346TIP3    H279530   6.372   2.666  12.475  1.1211  3.2908  1.5720
19347TIP3   OH279531   4.583   3.451   1.901 -0.1543  1.2370 -0.1545
19347TIP3    H179532   4.558   3.484   1.815 -1.4238 -3.1392 -1.6913
19347TIP3    H279533   4.515   3.484   1.960 -1.6994  0.8954 -1.6741
19348TIP3   OH279534   2.994   1.240   0.408 -0.2329  0.2083  0.0051
19348TIP3    H179535   2.944   1.253   0.327  0.0459  2.4031  0.1441
19348TIP3    H279536   3.066   1.182   0.382 -0.3039  0.6496 -1.2562
19349TIP3   OH279537   2.260   2.436   5.488  0.2092  0.6248 -0.2028
19349TIP3    H179538   2.215   2.416   5.405  2.0543 -0.6241 -0.9783
19349TIP3    H279539   2.335   2.490   5.462  1.6885 -1.0461  0.3979
19350TIP3   OH279540   5.507   2.505   0.574  0.2525 -0.1181 -0.2335
19350TIP3    H179541   5.438   2.468   0.519  0.6721  0.7126 -1.3437
19350TIP3    H279542   5.497   2.599   0.564  1.2269  0.0114  0.0058
19351TIP3   OH279543   2.775   2.620   2.903 -0.1331 -0.1427  0.1829
19351TIP3    H179544   2.688   2.589   2.879 -0.7505 -0.3719  2.4076
19351TIP3    H279545   2.813   2.652   2.822 -2.3611  0.1243 -0.8399
19352TIP3   OH279546   6.389   0.518  12.594 -0.0559 -0.0008 -0.6725
19352TIP3    H179547   6.422   0.550  12.511 -0.2896  2.3134  0.0525
19352TIP3    H279548   6.464   0.473  12.634  1.4364  2.5781 -0.3372
19353TIP3   OH279549   1.571   1.201  12.506  0.4104  0.4507  0.4659
19353TIP3    H179550   1.614   1.203  12.421  0.6853 -2.0213  0.4666
19353TIP3    H279551   1.595   1.116  12.543 -3.8907 -0.8601  0.7847
19354TIP3   OH279552   0.870   1.187  11.552 -0.0694  0.0813 -0.6147
19354TIP3    H179553   0.783   1.155  11.573 -0.3189  1.1995  0.1227
19354TIP3    H279554   0.918   1.109  11.524 -1.0068 -0.7139 -0.0648
19355TIP3   OH279555   6.730   1.390   5.765 -0.8559 -0.1583  0.3140
19355TIP3    H179556   6.676   1.312   5.780 -1.3448  0.4469  1.8317
19355TIP3    H279557   6.819   1.355   5.754 -1.1718 -0.9717  0.2367
19356TIP3   OH279558   2.515   4.754   5.103  0.2695 -0.6663  0.2107
19356TIP3    H179559   2.609   4.764   5.117  0.4318 -0.5348 -0.9234
19356TIP3    H279560   2.502   4.659   5.096  0.0396 -0.8075  2.1091
19357TIP3   OH279561   2.266   0.843   4.419 -0.1678  0.0755  0.1840
19357TIP3    H179562   2.245   0.920   4.472  4.3306  1.3467  0.4643
19357TIP3    H279563   2.314   0.877   4.344 -0.4712 -2.2891 -1.1915
19358TIP3   OH279564   5.810   3.974  13.587  0.3830 -0.9037 -0.5810
19358TIP3    H179565   5.729   3.942  13.549  0.2064  0.4345 -1.3920
19358TIP3    H279566   5.846   4.034  13.521  0.5345  0.7892  0.9594
19359TIP3   OH279567   0.096   5.842   5.112  0.0766  0.2752  0.3184
19359TIP3    H179568   0.175   5.891   5.130  0.0406  0.0347  1.1563
19359TIP3    H279569   0.127   5.763   5.066  0.0728  1.3411 -1.5956
19360TIP3   OH279570   2.531   0.046   1.187  0.8127  0.3309  0.3446
19360TIP3    H179571   2.599  -0.008   1.146  1.9665  1.2097  1.0331
19360TIP3    H279572   2.574   0.129   1.205 -0.8674  1.4261 -0.4983
19361TIP3   OH279573   5.362   5.820  12.390  0.5162  0.2091  0.0453
19361TIP3    H179574   5.288   5.807  12.331 -0.1093  0.9317  0.6522
19361TIP3    H279575   5.393   5.731  12.409 -0.8740 -0.1820  0.6255
19362TIP3   OH279576   5.656   5.330  17.234 -0.6106 -0.4123  0.0658
19362TIP3    H179577   5.635   5.421  17.254  0.4657 -0.1127 -0.0793
19362TIP3    H279578   5.578   5.296  17.191 -0.3472  1.0187 -1.6942
19363TIP3   OH279579   5.326   0.142  15.564  0.0854  0.0964 -0.1469
19363TIP3    H179580   5.362   0.209  15.621  1.6755 -0.6368 -0.2475
19363TIP3    H279581   5.246   0.181  15.529 -0.6882  0.7582  2.1800
19364TIP3   OH279582   2.335   1.445   0.756  0.0108  0.4729  0.9216
19364TIP3    H179583   2.319   1.362   0.712  0.4013  0.9508 -0.1500
19364TIP3    H279584   2.248   1.485   0.764  0.0574  0.9744 -0.6644
19365TIP3   OH279585   5.590   5.020  16.199 -0.8946  0.0072 -0.0335
19365TIP3    H179586   5.556   4.940  16.239  1.0700 -1.0501 -0.3709
19365TIP3    H279587   5.513   5.063  16.162 -2.1405 -1.1747  1.0726
19366TIP3   OH279588   0.038   5.165   0.179  0.5907  0.3950 -0.4455
19366TIP3    H179589  -0.012   5.240   0.147  1.1565  0.9894  0.0387
19366TIP3    H279590  -0.010   5.089   0.147 -1.4888  0.9099  1.2807
19367TIP3   OH279591   4.402   1.180  16.504  0.0897  0.2265  0.6950
19367TIP3    H179592   4.434   1.133  16.427 -2.8453  0.3837 -0.7723
19367TIP3    H279593   4.465   1.160  16.573  1.1322 -2.5304 -0.9105
19368TIP3   OH279594   0.039   0.731   3.938  0.5391  0.2378  0.4552
19368TIP3    H179595   0.024   0.747   4.031  1.0526 -0.7314  0.7163
19368TIP3    H279596  -0.025   0.787   3.894 -0.5233 -0.1538  1.4238
19369TIP3   OH279597   2.079   0.887   2.312 -0.0822 -0.0797 -0.2662
19369TIP3    H179598   2.009   0.938   2.271  0.8799 -1.1286 -3.5185
19369TIP3    H279599   2.118   0.947   2.376 -0.2574  2.6293 -2.4979
19370TIP3   OH279600   0.026   6.647  11.826 -0.6241 -0.1950 -0.3606
19370TIP3    H179601   0.080   6.679  11.898 -1.8294 -2.0196  1.4720
19370TIP3    H279602   0.060   6.691  11.749  2.1368  0.2460  0.9991
19371TIP3   OH279603   3.114   1.461   1.191 -0.1546 -0.1391 -0.2863
19371TIP3    H179604   3.077   1.375   1.172 -0.9230  0.3179 -0.8925
19371TIP3    H279605   3.071   1.521   1.129  0.0468  0.7560  0.4142
19372TIP3   OH279606   3.825   4.057  16.912 -0.6947 -0.1866 -0.1374
19372TIP3    H179607   3.900   3.998  16.912 -0.8676 -0.5590 -2.9040
19372TIP3    H279608   3.749   4.000  16.921 -0.7452 -0.0987 -0.0113
19373TIP3   OH279609   5.762   1.417   1.278 -0.0514  0.1851 -0.5080
19373TIP3    H179610   5.845   1.390   1.318  0.4609  1.4858 -0.6317
19373TIP3    H279611   5.713   1.458   1.350 -0.4943 -0.3594 -0.4927
19374TIP3   OH279612   0.769   1.246   1.000 -0.0959 -0.4131  0.5683
19374TIP3    H179613   0.776   1.213   1.090  0.8250  0.1969  0.7340
19374TIP3    H279614   0.690   1.299   1.001  0.4799  0.4739  1.3324
19375TIP3   OH279615   4.358   0.767   1.617 -0.1588 -0.6278 -0.0855
19375TIP3    H179616   4.316   0.730   1.539  1.1483  0.6797 -1.4956
19375TIP3    H279617   4.335   0.860   1.613  1.4017 -0.2155  0.0638
19376TIP3   OH279618   2.111   1.820  15.149  0.0424 -0.4843 -0.1046
19376TIP3    H179619   2.150   1.739  15.182  3.9418  0.1190 -2.5904
19376TIP3    H279620   2.151   1.889  15.201  0.3178  0.0420 -1.0008
19377TIP3   OH279621   3.896   2.494  16.638  0.0628 -0.2905  0.0664
19377TIP3    H179622   3.867   2.440  16.711  0.0983 -0.5007 -0.0760
19377TIP3    H279623   3.855   2.455  16.561  2.0653 -1.6466 -0.3855
19378TIP3   OH279624   2.596   3.947   4.052 -0.1630 -0.9057  0.0193
19378TIP3    H179625   2.664   3.965   3.988 -0.8084  0.3549 -0.3516
19378TIP3    H279626   2.546   4.029   4.057 -0.5031 -1.1917  1.6679
19379TIP3   OH279627   3.124   1.795  15.240 -0.5902 -0.2632  0.3972
19379TIP3    H179628   3.057   1.726  15.243  0.8900 -1.7408  2.9305
19379TIP3    H279629   3.179   1.771  15.165 -0.7446 -1.2343  0.5756
19380TIP3   OH279630   3.627   2.239   0.360  0.6730  0.1054  0.2184
19380TIP3    H179631   3.619   2.266   0.451  0.7889 -0.4004  0.3788
19380TIP3    H279632   3.547   2.272   0.318  0.1506 -0.5029  0.7159
19381TIP3   OH279633   5.664   2.658  16.270  0.1590  0.4269  0.4203
19381TIP3    H179634   5.744   2.710  16.279  0.9669 -0.5784 -0.5950
19381TIP3    H279635   5.694   2.567  16.278 -0.5452 -0.0674 -1.7725
19382TIP3   OH279636   2.015   1.841   0.203 -0.3504 -1.1262  0.4293
19382TIP3    H179637   2.015   1.934   0.221  1.0442 -1.1555  0.7123
19382TIP3    H279638   1.940   1.827   0.144  0.1753  0.3735 -0.6480
19383TIP3   OH279639   1.511   0.309   0.819  0.1486 -0.2626 -0.1425
19383TIP3    H179640   1.470   0.283   0.901  0.3138  0.2933  0.1236
19383TIP3    H279641   1.579   0.371   0.845  0.2556 -0.1437 -0.6927
19384TIP3   OH279642   2.700   5.855  10.895 -0.2982 -0.3600  0.3677
19384TIP3    H179643   2.701   5.920  10.825  0.1899 -0.3706  0.3635
19384TIP3    H279644   2.645   5.785  10.862 -1.2864  0.2841  0.5897
19385TIP3   OH279645   6.388   3.141  14.281 -0.5853 -0.2035 -0.3381
19385TIP3    H179646   6.473   3.176  14.308 -0.0460 -1.4551 -0.3698
19385TIP3    H279647   6.347   3.213  14.233  0.0476  0.7381  0.4830
19386TIP3   OH279648   4.493   1.626   3.112 -0.6504 -0.1575 -0.3054
19386TIP3    H179649   4.530   1.600   3.197  0.8385 -1.2422 -1.2295
19386TIP3    H279650   4.503   1.548   3.057  1.1973  1.3829 -2.3310
19387TIP3   OH279651   2.532   4.123   1.736 -0.2560 -0.5956  0.7305
19387TIP3    H179652   2.591   4.055   1.703 -1.2242 -0.4727 -1.4967
19387TIP3    H279653   2.482   4.081   1.806 -0.4683 -2.0446 -0.2556
19388TIP3   OH279654   6.573   4.396   1.829  0.1255 -0.1233  0.1670
19388TIP3    H179655   6.549   4.450   1.904 -0.6470  0.5895 -0.5677
19388TIP3    H279656   6.499   4.337   1.816  0.4241 -0.5121  0.1958
19389TIP3   OH279657   0.719   6.012  12.013  0.1746  0.1493 -0.2567
19389TIP3    H179658   0.807   5.976  12.005  0.2841  0.4909 -0.6863
19389TIP3    H279659   0.696   6.039  11.923 -1.2249 -1.8949 -0.5784
19390TIP3   OH279660   6.068   2.984   5.284 -0.2589 -0.0356 -0.2281
19390TIP3    H179661   6.138   3.045   5.258  0.7163 -1.6296 -1.5023
19390TIP3    H279662   6.109   2.898   5.281 -2.5584 -1.1808 -2.2819
19391TIP3   OH279663   4.677   2.020   4.188  0.8050  0.2795 -0.0139
19391TIP3    H179664   4.673   2.032   4.283  1.8652  2.2812 -0.1690
19391TIP3    H279665   4.770   2.022   4.167  0.6921 -1.7847 -0.9631
19392TIP3   OH279666   0.287   1.636  16.205 -0.4838  0.3834  0.8435
19392TIP3    H179667   0.305   1.663  16.295  1.8852  2.5545 -0.1321
19392TIP3    H279668   0.253   1.715  16.163  1.9549  0.5820 -0.9697
19393TIP3   OH279669   3.736   0.178  16.224 -0.3604  0.1289 -0.5008
19393TIP3    H179670   3.698   0.090  16.225 -2.5142  0.9842 -1.6383
19393TIP3    H279671   3.771   0.188  16.135 -0.0215  0.3900 -0.3402
19394TIP3   OH279672   4.292   3.229  15.349 -0.5425 -0.2971 -0.9226
19394TIP3    H179673   4.303   3.296  15.415  0.7601 -2.4159  1.1704
19394TIP3    H279674   4.371   3.235  15.294 -0.5279  0.0100 -0.8655
19395TIP3   OH279675   4.359   2.724  14.462  0.0106 -0.1492 -0.1758
19395TIP3    H179676   4.353   2.650  14.521 -0.7418  0.2317  0.2343
19395TIP3    H279677   4.285   2.714  14.402 -0.1570  0.3121 -0.0563
19396TIP3   OH279678   6.734   2.333   1.853  0.6689 -0.4930  0.3079
19396TIP3    H179679   6.746   2.338   1.948  1.3776 -0.2618  0.2077
19396TIP3    H279680   6.815   2.368   1.816  0.9033 -1.6833 -0.3863
19397TIP3   OH279681   2.691   3.556   2.230 -0.1806  0.4734  0.0880
19397TIP3    H179682   2.620   3.536   2.168  0.8439 -1.6509 -0.4759
19397TIP3    H279683   2.771   3.543   2.179  0.6539  0.9275  1.2573
19398TIP3   OH279684   4.731   0.834  17.559 -0.1066 -0.2109 -0.3771
19398TIP3    H179685   4.754   0.784  17.637  0.3832  1.9203  0.9507
19398TIP3    H279686   4.643   0.868  17.577  0.3016  0.8989 -0.3642
19399TIP3   OH279687   2.445   0.409   1.892 -0.3443 -0.2619 -0.3002
19399TIP3    H179688   2.505   0.365   1.832 -0.4326 -0.5412 -0.1853
19399TIP3    H279689   2.375   0.345   1.907 -1.6336  0.7047 -1.8553
19400TIP3   OH279690   0.168   5.077  12.289 -0.6696  0.7910 -0.2490
19400TIP3    H179691   0.144   5.160  12.331 -2.3921  1.3688 -2.1788
19400TIP3    H279692   0.086   5.045  12.252  0.4098 -0.5701 -1.5658
19401TIP3   OH279693   4.080   2.612   2.592 -0.1085 -0.2112  0.5466
19401TIP3    H179694   4.097   2.646   2.504  0.8578 -0.0671  0.7744
19401TIP3    H279695   4.026   2.679   2.633  1.4863  0.9474  0.8691
19402TIP3   OH279696   6.445   0.524  14.836 -0.1834  0.0346  0.2129
19402TIP3    H179697   6.499   0.593  14.799 -0.1354  0.6646  1.3976
19402TIP3    H279698   6.507   0.460  14.870 -0.1284  0.8825  1.8063
19403TIP3   OH279699   1.628   4.751   0.834 -0.2047 -0.7435  0.2680
19403TIP3    H179700   1.630   4.844   0.813 -0.3632 -0.2614  2.2257
19403TIP3    H279701   1.720   4.725   0.839 -0.0182  0.0644  2.5634
19404TIP3   OH279702   2.639   5.552  15.384  0.4999  0.7800 -0.2676
19404TIP3    H179703   2.608   5.523  15.470  0.0384  1.6554 -0.1333
19404TIP3    H279704   2.643   5.471  15.333  5.7261 -0.7391  1.9202
19405TIP3   OH279705   3.867   6.714  13.187  0.3492 -0.6960 -0.1359
19405TIP3    H179706   3.913   6.741  13.267  1.8805 -4.1039  0.3442
19405TIP3    H279707   3.920   6.749  13.116 -0.0344  0.8898  0.3344
19406TIP3   OH279708   5.664   5.443  15.213 -0.1155 -0.2969  0.4780
19406TIP3    H179709   5.586   5.457  15.266 -1.0738  0.6232 -1.1068
19406TIP3    H279710   5.631   5.412  15.129  1.0968  1.2005 -0.6112
19407TIP3   OH279711   5.562   3.948   1.201 -0.2286  0.3023  0.4128
19407TIP3    H179712   5.511   3.984   1.274  0.4750 -0.1121  1.1348
19407TIP3    H279713   5.653   3.971   1.223  0.2224 -1.5949  0.7412
19408TIP3   OH279714   3.816   2.182   5.704 -0.7616  0.0120  0.1913
19408TIP3    H179715   3.798   2.134   5.785 -0.6891  0.0881  0.2528
19408TIP3    H279716   3.812   2.274   5.730  0.1513  0.0319  0.3024
19409TIP3   OH279717   6.050   1.764   6.112  0.5931  0.3190 -0.9242
19409TIP3    H179718   6.120   1.821   6.079 -0.2139  2.1592  0.3717
19409TIP3    H279719   6.090   1.715   6.184  0.2306  2.5647  0.9120
19410TIP3   OH279720   2.820   4.768  12.064  0.4776  0.3120 -0.6664
19410TIP3    H179721   2.816   4.721  12.148  0.9745 -1.1528 -1.4245
19410TIP3    H279722   2.737   4.747  12.022 -0.6653  2.6848  0.2400
19411TIP3   OH279723   6.147   5.166  16.236 -0.0992  0.3219  0.5115
19411TIP3    H179724   6.091   5.094  16.263 -0.6085  0.5081 -0.0236
19411TIP3    H279725   6.109   5.196  16.153  0.8351  0.4019  0.1032
19412TIP3   OH279726   1.863   0.777   5.404 -0.1857  0.1554 -0.3524
19412TIP3    H179727   1.949   0.766   5.445 -0.3586 -1.8875 -0.4102
19412TIP3    H279728   1.849   0.872   5.401  1.1256  0.4691  1.5986
19413TIP3   OH279729   4.395   3.520   0.979 -0.3341  0.3873 -0.2922
19413TIP3    H179730   4.418   3.553   1.066 -3.0851 -0.0896  0.7135
19413TIP3    H279731   4.457   3.449   0.963 -0.6895 -0.5059  1.9836
19414TIP3   OH279732   0.833   5.777   5.689 -0.2827 -0.4575 -0.4798
19414TIP3    H179733   0.818   5.691   5.650  1.2325 -0.1535 -1.8186
19414TIP3    H279734   0.920   5.772   5.728  0.5103  0.9245 -1.9743
19415TIP3   OH279735   2.581   3.450  10.995  0.0473 -0.2102 -0.2804
19415TIP3    H179736   2.676   3.450  10.983  0.2150 -0.3389  0.9364
19415TIP3    H279737   2.550   3.380  10.937  0.6262  0.1685 -1.0732
19416TIP3   OH279738   5.924   1.041   1.828 -0.3243 -0.2309 -0.0869
19416TIP3    H179739   5.923   1.061   1.922 -0.8116  0.8592 -0.3043
19416TIP3    H279740   5.924   0.945   1.824 -1.7332 -0.3210  1.0290
19417TIP3   OH279741   5.809   6.693   3.045  0.3042 -0.6102 -0.2063
19417TIP3    H179742   5.765   6.617   3.007 -2.7741  0.1392  1.5338
19417TIP3    H279743   5.835   6.746   2.970  0.0789 -2.0802 -1.3685
19418TIP3   OH279744   4.396   4.114  16.474  0.3641 -0.0863  0.0425
19418TIP3    H179745   4.376   4.048  16.540 -0.6287 -0.4242 -0.5593
19418TIP3    H279746   4.489   4.131  16.483  0.2893 -0.2877  1.3708
19419TIP3   OH279747   5.115   3.991   3.830 -0.0831 -0.1824 -0.0848
19419TIP3    H179748   5.092   4.083   3.842 -0.5361 -0.4417  1.2274
19419TIP3    H279749   5.102   3.975   3.737  0.8947  1.3052 -0.5280
19420TIP3   OH279750   3.556   4.795   1.617  0.1379  0.1962  0.3457
19420TIP3    H179751   3.493   4.867   1.615  1.2353  1.1827  0.1106
19420TIP3    H279752   3.626   4.827   1.674  0.1936 -1.0784  1.0034
19421TIP3   OH279753   4.586   3.119   1.982  0.2004 -0.1511  0.0184
19421TIP3    H179754   4.636   3.145   1.904 -2.1517  0.4123 -1.3995
19421TIP3    H279755   4.547   3.036   1.958 -0.8320  0.1939  0.4665
19422TIP3   OH279756   3.141   4.052  15.248 -0.1527  0.6830  0.0309
19422TIP3    H179757   3.215   4.097  15.208 -0.9675  1.3828 -0.7164
19422TIP3    H279758   3.068   4.112  15.239 -0.3962  0.9001  2.6418
19423TIP3   OH279759   0.381   5.677  15.404  0.3546 -0.3134  0.0091
19423TIP3    H179760   0.450   5.666  15.339 -0.0833 -1.4897 -0.2759
19423TIP3    H279761   0.316   5.732  15.361  1.2114  1.0495  0.3799
19424TIP3   OH279762   0.841   3.455   5.103  0.0534 -0.5905 -0.1314
19424TIP3    H179763   0.769   3.397   5.080  0.2780 -1.0838  0.3649
19424TIP3    H279764   0.799   3.530   5.144 -0.4234  0.7360 -2.8508
19425TIP3   OH279765   6.211   4.595   6.271  0.1740  0.2964 -0.4905
19425TIP3    H179766   6.211   4.656   6.197 -2.4052 -0.4950 -1.2318
19425TIP3    H279767   6.185   4.511   6.234 -0.4089 -0.3038  1.1813
19426TIP3   OH279768   2.938   4.383   4.607  0.2245 -0.0832  0.6755
19426TIP3    H179769   2.992   4.381   4.685  1.1991  0.4225  0.0334
19426TIP3    H279770   2.856   4.423   4.635  0.8840  0.9000  1.2531
19427TIP3   OH279771   3.847   5.227   6.275 -0.0079  0.9040 -0.1736
19427TIP3    H179772   3.847   5.323   6.274  1.0930  0.9259  0.7822
19427TIP3    H279773   3.759   5.204   6.245 -0.8897  2.2493  1.1844
19428TIP3   OH279774   6.266   3.669  11.375 -0.9592  0.5528 -0.9279
19428TIP3    H179775   6.342   3.697  11.426 -0.2859 -2.1116 -0.3213
19428TIP3    H279776   6.243   3.746  11.323  0.8284  2.1042  0.4304
19429TIP3   OH279777   1.972   0.028  17.417 -0.1543  0.4649  0.1592
19429TIP3    H179778   2.051   0.070  17.384  1.0759 -0.3676  1.9050
19429TIP3    H279779   1.956   0.070  17.502  0.3609 -1.5750  1.3448
19430TIP3   OH279780   0.476   0.943  17.107 -0.6917 -1.2012 -0.0421
19430TIP3    H179781   0.436   0.990  17.180  0.4208  0.5120 -0.4785
19430TIP3    H279782   0.546   0.891  17.148  0.1364 -0.0055  0.1342
19431TIP3   OH279783   0.791   5.554  12.487 -0.0803  0.0870 -0.0555
19431TIP3    H179784   0.715   5.503  12.514  0.4476 -0.9136 -0.3810
19431TIP3    H279785   0.813   5.608  12.563 -0.3965 -0.4983  0.4608
19432TIP3   OH279786   0.599   6.304   3.511 -0.3484  0.1423 -1.2475
19432TIP3    H179787   0.625   6.214   3.492 -0.3184  0.2068 -1.5128
19432TIP3    H279788   0.650   6.328   3.588 -0.4131 -0.0946 -1.1307
19433TIP3   OH279789   1.225   5.459   5.508 -0.6780  0.1426 -0.0143
19433TIP3    H179790   1.191   5.547   5.520  1.5159  1.1270 -0.4711
19433TIP3    H279791   1.237   5.450   5.413 -0.6727 -0.5630  0.0458
19434TIP3   OH279792   6.002   5.467   5.101  0.6060 -0.0495 -0.9056
19434TIP3    H179793   6.091   5.431   5.097  0.2876 -1.1689  0.7249
19434TIP3    H279794   6.009   5.541   5.161  0.7453  0.9920 -2.1665
19435TIP3   OH279795   4.620   0.698  14.226 -0.8637 -0.2672  0.5918
19435TIP3    H179796   4.551   0.671  14.166 -1.1742  0.5331  0.5834
19435TIP3    H279797   4.670   0.618  14.242  0.8680 -0.0131 -2.7855
19436TIP3   OH279798   3.569   3.210   4.949  0.1634 -0.2251 -0.1628
19436TIP3    H179799   3.635   3.141   4.950  1.1494  0.6626 -1.3719
19436TIP3    H279800   3.542   3.217   4.858 -1.2601 -0.2243  0.2358
19437TIP3   OH279801   2.262   4.265  12.952  0.0642  0.4838  0.0894
19437TIP3    H179802   2.320   4.340  12.947  0.4740  0.1338 -0.7157
19437TIP3    H279803   2.266   4.236  13.043 -1.1103  2.2001  0.7401
19438TIP3   OH279804   4.603   3.348   2.176 -0.1046 -0.0839  1.0981
19438TIP3    H179805   4.694   3.351   2.205  0.5227  0.2976 -0.7729
19438TIP3    H279806   4.604   3.287   2.101 -1.5862 -0.8541  1.6576
19439TIP3   OH279807   4.004   4.329   1.522 -0.1139 -0.0868  0.4212
19439TIP3    H179808   3.922   4.377   1.511 -0.4775 -0.3877  1.6267
19439TIP3    H279809   3.980   4.237   1.512  0.2990 -0.1090 -0.3931
19440TIP3   OH279810   2.837   1.976  16.665  0.2430  0.0220 -0.1793
19440TIP3    H179811   2.911   1.978  16.605  0.3793 -0.8832 -0.0598
19440TIP3    H279812   2.862   2.033  16.737  1.6738 -1.7550  0.8020
19441TIP3   OH279813   0.861   6.609  15.447  0.0435  0.4182 -0.0800
19441TIP3    H179814   0.895   6.598  15.536  0.5394 -2.4579 -0.5088
19441TIP3    H279815   0.917   6.553  15.393 -1.0820  1.0216 -1.9918
19442TIP3   OH279816   4.684   0.089   0.722 -0.4038 -0.2627  0.3379
19442TIP3    H179817   4.713   0.128   0.639  1.1426  1.5348  1.6252
19442TIP3    H279818   4.764   0.050   0.758 -0.8496 -0.2275  1.3888
19443TIP3   OH279819   5.963   2.499  13.914 -0.4808 -0.1921 -0.4760
19443TIP3    H179820   5.946   2.406  13.930  0.6570 -0.2134  0.8018
19443TIP3    H279821   6.055   2.510  13.937 -0.1737  0.9533 -2.1057
19444TIP3   OH279822   2.426   0.425   4.520  0.0010  0.7230 -0.4118
19444TIP3    H179823   2.444   0.348   4.575 -0.0398 -0.2263 -1.6845
19444TIP3    H279824   2.376   0.390   4.446  1.0991  1.7607 -1.6873
19445TIP3   OH279825   2.578   5.106  11.219  0.0755  0.6567 -0.2997
19445TIP3    H179826   2.569   5.013  11.199  1.9099  0.3109  0.3033
19445TIP3    H279827   2.658   5.133  11.173  1.9059  0.9049  2.7558
19446TIP3   OH279828   1.957   1.959   4.432 -0.0906  0.3787 -0.3320
19446TIP3    H179829   2.004   1.947   4.349 -1.0180 -1.5439 -0.6288
19446TIP3    H279830   1.873   1.915   4.419 -0.0535 -0.4363  1.7811
19447TIP3   OH279831   3.355   2.238   3.132 -0.4139  0.0383 -0.4348
19447TIP3    H179832   3.334   2.147   3.109 -2.8266  0.1843  0.8719
19447TIP3    H279833   3.412   2.268   3.062 -1.3337 -1.8145 -2.0754
19448TIP3   OH279834   1.913   0.717  16.256 -0.3620  0.2334 -0.4572
19448TIP3    H179835   1.947   0.632  16.283 -0.2646  0.8819  1.6937
19448TIP3    H279836   1.980   0.752  16.198  1.2234  0.1785  1.2408
19449TIP3   OH279837   4.367   5.327   3.769  0.5988  0.2964  0.1747
19449TIP3    H179838   4.398   5.415   3.789 -0.3528  0.1336  2.6598
19449TIP3    H279839   4.371   5.280   3.852 -3.2000 -0.6665  0.0010
19450TIP3   OH279840   6.217   4.095  15.159 -0.6979 -0.0254 -0.0542
19450TIP3    H179841   6.233   4.051  15.076 -0.8836  1.1985 -0.7644
19450TIP3    H279842   6.254   4.183  15.148 -0.2423 -0.0117  1.3510
19451TIP3   OH279843   2.442   5.958  15.212 -0.5351  0.7327  0.4037
19451TIP3    H179844   2.506   5.894  15.182 -0.9849  0.1018  0.7597
19451TIP3    H279845   2.494   6.025  15.255  0.1260  1.6231 -1.6474
19452TIP3   OH279846   5.980   5.024   2.022 -0.4895 -0.9638  0.4651
19452TIP3    H179847   6.004   4.936   1.992  1.0895  0.0018 -1.2956
19452TIP3    H279848   5.887   5.032   2.000 -0.4591 -1.8933 -0.0721
19453TIP3   OH279849   4.324   0.340  15.226 -0.7939 -1.0488  0.2217
19453TIP3    H179850   4.345   0.270  15.287  0.8434 -0.2860  0.5881
19453TIP3    H279851   4.230   0.333  15.213 -1.1873 -1.3466  2.7077
19454TIP3   OH279852   4.932   0.523   2.593  0.1808  0.1664  0.2344
19454TIP3    H179853   4.940   0.430   2.570  1.3899  0.2418  0.2983
19454TIP3    H279854   4.904   0.566   2.513  0.5292 -0.1256 -0.0472
19455TIP3   OH279855   6.585   5.465  13.738 -0.3335  0.7874 -0.1422
19455TIP3    H179856   6.497   5.456  13.702  0.6421 -1.3354 -2.2765
19455TIP3    H279857   6.640   5.490  13.663  1.2184 -0.1435  0.6217
19456TIP3   OH279858   3.210   2.189  17.369 -0.7082  0.5709  0.3336
19456TIP3    H179859   3.135   2.133  17.390 -0.2500  0.6340  2.2912
19456TIP3    H279860   3.184   2.276  17.398 -1.0424  1.2592 -1.8358
19457TIP3   OH279861   1.076   5.391  13.647  0.3001  0.0651  0.2913
19457TIP3    H179862   1.026   5.407  13.727 -0.4694 -1.1163  0.0781
19457TIP3    H279863   1.048   5.304  13.619  2.8205 -0.8746  0.4113
19458TIP3   OH279864   0.692   0.933   1.653  0.0165 -0.0177  0.5575
19458TIP3    H179865   0.742   1.012   1.635  1.1307 -0.8386 -0.1181
19458TIP3    H279866   0.741   0.863   1.609 -1.9948 -0.8019 -0.6288
19459TIP3   OH279867   6.089   4.776  11.338 -0.3504  0.4817 -0.2401
19459TIP3    H179868   6.045   4.801  11.257  2.1639  1.2238 -1.4989
19459TIP3    H279869   6.140   4.854  11.361  1.7725 -0.9153  0.0053
19460TIP3   OH279870   1.202   1.573  14.704  0.1493  0.3867 -0.0422
19460TIP3    H179871   1.285   1.595  14.661  0.3400 -0.1772  0.0305
19460TIP3    H279872   1.141   1.641  14.675  0.6308  0.7941 -0.1128
19461TIP3   OH279873   3.027   3.222  15.395  0.3718  0.1810  0.1344
19461TIP3    H179874   2.999   3.165  15.324  1.0309 -0.7812  0.6245
19461TIP3    H279875   2.982   3.305  15.378 -0.5983 -0.4692 -0.5970
19462TIP3   OH279876   4.461   3.603   1.686 -0.2999  0.4850 -0.6079
19462TIP3    H179877   4.372   3.597   1.652 -0.7570  0.1162  0.6094
19462TIP3    H279878   4.488   3.693   1.667 -0.2424  0.0839 -2.5921
19463TIP3   OH279879   3.039   3.810   1.199  0.2802 -0.2576 -0.7402
19463TIP3    H179880   3.021   3.886   1.144 -0.7034  0.8450  1.0121
19463TIP3    H279881   3.120   3.773   1.164 -0.6773 -0.0847 -3.3530
19464TIP3   OH279882   4.510   5.289   2.859  0.4343 -0.4742  0.1723
19464TIP3    H179883   4.522   5.317   2.950  0.2705  0.0464  0.0376
19464TIP3    H279884   4.571   5.216   2.848  1.9152  0.7150  0.1258
19465TIP3   OH279885   5.320   2.112   2.406  0.3109  0.4780 -0.1194
19465TIP3    H179886   5.234   2.149   2.388  1.7008  4.5576  0.3536
19465TIP3    H279887   5.308   2.058   2.484 -1.6435  1.9845  0.7157
19466TIP3   OH279888   4.028   4.295  15.801 -0.0991 -0.7669 -0.1280
19466TIP3    H179889   3.951   4.263  15.755 -0.2332 -1.0284  0.2703
19466TIP3    H279890   4.069   4.357  15.741 -1.8061  1.0630  0.4612
19467TIP3   OH279891   2.500   6.184   3.366  0.6216 -0.4377  0.4384
19467TIP3    H179892   2.582   6.169   3.413 -0.1327  0.1807  2.0014
19467TIP3    H279893   2.458   6.098   3.365  0.8040 -0.5308  0.5634
19468TIP3   OH279894   6.545   4.947   1.192  0.1522 -0.1254  0.5791
19468TIP3    H179895   6.537   5.008   1.266  0.2406  0.3981  0.1659
19468TIP3    H279896   6.475   4.973   1.132 -0.1580 -0.7917  0.6526
19469TIP3   OH279897   0.377   2.330   4.508 -0.1076 -0.2540  0.6969
19469TIP3    H179898   0.433   2.255   4.528  0.5219 -0.4394 -1.4964
19469TIP3    H279899   0.296   2.291   4.475 -0.0577  0.0152  0.2475
19470TIP3   OH279900   2.411   3.984   1.939 -0.0172 -0.3969 -0.1220
19470TIP3    H179901   2.344   3.919   1.920 -2.1700  1.6975 -0.2573
19470TIP3    H279902   2.462   3.947   2.011  0.1271 -2.9864 -1.4468
19471TIP3   OH279903   4.888   0.833  15.440  0.2786 -0.2374  0.4627
19471TIP3    H179904   4.878   0.833  15.345 -0.1207 -0.5446  0.5036
19471TIP3    H279905   4.916   0.744  15.461  0.1020 -0.2479  0.6568
19472TIP3   OH279906   0.119   2.009   5.858 -0.3121 -0.2649  0.4529
19472TIP3    H179907   0.047   2.064   5.827 -0.6775 -0.4952  0.8771
19472TIP3    H279908   0.187   2.071   5.887 -0.7659 -0.0264  1.0370
19473TIP3   OH279909   2.268   6.242  13.638  0.4193 -0.2175  0.0084
19473TIP3    H179910   2.316   6.318  13.670 -0.5941  0.3136  0.3109
19473TIP3    H279911   2.328   6.169  13.650  0.5335  0.1399  2.0096
19474TIP3   OH279912   0.257   6.390   2.645 -0.2778 -0.3403 -0.1507
19474TIP3    H179913   0.312   6.358   2.574  0.7239 -1.9986  1.3070
19474TIP3    H279914   0.213   6.313   2.679 -1.6758  0.6022  0.2995
19475TIP3   OH279915   2.660   5.180   2.147 -0.2683  0.6281  0.2516
19475TIP3    H179916   2.564   5.182   2.149 -0.2477  1.6649  1.1299
19475TIP3    H279917   2.686   5.268   2.176  0.9491  0.2427  0.3614
19476TIP3   OH279918   0.506   3.506   2.682  0.2681  0.1669  0.5121
19476TIP3    H179919   0.550   3.587   2.708  0.1806  0.1108  0.8375
19476TIP3    H279920   0.440   3.492   2.749  0.6344 -0.4591  0.7436
19477TIP3   OH279921   2.538   5.220  16.578  0.4613  0.1013  0.4552
19477TIP3    H179922   2.524   5.209  16.672 -0.6844 -0.3468  0.2499
19477TIP3    H279923   2.579   5.138  16.550 -1.1876 -0.6834  0.2168
19478TIP3   OH279924   3.496   2.547   5.930 -0.3218 -0.2909  0.3948
19478TIP3    H179925   3.466   2.615   5.869 -0.2580 -0.7923 -0.2155
19478TIP3    H279926   3.425   2.538   5.993 -1.3300 -1.2107 -0.8163
19479TIP3   OH279927   2.607   1.664   6.259  0.0559 -0.3836 -0.0132
19479TIP3    H179928   2.637   1.731   6.197 -1.3385  1.7523  1.4974
19479TIP3    H279929   2.685   1.641   6.308  0.4359  0.6750 -0.0901
19480TIP3   OH279930   4.089   3.452  15.842 -0.2352  0.3898  0.3410
19480TIP3    H179931   4.139   3.390  15.788  0.1940  1.0484 -0.0454
19480TIP3    H279932   4.099   3.420  15.931  2.2700  1.3563  0.4970
19481TIP3   OH279933   5.046   0.425  11.918 -0.1152  0.5499 -0.1633
19481TIP3    H179934   5.053   0.330  11.912 -1.5406  0.3924  0.3681
19481TIP3    H279935   5.074   0.445  12.008  0.5679  0.6781 -0.4017
19482TIP3   OH279936   3.998   3.026  11.516  0.1526 -0.0756  0.0661
19482TIP3    H179937   3.978   2.949  11.570  1.2777  0.3101  1.0898
19482TIP3    H279938   3.945   3.015  11.437 -1.1802 -0.9226  1.0232
19483TIP3   OH279939   5.529   4.988   1.594 -0.0731  0.0270 -0.4566
19483TIP3    H179940   5.530   4.972   1.688  0.5316 -1.8211 -0.7240
19483TIP3    H279941   5.457   4.934   1.562  1.7366 -2.0149 -1.3767
19484TIP3   OH279942   3.337   6.360  14.690  0.0071  0.3668  0.2211
19484TIP3    H179943   3.326   6.409  14.771  0.3268  0.3278  0.2882
19484TIP3    H279944   3.307   6.420  14.621  1.8558  1.2600  0.1457
19485TIP3   OH279945   3.284   6.214  12.154  0.3973  0.5130 -0.6797
19485TIP3    H179946   3.191   6.228  12.137  0.6026  2.6043 -0.4100
19485TIP3    H279947   3.286   6.140  12.215 -0.9317 -0.7344 -2.0666
19486TIP3   OH279948   3.055   3.912  17.355  0.2598  0.3863  0.2063
19486TIP3    H179949   3.140   3.871  17.372  0.0344 -0.6251 -0.9503
19486TIP3    H279950   2.994   3.865  17.411  0.2448  0.1262 -0.0231
19487TIP3   OH279951   6.614   1.902  14.822  0.2760  0.1120  0.2451
19487TIP3    H179952   6.562   1.825  14.845  1.2555 -0.5412  0.3742
19487TIP3    H279953   6.566   1.944  14.751  0.6183 -1.6624 -1.1238
19488TIP3   OH279954   0.012   3.127  12.461 -0.1572 -0.1884 -0.2675
19488TIP3    H179955   0.031   3.221  12.470  0.0239 -0.1084 -1.3459
19488TIP3    H279956   0.085   3.093  12.410  1.1571 -1.4610  2.2781
19489TIP3   OH279957   3.163   4.154   1.240  0.1848 -0.0083  0.6580
19489TIP3    H179958   3.224   4.216   1.281  0.6370 -1.0303  1.5849
19489TIP3    H279959   3.131   4.100   1.312 -2.2553  0.8236  0.2659
19490TIP3   OH279960   1.014   5.677   4.477  0.1491  0.0799 -0.2030
19490TIP3    H179961   1.031   5.679   4.383  0.8276  0.6934 -0.0818
19490TIP3    H279962   1.056   5.597   4.508  0.2251  0.0539 -0.3745
19491TIP3   OH279963   1.322   5.983  16.440  0.2218  0.1788 -0.0724
19491TIP3    H179964   1.401   6.013  16.395  0.8309 -1.2986 -0.0134
19491TIP3    H279965   1.256   5.977  16.371  0.7065 -0.4892 -0.4881
19492TIP3   OH279966   3.578   2.290   3.597  0.2446  0.1345  0.3276
19492TIP3    H179967   3.508   2.255   3.543 -2.5518  2.4706  2.1319
19492TIP3    H279968   3.620   2.213   3.636 -0.7201 -1.3635 -1.4667
19493TIP3   OH279969   0.714   6.221  14.447 -0.0199 -0.1937 -0.3564
19493TIP3    H179970   0.634   6.240  14.399  1.5235  0.6386 -2.7726
19493TIP3    H279971   0.754   6.307  14.463  0.0992 -0.5383  1.4348
19494TIP3   OH279972   3.749   1.720  10.902  0.3850  0.4043 -0.0968
19494TIP3    H179973   3.733   1.780  10.975  1.8861 -0.3199  0.8734
19494TIP3    H279974   3.830   1.751  10.863  0.9958 -0.7602  0.2047
19495TIP3   OH279975   5.278   4.909   0.466 -0.4699  0.4010  0.4291
19495TIP3    H179976   5.366   4.937   0.438 -0.9963  0.2464 -1.5445
19495TIP3    H279977   5.227   4.990   0.469 -0.0118  0.6844  2.8595
19496TIP3   OH279978   1.459   1.627   2.925  0.2740  0.5409  0.2269
19496TIP3    H179979   1.381   1.679   2.909 -0.5830 -0.9919 -0.7924
19496TIP3    H279980   1.438   1.575   3.003  0.2279  0.0808 -0.0850
19497TIP3   OH279981   1.809   5.701  11.402  0.4527 -0.0244  0.1476
19497TIP3    H179982   1.779   5.650  11.326  2.7478 -0.7778 -0.3205
19497TIP3    H279983   1.812   5.637  11.474  0.5294  0.1436  0.2938
19498TIP3   OH279984   2.542   3.608  14.598 -0.5602 -0.3239  0.1809
19498TIP3    H179985   2.523   3.531  14.651  0.6567 -1.1452 -0.5130
19498TIP3    H279986   2.628   3.589  14.559  0.4141  1.9453  1.0383
19499TIP3   OH279987   3.247   3.853  16.556  0.4690 -0.1253 -0.0377
19499TIP3    H179988   3.284   3.804  16.482  1.4175  0.2215  0.1922
19499TIP3    H279989   3.178   3.907  16.517  1.6330  0.8133 -0.8640
19500TIP3   OH279990   1.734   3.336  14.686 -0.1455 -0.1603  0.3111
19500TIP3    H179991   1.775   3.296  14.610  1.0861  0.6774  0.5190
19500TIP3    H279992   1.779   3.419  14.698 -1.6786  0.6507  0.7618
19501TIP3   OH279993   1.464   4.978  16.037 -0.0048  0.2299  0.6743
19501TIP3    H179994   1.438   4.888  16.019  0.5207  0.1151  0.4663
19501TIP3    H279995   1.557   4.972  16.058  0.1139  0.7621  0.3203
19502TIP3   OH279996   1.949   1.472   0.427 -0.1161  0.7993  0.1400
19502TIP3    H179997   1.999   1.390   0.431  0.0360  0.8858 -0.0025
19502TIP3    H279998   1.908   1.470   0.341 -0.5752  0.6025  0.3566
19503TIP3   OH279999   1.497   5.112  14.355  0.1171 -0.5714 -0.3363
19503TIP3    H180000   1.579   5.147  14.390 -0.9830  1.3899  0.3964
19503TIP3    H280001   1.435   5.119  14.428 -0.8308 -1.6826 -0.9906
19504TIP3   OH280002   2.773   5.854  11.715 -0.4410  0.1073  0.3814
19504TIP3    H180003   2.750   5.930  11.768 -3.5706  0.1247 -0.7763
19504TIP3    H280004   2.767   5.780  11.775  1.7259  0.5915  1.2971
19505TIP3   OH280005   5.813   0.327   1.210  0.2726 -0.3639  0.1551
19505TIP3    H180006   5.831   0.248   1.262  0.1810 -1.0305 -0.7911
19505TIP3    H280007   5.797   0.294   1.122  3.2444  0.9011 -0.9945
19506TIP3   OH280008   1.838   5.104   1.762 -0.0887  0.2664 -0.4941
19506TIP3    H180009   1.927   5.136   1.779 -0.1603  1.6292 -2.3477
19506TIP3    H280010   1.845   5.009   1.773  0.8123  0.5962  2.4033
19507TIP3   OH280011   3.176   0.269   0.601 -0.5835  0.3103  0.5804
19507TIP3    H180012   3.210   0.261   0.512 -1.7606 -0.7537  0.1933
19507TIP3    H280013   3.201   0.186   0.643 -3.2662 -0.8570  0.0461
19508TIP3   OH280014   3.563   0.164   5.665  0.0330  0.3637  0.2424
19508TIP3    H180015   3.511   0.208   5.733 -1.0098 -1.7337  0.8842
19508TIP3    H280016   3.620   0.104   5.713 -0.3364 -0.7633 -0.6782
19509TIP3   OH280017   4.812   4.151  13.324 -0.2137 -0.1774  0.6755
19509TIP3    H180018   4.885   4.209  13.300 -1.4928  1.4075  0.3804
19509TIP3    H280019   4.749   4.161  13.252 -0.6561 -1.6590  0.8218
19510TIP3   OH280020   2.595   3.061  11.503  0.1329  0.3109 -0.1220
19510TIP3    H180021   2.520   3.086  11.449  0.5903  0.6744 -0.5965
19510TIP3    H280022   2.664   3.042  11.441  0.9744  1.7083  0.3425
19511TIP3   OH280023   3.158   0.475  12.267  0.0650  0.3739  0.1846
19511TIP3    H180024   3.130   0.547  12.323 -0.9659 -0.7144  1.1238
19511TIP3    H280025   3.249   0.459  12.292  0.5055  1.7206 -0.4690
19512TIP3   OH280026   1.649   0.958   0.923  0.1857  0.9381 -0.0188
19512TIP3    H180027   1.674   0.973   1.014  0.7532  0.1597 -0.0357
19512TIP3    H280028   1.716   1.003   0.872  1.2007 -0.5462 -0.0569
19513TIP3   OH280029   3.354   1.036   5.044  0.9433 -0.3641  0.4682
19513TIP3    H180030   3.430   0.994   5.003 -0.1039  1.0176 -3.2963
19513TIP3    H280031   3.280   0.981   5.020  0.2159  0.7686  0.0411
19514TIP3   OH280032   6.220   2.851  11.532  0.1598 -0.4211 -0.0499
19514TIP3    H180033   6.126   2.834  11.541 -0.5661  1.9489 -2.0794
19514TIP3    H280034   6.247   2.802  11.454  0.2876 -0.0876 -0.2204
19515TIP3   OH280035   1.962   5.616  15.896  0.3040 -0.6775 -0.2915
19515TIP3    H180036   1.875   5.582  15.877  0.4562 -1.6266  0.6212
19515TIP3    H280037   1.947   5.706  15.925 -0.5512 -1.3727  1.5146
19516TIP3   OH280038   0.268   3.511   5.104  0.2863 -0.3452  0.0673
19516TIP3    H180039   0.230   3.425   5.123  0.8999 -0.7287 -0.3846
19516TIP3    H280040   0.234   3.568   5.173 -3.3039  0.0226 -1.7509
19517TIP3   OH280041   3.631   5.120   4.812 -0.1400 -0.3205 -0.4022
19517TIP3    H180042   3.568   5.121   4.884  0.4249 -0.7928  0.1093
19517TIP3    H280043   3.669   5.208   4.811  0.4978 -0.5680  0.4729
19518TIP3   OH280044   1.014   1.681   3.031  0.3159  0.1779  0.1354
19518TIP3    H180045   0.981   1.767   3.056  0.3637 -0.1663  1.4452
19518TIP3    H280046   0.979   1.667   2.943 -0.7451  1.0034  0.4028
19519TIP3   OH280047   3.843   0.241   0.276 -0.2967  0.0521  0.1213
19519TIP3    H180048   3.781   0.175   0.242 -1.6145  0.7625  1.0491
19519TIP3    H280049   3.851   0.305   0.205  0.4123 -0.7024 -0.4999
19520TIP3   OH280050   0.413   5.753  11.682 -0.1043 -0.0883  0.4742
19520TIP3    H180051   0.507   5.774  11.679 -0.2138  0.3029 -0.9849
19520TIP3    H280052   0.408   5.675  11.737  1.0583 -0.0061  0.7217
19521TIP3   OH280053   5.894   0.710  16.803  0.7322 -0.1320  0.0979
19521TIP3    H180054   5.919   0.629  16.848 -0.7228 -0.5285  0.2707
19521TIP3    H280055   5.803   0.694  16.776  0.6887  1.1514 -0.5586
19522TIP3   OH280056   0.090   2.217   0.582 -0.2110  0.0025 -0.0720
19522TIP3    H180057   0.104   2.307   0.555  0.0507  0.3621  1.2292
19522TIP3    H280058   0.149   2.204   0.656 -0.7865 -1.0128  0.2301
19523TIP3   OH280059   1.149   5.000   0.181 -0.0272  0.3058 -0.4057
19523TIP3    H180060   1.073   4.999   0.123 -0.7388 -1.7846  0.4698
19523TIP3    H280061   1.128   4.936   0.249  1.5821  1.3099  1.1237
19524TIP3   OH280062   2.272   6.513  15.043  0.0030  0.2873  0.0028
19524TIP3    H180063   2.267   6.417  15.049  0.3967  0.0934 -2.2019
19524TIP3    H280064   2.343   6.536  15.103  0.6574 -0.9114 -0.2725
19525TIP3   OH280065   4.073   1.536   5.647  0.1204  0.4593  0.2814
19525TIP3    H180066   4.069   1.451   5.691  1.1398  0.3653  0.2170
19525TIP3    H280067   4.167   1.556   5.643  0.1079  0.3451 -2.0808
19526TIP3   OH280068   1.507   2.345   2.742  0.5321 -0.0257 -0.4710
19526TIP3    H180069   1.516   2.399   2.663 -0.6734  0.7574 -0.0983
19526TIP3    H280070   1.537   2.258   2.715  3.1409  0.9401 -0.9102
19527TIP3   OH280071   5.912   5.515  15.160  0.2276  0.1133  0.4645
19527TIP3    H180072   5.897   5.603  15.125 -1.4587  0.0743  1.0115
19527TIP3    H280073   5.828   5.489  15.198  0.5017 -2.0020 -0.2436
19528TIP3   OH280074   1.935   4.793  16.233 -0.8367 -0.0479 -0.2950
19528TIP3    H180075   2.013   4.821  16.185  0.5852 -3.6713 -0.3562
19528TIP3    H280076   1.968   4.739  16.305 -3.1920  0.9237  1.6875
19529TIP3   OH280077   4.400   1.213   0.130  0.1292  0.1283 -0.1251
19529TIP3    H180078   4.373   1.180   0.216 -1.7484 -1.2319 -1.1656
19529TIP3    H280079   4.332   1.276   0.106 -0.7194 -1.2863 -1.6078
19530TIP3   OH280080   1.447   6.290   2.926 -0.0591 -0.0384  0.1516
19530TIP3    H180081   1.483   6.377   2.938  1.1211 -0.8307  3.1842
19530TIP3    H280082   1.523   6.234   2.910 -0.4090 -0.9540  1.4815
19531TIP3   OH280083   6.372   2.969   3.807  0.2040  0.4096  0.1275
19531TIP3    H180084   6.311   3.007   3.870  0.8661  1.2036  0.3001
19531TIP3    H280085   6.378   3.033   3.736  1.7893  0.9472  0.7047
19532TIP3   OH280086   2.552   2.864   2.000 -0.3320  0.2145 -0.0791
19532TIP3    H180087   2.624   2.808   2.029 -0.4790 -0.2412 -0.5896
19532TIP3    H280088   2.503   2.883   2.081 -1.2900 -1.8323 -0.1125
19533TIP3   OH280089   2.967   0.105  11.525  0.4331 -0.4327  0.2283
19533TIP3    H180090   2.952   0.171  11.457 -0.3231  0.2139  1.0028
19533TIP3    H280091   2.895   0.044  11.516  1.5216 -1.6055 -0.9616
19534TIP3   OH280092   5.026   2.385  16.271 -0.5271  0.4537 -0.3596
19534TIP3    H180093   5.093   2.367  16.205 -0.1304 -0.8669  0.3737
19534TIP3    H280094   4.944   2.393  16.222 -0.0405  0.7821 -1.1291
19535TIP3   OH280095   5.746   4.364   2.558  0.4179  0.5968 -0.1501
19535TIP3    H180096   5.690   4.306   2.506 -0.2781  0.2057  1.0105
19535TIP3    H280097   5.832   4.324   2.553  0.5828  1.0778 -1.7683
19536TIP3   OH280098   2.174   6.350  11.856 -0.1891  0.2337 -0.1664
19536TIP3    H180099   2.110   6.368  11.787  0.5152  1.8328 -0.4385
19536TIP3    H280100   2.218   6.269  11.828 -1.9110 -0.7973 -0.0618
19537TIP3   OH280101   4.412   4.527  16.376  0.2129  0.0385 -0.2074
19537TIP3    H180102   4.333   4.481  16.403 -0.5574  0.7327 -1.2101
19537TIP3    H280103   4.482   4.490  16.430 -0.7985 -0.5644  0.6966
19538TIP3   OH280104   5.582   2.922  14.642  0.1424 -0.0755 -0.0944
19538TIP3    H180105   5.577   3.006  14.597 -2.7064 -0.6786 -1.0814
19538TIP3    H280106   5.534   2.935  14.724  1.0132 -0.3693  0.4897
19539TIP3   OH280107   2.157   5.401  17.621  0.2273  0.2976 -0.6855
19539TIP3    H180108   2.078   5.426  17.572  1.1098  2.3273 -1.1770
19539TIP3    H280109   2.138   5.427  17.711 -1.3895 -3.4215  0.2481
19540TIP3   OH280110   1.042   6.079   2.494 -0.3914 -0.0411  0.4917
19540TIP3    H180111   1.096   6.024   2.437  1.6635  1.8311  0.5151
19540TIP3    H280112   1.058   6.047   2.582  0.6146  0.4276  0.4847
19541TIP3   OH280113   6.050   6.220  12.659 -0.0675 -0.7142 -0.2482
19541TIP3    H180114   5.999   6.147  12.692  0.4983 -0.6355  0.8445
19541TIP3    H280115   6.061   6.278  12.734 -1.3854  1.0364 -1.3257
19542TIP3   OH280116   4.136   4.818  14.280  0.3552 -0.2370  0.2634
19542TIP3    H180117   4.146   4.810  14.185 -0.1064  0.1389  0.1812
19542TIP3    H280118   4.065   4.881  14.292  0.4667 -0.2160  0.8605
19543TIP3   OH280119   4.797   3.020  14.298 -0.1521  0.3206  0.0906
19543TIP3    H180120   4.778   2.934  14.260 -1.2126  0.0518  1.1325
19543TIP3    H280121   4.718   3.041  14.349  0.5539  1.3908  0.7837
19544TIP3   OH280122   6.031   6.194  13.104 -0.1711  0.3845 -0.9364
19544TIP3    H180123   6.054   6.278  13.144  0.9545  0.5715 -1.9363
19544TIP3    H280124   5.964   6.158  13.162 -1.6621  2.5726 -1.1790
19545TIP3   OH280125   0.903   1.286   4.857  0.4755 -0.2112 -0.1456
19545TIP3    H180126   0.886   1.306   4.764  0.0426  2.9140  0.4993
19545TIP3    H280127   0.977   1.342   4.880 -0.4493  0.2747  1.7829
19546TIP3   OH280128   4.729   1.473  12.615 -0.2658 -0.1975  0.7110
19546TIP3    H180129   4.679   1.551  12.592 -0.1333  0.0362  1.1833
19546TIP3    H280130   4.671   1.423  12.672  0.3020  0.4737  1.9376
19547TIP3   OH280131   1.293   1.107  16.409  0.8020 -0.5102  0.0392
19547TIP3    H180132   1.256   1.020  16.421 -0.2880 -0.1375 -0.4804
19547TIP3    H280133   1.271   1.130  16.318 -0.1745  0.8653  0.5918
19548TIP3   OH280134   2.711   5.133  12.933  0.1957  0.0163  0.2973
19548TIP3    H180135   2.761   5.196  12.881  0.1007 -1.1911 -1.3524
19548TIP3    H280136   2.620   5.148  12.908  0.1719 -0.7589 -0.0964
19549TIP3   OH280137   0.475   2.744   4.578  0.0203  0.2652  0.1504
19549TIP3    H180138   0.508   2.729   4.667 -0.3982  1.5168  0.5456
19549TIP3    H280139   0.380   2.746   4.588 -0.1187 -1.1329 -0.6111
19550TIP3   OH280140   1.793   0.013   1.053 -0.4609 -0.2693  0.1775
19550TIP3    H180141   1.708   0.056   1.043  0.1962  0.6484 -2.4912
19550TIP3    H280142   1.785  -0.069   1.005  0.5285  0.4999 -1.3856
19551TIP3   OH280143   0.069   6.105   3.706  0.4979  0.1491 -0.3893
19551TIP3    H180144   0.035   6.194   3.700 -2.1407 -0.8072 -0.9071
19551TIP3    H280145   0.091   6.093   3.799 -0.3232  0.9391 -0.0858
19552TIP3   OH280146   2.186   3.324  17.506 -0.0405 -0.3498  0.2110
19552TIP3    H180147   2.258   3.377  17.539  0.0400 -0.0471 -0.4335
19552TIP3    H280148   2.226   3.266  17.441 -0.3372 -0.3403  0.0174
19553TIP3   OH280149   1.539   0.071  14.294  0.5620  0.5005 -0.6958
19553TIP3    H180150   1.521   0.164  14.305 -0.7829  0.4203 -1.9590
19553TIP3    H280151   1.506   0.050  14.207  2.1359 -0.8637 -1.0050
19554TIP3   OH280152   3.507   3.768  16.660  0.0314  0.7222  0.2648
19554TIP3    H180153   3.414   3.764  16.640  0.1394  0.5585 -0.2122
19554TIP3    H280154   3.543   3.688  16.621  0.4262  0.9466  0.1666
19555TIP3   OH280155   6.096   4.379   6.510  0.0675  0.5603 -0.1629
19555TIP3    H180156   6.102   4.292   6.550 -1.0971  1.3700  1.9170
19555TIP3    H280157   6.065   4.362   6.421 -2.3469 -1.1090  0.8672
19556TIP3   OH280158   3.991   5.524   4.364 -0.3287 -0.3627 -0.0271
19556TIP3    H180159   4.053   5.525   4.437 -1.2448 -1.6217  0.8154
19556TIP3    H280160   4.014   5.600   4.312  0.5253  0.4308  1.4386
19557TIP3   OH280161   5.689   3.109   4.529  0.1176  0.1077  0.6764
19557TIP3    H180162   5.615   3.171   4.534 -1.0457 -1.2177  0.5514
19557TIP3    H280163   5.647   3.024   4.514  1.5539 -1.0093  2.7111
19558TIP3   OH280164   0.122   3.836  13.066 -0.1413  0.5154 -0.5251
19558TIP3    H180165   0.058   3.774  13.031  0.6551 -1.0969  0.7212
19558TIP3    H280166   0.168   3.869  12.989  0.1849 -1.3555 -1.1943
19559TIP3   OH280167   6.008   3.950   6.408 -0.2472 -0.1607 -0.0080
19559TIP3    H180168   5.948   4.009   6.453 -1.0289 -0.0638 -1.1269
19559TIP3    H280169   6.006   3.979   6.316  0.0457 -1.3602 -0.4150
19560TIP3   OH280170   5.964   6.571   2.368  0.2113  0.0904  0.3780
19560TIP3    H180171   5.998   6.549   2.281 -1.5283 -1.7780  0.1033
19560TIP3    H280172   5.939   6.487   2.406 -3.3111  1.1958  0.8505
19561TIP3   OH280173   3.683   2.097   1.506 -0.1955  0.7568 -0.2620
19561TIP3    H180174   3.768   2.139   1.490  0.8464 -0.5947  1.2776
19561TIP3    H280175   3.619   2.155   1.466  1.5324  1.2182 -2.5631
19562TIP3   OH280176   4.148   2.406  16.818 -0.5364  0.1332 -0.3237
19562TIP3    H180177   4.110   2.490  16.841  1.1698  0.4493  1.6182
19562TIP3    H280178   4.089   2.370  16.752 -0.9830  3.1151 -1.7082
19563TIP3   OH280179   0.107   2.869  17.612  0.1170  0.7807 -0.1088
19563TIP3    H180180   0.102   2.847  17.518 -0.0735  1.5818 -0.2895
19563TIP3    H280181   0.037   2.933  17.626  0.9005  1.5639  0.3202
19564TIP3   OH280182   4.163   1.122   4.878 -0.0578  0.6564 -0.1984
19564TIP3    H180183   4.078   1.080   4.866  0.4701 -0.6396  0.4299
19564TIP3    H280184   4.172   1.132   4.972  0.3008  1.2125 -0.2853
19565TIP3   OH280185   5.633   0.164   3.902  0.3144  0.4704 -0.2696
19565TIP3    H180186   5.542   0.168   3.874  1.0265  1.1729 -2.6742
19565TIP3    H280187   5.668   0.087   3.858  1.2488  1.0442 -0.5558
19566TIP3   OH280188   1.022   5.273   5.573 -0.0018 -0.4257 -0.1730
19566TIP3    H180189   1.090   5.337   5.551 -0.4829 -0.3458 -1.5020
19566TIP3    H280190   0.950   5.325   5.607 -0.8617 -0.0728 -2.3699
19567TIP3   OH280191   1.445   6.616   4.368 -0.4311 -0.2159  0.3699
19567TIP3    H180192   1.474   6.527   4.385  0.4206  0.2719  1.6099
19567TIP3    H280193   1.474   6.635   4.279  0.3970 -0.7788  0.5178
19568TIP3   OH280194   4.185   6.625   4.819 -0.0442  0.0907  0.1751
19568TIP3    H180195   4.164   6.677   4.896 -2.8149 -0.4303 -0.1033
19568TIP3    H280196   4.200   6.537   4.854  1.1648  0.3286  0.3070
19569TIP3   OH280197   2.799   5.844  17.505 -0.0750  0.7554 -0.2150
19569TIP3    H180198   2.713   5.821  17.540 -0.2106  2.0789  0.3931
19569TIP3    H280199   2.837   5.761  17.478 -0.8893 -0.0574  1.0355
19570TIP3   OH280200   4.997   3.062   1.656  0.0092 -0.3698  0.7771
19570TIP3    H180201   5.012   2.999   1.586 -0.1487  0.2174  0.1988
19570TIP3    H280202   4.902   3.074   1.657  0.1849  1.9022 -1.0072
19571TIP3   OH280203   3.733   0.036   0.156  0.0022  0.5262  0.1718
19571TIP3    H180204   3.712  -0.044   0.203 -0.9842 -0.6273 -2.0501
19571TIP3    H280205   3.649   0.067   0.123  0.6097  1.4246 -0.5848
19572TIP3   OH280206   2.299   2.136   4.566  0.0882 -0.2972  0.1789
19572TIP3    H180207   2.311   2.047   4.532 -0.0785 -0.0483 -0.5599
19572TIP3    H280208   2.277   2.188   4.488 -1.3321  0.1000  0.8242
19573TIP3   OH280209   2.960   3.601  14.912  0.6009  0.4846 -0.0392
19573TIP3    H180210   2.900   3.675  14.905 -0.5214 -0.4681 -0.7660
19573TIP3    H280211   2.917   3.530  14.865  2.0546 -0.3936 -0.1170
19574TIP3   OH280212   5.103   3.023  16.084 -0.1207  0.2409 -1.2380
19574TIP3    H180213   5.010   3.023  16.105 -0.2007 -0.0359 -1.5801
19574TIP3    H280214   5.147   3.028  16.169 -0.4519  1.7597 -1.1404
19575TIP3   OH280215   5.074   3.421   2.011 -0.3101 -0.7621 -0.4327
19575TIP3    H180216   5.168   3.418   2.029 -0.2379 -1.3378 -0.8541
19575TIP3    H280217   5.068   3.446   1.918 -0.6545  1.7582  0.1932
19576TIP3   OH280218   1.772   6.517   0.913  0.0959 -0.1639 -0.6817
19576TIP3    H180219   1.826   6.531   0.835 -1.5800 -2.6256 -2.4524
19576TIP3    H280220   1.808   6.439   0.954 -0.2947 -0.0779 -0.1622
19577TIP3   OH280221   1.035   3.596  11.420  0.2909  0.5005 -0.1446
19577TIP3    H180222   1.047   3.691  11.428 -0.5969  0.6479 -0.3917
19577TIP3    H280223   0.949   3.587  11.379 -0.1804 -0.4289  0.9771
19578TIP3   OH280224   2.044   3.348  14.748 -0.3602  0.0741  0.0641
19578TIP3    H180225   2.085   3.345  14.834 -0.4806 -0.7157  0.1052
19578TIP3    H280226   1.996   3.430  14.746  1.2073  1.0228  0.0163
19579TIP3   OH280227   3.165   6.597  16.816 -0.4670 -0.0305 -0.0283
19579TIP3    H180228   3.211   6.662  16.763 -2.4121 -0.0148 -1.8404
19579TIP3    H280229   3.183   6.513  16.772 -0.4267 -0.2991  0.4999
19580TIP3   OH280230   2.548   1.412  14.292 -0.3680 -0.2642  0.1601
19580TIP3    H180231   2.558   1.318  14.309  2.6136  0.0321  0.4260
19580TIP3    H280232   2.504   1.416  14.207 -1.7532 -1.8388  0.7405
19581TIP3   OH280233   4.243   1.807   1.905  0.1371 -0.1803 -0.0776
19581TIP3    H180234   4.336   1.813   1.884 -0.1557  0.5141 -1.2650
19581TIP3    H280235   4.210   1.896   1.897 -0.2541 -0.0244  2.3769
19582TIP3   OH280236   0.728   3.253  13.655 -0.2112  0.2146  0.0669
19582TIP3    H180237   0.733   3.214  13.568  1.3036 -2.8580  1.3629
19582TIP3    H280238   0.782   3.332  13.649 -1.0833  0.7128 -2.0101
19583TIP3   OH280239   2.448   0.759  17.509 -0.5923 -0.1434  0.3108
19583TIP3    H180240   2.367   0.781  17.555 -1.7757 -1.3945 -1.0648
19583TIP3    H280241   2.452   0.821  17.436 -0.8714 -0.7720 -0.2377
19584TIP3   OH280242   3.035   0.038   1.559  0.4487 -0.0332 -0.1120
19584TIP3    H180243   3.125   0.070   1.567  0.2860  0.2666  0.5419
19584TIP3    H280244   3.014   0.004   1.646  0.5565 -1.7879 -0.7288
19585TIP3   OH280245   0.680   0.448   0.305  0.1123 -0.2257 -0.0419
19585TIP3    H180246   0.591   0.460   0.270 -0.0459  2.6296  1.0769
19585TIP3    H280247   0.724   0.531   0.285  1.2331  0.0041  2.9250
19586TIP3   OH280248   0.565   4.325   0.842 -0.0618  0.1909 -0.7604
19586TIP3    H180249   0.530   4.347   0.756  2.0213 -0.3025 -1.7855
19586TIP3    H280250   0.553   4.231   0.849 -0.6985  0.3029 -0.2688
19587TIP3   OH280251   6.279   2.371  16.688  0.4254 -0.4502  0.2230
19587TIP3    H180252   6.186   2.358  16.671  0.6057 -0.6725 -0.6838
19587TIP3    H280253   6.303   2.301  16.748  0.1962 -0.9450 -0.2534
19588TIP3   OH280254   1.978   0.034  14.335 -0.2451 -0.4748  0.4249
19588TIP3    H180255   2.040  -0.003  14.272  0.8734 -1.3205  1.9677
19588TIP3    H280256   1.932  -0.041  14.371 -0.6886 -0.0273  0.8178
19589TIP3   OH280257   4.480   1.828   6.523  0.3686  0.0735 -0.6476
19589TIP3    H180258   4.521   1.750   6.561  1.1068 -0.2842 -2.0713
19589TIP3    H280259   4.539   1.853   6.451 -0.2643  1.4854 -0.7138
19590TIP3   OH280260   4.669   4.034  16.400  0.1729 -0.2082  0.0431
19590TIP3    H180261   4.737   4.066  16.459  0.2712 -0.0859 -0.1364
19590TIP3    H280262   4.694   4.067  16.314  0.0523 -0.4195 -0.0746
19591TIP3   OH280263   3.364   0.969   1.079  0.4121 -0.4489 -0.3139
19591TIP3    H180264   3.391   1.051   1.120  1.9428  0.3245 -2.6567
19591TIP3    H280265   3.422   0.903   1.116 -0.3701 -0.3919  1.0807
19592TIP3   OH280266   3.804   3.613  17.434  0.3420 -0.1273  0.3834
19592TIP3    H180267   3.841   3.613  17.522 -0.4926 -1.2683  0.7589
19592TIP3    H280268   3.788   3.706  17.415  1.3990  0.2095  1.0389
19593TIP3   OH280269   0.646   0.105   3.451  0.5738  0.1641  0.5983
19593TIP3    H180270   0.650   0.016   3.487  1.0122  0.6360  1.7811
19593TIP3    H280271   0.554   0.120   3.434  0.2589  0.1033  2.0844
19594TIP3   OH280272   5.647   6.464   5.366  0.4036  0.2598 -0.5399
19594TIP3    H180273   5.570   6.516   5.344  0.6771  1.2166  0.6540
19594TIP3    H280274   5.669   6.490   5.456  1.7294 -0.4721 -0.6228
19595TIP3   OH280275   5.844   3.200   2.090 -0.0571  0.1426  0.4929
19595TIP3    H180276   5.835   3.236   2.002 -2.3248  1.6167  1.2508
19595TIP3    H280277   5.878   3.111   2.076 -0.3588  0.3371 -1.8556
19596TIP3   OH280278   3.608   3.298   6.378  0.5206 -0.1160  0.3214
19596TIP3    H180279   3.568   3.216   6.407  0.3577  0.0122  0.4657
19596TIP3    H280280   3.642   3.279   6.291 -0.5288 -0.0125 -0.1198
19597TIP3   OH280281   6.304   1.671   5.316 -0.8024 -0.6683 -0.1157
19597TIP3    H180282   6.364   1.628   5.255 -1.5680 -2.3155  0.2445
19597TIP3    H280283   6.218   1.659   5.277 -1.1696 -0.7129  0.6969
19598TIP3   OH280284   1.307   4.727   3.712  0.1980 -0.5911  0.2257
19598TIP3    H180285   1.314   4.811   3.757  0.4188 -0.7616  0.5123
19598TIP3    H280286   1.365   4.668   3.761 -0.2842 -1.0207  0.2831
19599TIP3   OH280287   5.764   4.208   5.590  0.2233 -0.9430 -0.1615
19599TIP3    H180288   5.725   4.206   5.503  1.4914  0.0066 -0.7880
19599TIP3    H280289   5.697   4.247   5.646 -0.5127 -1.3315 -0.7574
19600TIP3   OH280290   3.230   4.697   0.130 -0.4491 -0.1269 -0.0118
19600TIP3    H180291   3.189   4.662   0.209  0.9048  0.8884  1.2142
19600TIP3    H280292   3.316   4.727   0.160 -0.2907  1.2206 -1.6662
19601TIP3   OH280293   6.257   3.623   2.902  0.0009 -0.0508  0.0504
19601TIP3    H180294   6.230   3.532   2.915 -1.0528  0.1045 -0.8743
19601TIP3    H280295   6.187   3.675   2.941 -0.0074  0.3600 -0.4968
19602TIP3   OH280296   6.330   0.174  11.266 -0.2297  0.1429 -0.4178
19602TIP3    H180297   6.311   0.258  11.224 -1.7718  0.4155  0.7417
19602TIP3    H280298   6.247   0.147  11.304  0.5576 -1.2708  0.3863
19603TIP3   OH280299   1.129   4.966   5.199 -0.4602 -0.2577  0.7819
19603TIP3    H180300   1.221   4.989   5.207  0.0314 -2.1566  0.9392
19603TIP3    H280301   1.091   5.037   5.147  1.6482 -0.7609 -1.6114
19604TIP3   OH280302   0.899   2.929  17.429 -0.4495  0.4044  0.5056
19604TIP3    H180303   0.842   2.868  17.476 -0.5824  1.1009  1.2651
19604TIP3    H280304   0.988   2.902  17.454 -0.4239 -0.6193 -0.6023
19605TIP3   OH280305   2.796   2.103   5.826 -0.1303 -0.0118  0.4178
19605TIP3    H180306   2.853   2.133   5.756 -2.0264  1.0812 -0.7345
19605TIP3    H280307   2.760   2.183   5.864 -0.8782 -0.6583  1.1322
19606TIP3   OH280308   1.330   0.134   3.991 -0.6363 -0.5182  0.1076
19606TIP3    H180309   1.293   0.193   3.926 -1.6140 -2.4468 -1.1842
19606TIP3    H280310   1.254   0.097   4.037 -0.0811 -1.0638  0.6193
19607TIP3   OH280311   1.892   5.109  14.740 -0.1984  0.9017  0.3038
19607TIP3    H180312   1.827   5.177  14.720 -1.2278 -0.6358 -2.0910
19607TIP3    H280313   1.841   5.039  14.780  0.7287  1.1929  2.0814
19608TIP3   OH280314   0.379   0.278   4.658  0.0903  0.1078  0.1519
19608TIP3    H180315   0.410   0.365   4.633 -0.2147  0.0092 -0.6052
19608TIP3    H280316   0.379   0.228   4.576  0.0204 -0.5293  0.5328
19609TIP3   OH280317   2.401   2.967  16.387  0.3978 -0.8595  0.1467
19609TIP3    H180318   2.365   3.027  16.322  0.6467 -0.2921  0.5187
19609TIP3    H280319   2.441   3.025  16.453  0.5369 -1.4317  0.5724
19610TIP3   OH280320   5.043   3.551  15.789 -0.0344  0.1349  0.0493
19610TIP3    H180321   5.045   3.612  15.716 -0.0887  0.1635  0.0724
19610TIP3    H280322   4.971   3.492  15.770  0.7680 -0.6734 -0.5885
19611TIP3   OH280323   4.432   5.035   0.827 -0.3252 -0.2521 -0.0474
19611TIP3    H180324   4.347   5.036   0.870 -1.0917  1.9853 -1.4753
19611TIP3    H280325   4.444   5.124   0.794  1.4972 -1.1152 -1.9493
19612TIP3   OH280326   2.974   1.377   3.633  0.4461  0.1677 -0.0023
19612TIP3    H180327   2.918   1.374   3.555 -0.5847  1.3322  0.6655
19612TIP3    H280328   3.030   1.299   3.625  0.4789  0.3436 -1.9755
19613TIP3   OH280329   0.857   1.183   2.786  0.1617  0.0548  0.2507
19613TIP3    H180330   0.913   1.132   2.845  0.5969 -1.4950 -1.4175
19613TIP3    H280331   0.905   1.184   2.703 -2.7333 -2.4694 -1.6626
19614TIP3   OH280332   2.843   5.138  14.182 -0.1336  0.1675 -0.7061
19614TIP3    H180333   2.779   5.092  14.236  1.4273 -0.6565  0.5604
19614TIP3    H280334   2.795   5.212  14.144 -1.5863  0.1172  0.9266
19615TIP3   OH280335   2.941   2.347  11.780  0.2171 -1.1160 -0.2784
19615TIP3    H180336   2.891   2.272  11.748 -0.4951 -0.7792  0.0273
19615TIP3    H280337   2.941   2.409  11.707 -1.7548 -0.1775  0.4581
19616TIP3   OH280338   5.233   4.588  14.590  0.3799 -0.2013  0.1204
19616TIP3    H180339   5.274   4.520  14.536 -1.6705 -1.0962 -0.3985
19616TIP3    H280340   5.304   4.650  14.607  1.7465 -1.2445 -1.3846
19617TIP3   OH280341   5.484   6.256   4.278 -0.2789  0.4454 -0.0114
19617TIP3    H180342   5.542   6.329   4.302  0.6939 -0.1447 -0.5355
19617TIP3    H280343   5.543   6.185   4.253 -1.2124 -0.5573  0.5440
19618TIP3   OH280344   4.208   2.324  14.764 -0.2840  0.0452 -0.2165
19618TIP3    H180345   4.142   2.254  14.758 -0.4435  0.1105  0.6972
19618TIP3    H280346   4.199   2.358  14.853 -1.0681  2.0759 -1.0016
19619TIP3   OH280347   6.063   4.866  12.718  0.1665 -0.2455 -0.5863
19619TIP3    H180348   5.978   4.909  12.708 -0.8135 -2.2157 -1.0388
19619TIP3    H280349   6.044   4.773  12.715  2.6088 -0.7996 -3.1703
19620TIP3   OH280350   2.023   1.910  14.340 -0.1340 -0.0965  0.7328
19620TIP3    H180351   2.068   1.993  14.352  1.1854 -0.7620  0.5940
19620TIP3    H280352   2.060   1.873  14.260 -2.6333  0.3723 -0.7383
19621TIP3   OH280353   4.438   1.635   0.624 -0.0994  0.0026  0.0437
19621TIP3    H180354   4.353   1.663   0.592 -0.3592 -1.0847 -0.2476
19621TIP3    H280355   4.420   1.601   0.712  0.0241 -0.2568 -0.0305
19622TIP3   OH280356   2.267   1.348   2.029 -0.3780 -0.1841 -0.3476
19622TIP3    H180357   2.251   1.305   2.112 -1.4229  3.5162  1.5669
19622TIP3    H280358   2.327   1.420   2.050 -1.2665  1.3429 -2.5821
19623TIP3   OH280359   6.329   1.358   1.511  0.1489  0.8452  0.4570
19623TIP3    H180360   6.298   1.436   1.465 -1.7742  0.8296  1.5904
19623TIP3    H280361   6.415   1.382   1.545  0.6099  1.6243 -1.1748
19624TIP3   OH280362   2.993   3.037  16.343 -0.2303 -0.4237  0.3311
19624TIP3    H180363   2.910   3.085  16.349  0.0271 -0.0894  1.4507
19624TIP3    H280364   3.047   3.089  16.285 -0.6790 -0.4460 -0.1109
19625TIP3   OH280365   5.068   2.895   2.833  0.0545  0.0721 -0.6005
19625TIP3    H180366   5.034   2.967   2.886 -0.2571 -0.9451  0.6277
19625TIP3    H280367   4.997   2.874   2.772 -0.9725 -0.9648  0.8645
19626TIP3   OH280368   3.359   2.142  17.124 -0.2158  0.0925  0.4186
19626TIP3    H180369   3.304   2.152  17.046 -0.1630 -0.0970  0.3555
19626TIP3    H280370   3.302   2.164  17.197 -0.7795 -1.3577  0.4614
19627TIP3   OH280371   5.921   3.614   2.724 -0.6590 -0.3456 -0.1928
19627TIP3    H180372   5.983   3.640   2.656 -0.8927  0.7825  0.0030
19627TIP3    H280373   5.976   3.585   2.797 -0.4087 -1.9741 -0.9813
19628TIP3   OH280374   6.117   0.735   3.197 -0.6922 -0.0533  0.1733
19628TIP3    H180375   6.094   0.719   3.289 -0.2442 -0.3185  0.2399
19628TIP3    H280376   6.211   0.748   3.198 -0.7113  0.1300 -0.2306
19629TIP3   OH280377   0.810   1.435  13.311 -0.6253 -0.2207  0.1214
19629TIP3    H180378   0.844   1.495  13.244  1.2105 -0.3219  0.8931
19629TIP3    H280379   0.717   1.455  13.316 -0.4780  0.9876 -1.2373
19630TIP3   OH280380   4.073   0.668  11.104  0.1520  0.1320 -0.3715
19630TIP3    H180381   3.998   0.631  11.150  0.9376  0.0680  0.8835
19630TIP3    H280382   4.035   0.709  11.026 -0.7715 -3.8729 -2.3072
19631TIP3   OH280383   3.513   1.755  15.754  0.0391 -0.2806 -0.6683
19631TIP3    H180384   3.448   1.754  15.825  1.0404 -1.4725  0.2716
19631TIP3    H280385   3.460   1.749  15.674 -1.0377 -0.6761  0.0428
19632TIP3   OH280386   6.557   6.149   1.058  0.2567 -0.3527 -0.4572
19632TIP3    H180387   6.593   6.104   1.135  1.1000  0.1246 -0.5582
19632TIP3    H280388   6.586   6.097   0.984  0.5311 -0.1100 -0.5233
19633TIP3   OH280389   5.522   4.695   5.917  0.5638  0.5041 -0.6334
19633TIP3    H180390   5.537   4.749   5.995  0.2787 -0.1864 -0.0870
19633TIP3    H280391   5.521   4.758   5.844 -0.5973  1.3485  0.0650
19634TIP3   OH280392   3.406   2.975   6.030 -0.2134  0.3191  0.3445
19634TIP3    H180393   3.374   2.974   6.120 -0.7131  0.4931  0.1707
19634TIP3    H280394   3.407   3.068   6.006 -1.1667  0.1964 -0.2094
19635TIP3   OH280395   0.972   6.128   1.253 -0.7057 -0.0053 -0.5968
19635TIP3    H180396   1.051   6.179   1.274 -0.7550 -0.0200 -0.3706
19635TIP3    H280397   0.946   6.159   1.166  0.4997 -1.1539 -1.4163
19636TIP3   OH280398   0.922   2.342  15.005  0.4472 -0.0637  0.0791
19636TIP3    H180399   0.837   2.303  15.023  0.5199 -0.3463 -0.1705
19636TIP3    H280400   0.985   2.275  15.032  0.5682 -0.2155 -0.5460
19637TIP3   OH280401   1.516   3.569  14.429 -0.3019  0.5894 -0.0628
19637TIP3    H180402   1.451   3.566  14.360 -0.8506 -0.3509  0.4671
19637TIP3    H280403   1.505   3.486  14.476  0.9306  0.6337  0.3502
19638TIP3   OH280404   5.452   0.085  15.135  0.3747  0.5878  0.2417
19638TIP3    H180405   5.483   0.017  15.076 -0.7096  0.4574 -0.1936
19638TIP3    H280406   5.369   0.115  15.097 -0.0267  0.9445  1.3402
19639TIP3   OH280407   2.303   4.450   2.188 -0.1345 -0.0036  0.1518
19639TIP3    H180408   2.338   4.378   2.135  1.1224  1.5203 -1.1660
19639TIP3    H280409   2.209   4.431   2.194 -0.1562 -0.7097 -1.8479
19640TIP3   OH280410   6.529   5.941  16.339  0.1093  0.0695 -0.1574
19640TIP3    H180411   6.444   5.908  16.370 -0.0977  1.4056  0.7627
19640TIP3    H280412   6.593   5.880  16.376 -0.3517 -0.0583  0.4537
19641TIP3   OH280413   0.687   5.933   4.765  0.0133 -0.9089  0.0640
19641TIP3    H180414   0.696   5.953   4.672 -0.5888 -0.8177  0.0198
19641TIP3    H280415   0.631   6.003   4.799 -0.0663 -1.1427  0.4156
19642TIP3   OH280416   0.138   0.973   5.745  0.0525 -0.1428 -0.1152
19642TIP3    H180417   0.070   0.988   5.679 -0.8498 -0.9134  0.6199
19642TIP3    H280418   0.196   1.049   5.737 -1.9760  1.5841  0.5734
19643TIP3   OH280419   1.522   4.621   2.213  0.1924  0.1281 -0.2318
19643TIP3    H180420   1.615   4.622   2.190  0.5495 -1.3750  0.9755
19643TIP3    H280421   1.489   4.541   2.173  0.2860 -1.2698  2.2706
19644TIP3   OH280422   2.542   4.951  15.445  0.1239 -0.1521 -0.4635
19644TIP3    H180423   2.509   4.972  15.533 -1.0430  0.5712 -1.0356
19644TIP3    H280424   2.593   5.028  15.420 -2.1066  1.0479 -1.5937
19645TIP3   OH280425   1.699   0.330  15.341  0.5927  0.4923  0.2755
19645TIP3    H180426   1.726   0.334  15.250  0.6726  0.7653  0.3082
19645TIP3    H280427   1.658   0.244  15.351  1.2009  0.1794  0.1547
19646TIP3   OH280428   4.270   0.417   1.150 -0.4920  0.0034 -0.1325
19646TIP3    H180429   4.208   0.487   1.130 -1.1680 -0.3637  0.6187
19646TIP3    H280430   4.245   0.344   1.094 -0.6013 -0.0674  0.0070
19647TIP3   OH280431   3.995   5.893  14.533 -0.6406 -0.2815  0.3286
19647TIP3    H180432   3.929   5.914  14.599  0.5280 -3.2816  2.6767
19647TIP3    H280433   4.078   5.910  14.576  0.1572 -2.2835 -0.3099
19648TIP3   OH280434   0.885   3.865  15.514 -0.0870 -0.3589 -0.0684
19648TIP3    H180435   0.877   3.954  15.546  0.5654 -0.4258  0.2906
19648TIP3    H280436   0.802   3.823  15.538  1.3665 -1.2815  4.3171
19649TIP3   OH280437   6.231   5.468   6.510  0.3189  0.0058  0.6528
19649TIP3    H180438   6.138   5.479   6.489  0.7128  1.3087 -0.5699
19649TIP3    H280439   6.254   5.383   6.472  0.1270  0.6785 -1.0837
19650TIP3   OH280440   2.858   1.169  11.433 -0.1139 -0.4766  0.2949
19650TIP3    H180441   2.867   1.128  11.347 -1.5430 -1.2147  0.4516
19650TIP3    H280442   2.947   1.188  11.460  0.5651 -2.4542 -0.3226
19651TIP3   OH280443   0.407   5.123   2.711 -0.2942  0.2344  0.3925
19651TIP3    H180444   0.362   5.075   2.781  1.0945 -2.0617 -0.1943
19651TIP3    H280445   0.497   5.132   2.741  0.5187 -1.4403 -1.2953
19652TIP3   OH280446   3.065   0.213   5.166  0.2432 -0.4393 -0.3909
19652TIP3    H180447   3.027   0.273   5.230  1.3673  1.6629 -1.5678
19652TIP3    H280448   3.099   0.141   5.218 -1.7640 -0.4366  1.0307
19653TIP3   OH280449   3.526   6.701  12.704  0.0240  0.0740  0.2788
19653TIP3    H180450   3.507   6.666  12.617 -1.5869 -1.2805  1.1135
19653TIP3    H280451   3.586   6.637  12.743 -1.0561 -0.5675  0.9484
19654TIP3   OH280452   2.347   2.637   3.848  0.4596 -0.4690 -0.4051
19654TIP3    H180453   2.309   2.702   3.789  1.4395  0.5286  0.0414
19654TIP3    H280454   2.400   2.581   3.790 -0.5034 -0.9793 -0.8098
19655TIP3   OH280455   3.022   4.659   4.429 -0.6310  0.2450  0.4017
19655TIP3    H180456   2.985   4.579   4.392  0.3412 -0.7503  1.4853
19655TIP3    H280457   2.978   4.668   4.514 -2.0262  1.8785 -0.4380
19656TIP3   OH280458   5.006   2.645   2.315 -0.2493 -0.2148 -0.1984
19656TIP3    H180459   4.947   2.594   2.260  0.0439 -0.4528 -0.2942
19656TIP3    H280460   5.091   2.603   2.305  0.3155  1.1110 -1.4083
19657TIP3   OH280461   5.918   4.533  16.436 -0.0828  0.1134  0.0997
19657TIP3    H180462   5.892   4.499  16.351  0.2801 -0.3115  0.1591
19657TIP3    H280463   5.966   4.461  16.478 -1.1440 -0.0627  1.0773
19658TIP3   OH280464   4.854   5.545  14.950  0.0663 -0.1276  0.1045
19658TIP3    H180465   4.800   5.480  14.905  0.0896 -0.9710  1.2515
19658TIP3    H280466   4.792   5.592  15.007 -0.1945  1.7693 -1.6368
19659TIP3   OH280467   2.184   1.419  13.259  0.3576  0.2151 -0.1126
19659TIP3    H180468   2.231   1.489  13.214 -1.0643  1.7049  0.6009
19659TIP3    H280469   2.109   1.401  13.202 -0.9383  1.4597  1.0909
19660TIP3   OH280470   3.703   0.063  15.119  0.2503 -0.2279  0.1718
19660TIP3    H180471   3.633   0.011  15.158  0.7831 -0.4189  0.8919
19660TIP3    H280472   3.765   0.078  15.191  0.9094  0.0091 -0.4305
19661TIP3   OH280473   5.624   2.155  13.020  0.1707 -0.3180  0.5335
19661TIP3    H180474   5.666   2.241  13.019  0.9641 -0.6868  1.0766
19661TIP3    H280475   5.580   2.150  13.105 -0.3645 -0.2254  0.2665
19662TIP3   OH280476   1.103   3.931   0.187  0.1738 -0.3603 -0.4660
19662TIP3    H180477   1.034   3.948   0.251 -0.7365 -2.3828 -0.8343
19662TIP3    H280478   1.068   3.964   0.104  0.9538  1.3630 -0.1668
19663TIP3   OH280479   5.155   1.340  10.726 -0.1645  0.4769  0.3724
19663TIP3    H180480   5.180   1.409  10.787  0.2912 -0.7447  1.6171
19663TIP3    H280481   5.231   1.332  10.668  0.7402 -0.4363  1.6076
19664TIP3   OH280482   6.262   0.775  14.947 -0.4373  0.2707 -0.1080
19664TIP3    H180483   6.275   0.791  14.853  3.4000 -0.1721  0.1816
19664TIP3    H280484   6.269   0.680  14.955 -2.0636  0.1896  0.5137
19665TIP3   OH280485   3.805   1.443  14.355  0.3463 -0.4256  0.1285
19665TIP3    H180486   3.832   1.486  14.436  1.1401  1.7288 -1.1691
19665TIP3    H280487   3.791   1.516  14.294  0.7250 -2.0028 -1.9383
19666TIP3   OH280488   6.434   5.016   6.181  0.2391 -0.4176 -0.0637
19666TIP3    H180489   6.353   5.023   6.232  1.0448 -2.4946  1.6920
19666TIP3    H280490   6.407   5.033   6.091 -2.0908 -0.6651  0.5144
19667TIP3   OH280491   2.295   2.015  15.968  0.1501 -0.1495  0.2975
19667TIP3    H180492   2.255   1.982  16.048  0.5647  0.0138  0.5759
19667TIP3    H280493   2.235   2.084  15.938 -0.1158 -0.3566  0.3474
19668TIP3   OH280494   1.171   5.410  12.686 -0.3506  0.3912  0.5185
19668TIP3    H180495   1.231   5.402  12.613  0.0506  0.2697  0.8620
19668TIP3    H280496   1.209   5.357  12.756 -0.7372  0.4899  0.8123
19669TIP3   OH280497   5.473   5.823   3.429 -0.4096 -0.1614 -0.6465
19669TIP3    H180498   5.389   5.840   3.387 -1.0403 -1.0668  0.2059
19669TIP3    H280499   5.486   5.897   3.488 -0.2934  0.3027 -1.2491
19670TIP3   OH280500   1.035   4.075   5.596 -0.4761 -0.1500  0.4256
19670TIP3    H180501   1.048   4.055   5.689 -0.3356  1.2880  0.7299
19670TIP3    H280502   1.008   3.991   5.558  0.9030 -1.1245  1.4618
19671TIP3   OH280503   3.979   6.605   3.656 -1.2540 -0.1830  0.2135
19671TIP3    H180504   3.909   6.541   3.647 -1.7105  0.3674 -0.2310
19671TIP3    H280505   3.982   6.650   3.572 -1.6838  1.1249  0.8623
19672TIP3   OH280506   2.220   6.554   4.169 -0.2150  0.2581 -0.1525
19672TIP3    H180507   2.147   6.492   4.171  1.2574 -1.5676 -0.0767
19672TIP3    H280508   2.255   6.553   4.258  0.7393  0.0218 -0.5129
19673TIP3   OH280509   2.261   2.151  15.563 -0.4653  0.6716  0.1646
19673TIP3    H180510   2.286   2.222  15.622 -0.0359  0.2489  0.5012
19673TIP3    H280511   2.316   2.077  15.590 -0.5352  0.3625 -0.5133
19674TIP3   OH280512   4.074   4.250  16.660  0.1084  0.1615 -0.2340
19674TIP3    H180513   4.088   4.248  16.754 -0.1690  0.2431 -0.1911
19674TIP3    H280514   4.050   4.160  16.637 -1.7016  0.5324  0.0706
19675TIP3   OH280515   5.510   2.191   1.178  0.6522 -0.1182  0.5239
19675TIP3    H180516   5.596   2.221   1.205  0.2502  0.3237  1.3269
19675TIP3    H280517   5.480   2.135   1.250  0.0499  0.1603  0.4966
19676TIP3   OH280518   2.971   3.064   4.184  0.2231  0.5564  0.1303
19676TIP3    H180519   3.022   3.082   4.263  0.4832 -0.9073  0.3241
19676TIP3    H280520   2.881   3.052   4.215  0.4066 -0.5072  0.2978
19677TIP3   OH280521   3.007   0.137   3.944 -0.2476  0.7382 -0.2672
19677TIP3    H180522   3.001   0.186   4.026 -0.8425  0.5185 -0.1743
19677TIP3    H280523   2.916   0.122   3.919 -0.0817 -0.6759 -0.0747
19678TIP3   OH280524   0.041   0.596  13.277 -0.4814  0.7326 -0.4196
19678TIP3    H180525   0.096   0.548  13.215  0.2086 -1.1760  1.5130
19678TIP3    H280526  -0.025   0.532  13.304 -0.8125  1.5261  0.7073
19679TIP3   OH280527   0.204   2.875   0.184 -0.3625  0.1703  0.3158
19679TIP3    H180528   0.159   2.849   0.103 -2.8935 -0.1839  1.7571
19679TIP3    H280529   0.244   2.794   0.216 -1.2741 -0.1912  0.5648
19680TIP3   OH280530   5.367   0.063   3.312 -0.2291 -0.3420 -0.1102
19680TIP3    H180531   5.366   0.039   3.219 -1.6555  0.5226 -0.3470
19680TIP3    H280532   5.275   0.060   3.338 -0.0258  0.9881  0.8512
19681TIP3   OH280533   4.316   1.533   3.466 -0.0922 -0.0971 -0.2865
19681TIP3    H180534   4.334   1.626   3.478 -0.4161  0.1158 -1.3334
19681TIP3    H280535   4.245   1.531   3.401  1.8455 -1.1387 -2.5033
19682TIP3   OH280536   0.717   5.184   1.388 -0.6037  0.2551 -0.1714
19682TIP3    H180537   0.635   5.188   1.438 -0.0637 -0.7644  0.8172
19682TIP3    H280538   0.717   5.266   1.337 -3.0651 -0.4698 -1.5273
19683TIP3   OH280539   2.103   2.149   0.802 -0.1650  0.0695  0.2741
19683TIP3    H180540   2.129   2.195   0.881  0.5665 -0.3463  0.2798
19683TIP3    H280541   2.178   2.156   0.743 -0.3399 -0.4426 -0.0225
19684TIP3   OH280542   2.793   4.016   3.103 -0.4438  0.0563 -0.1694
19684TIP3    H180543   2.796   3.956   3.177 -1.8707 -0.0859 -0.1946
19684TIP3    H280544   2.742   4.090   3.134 -0.2892  0.4055 -0.7253
19685TIP3   OH280545   3.045   3.700  13.990  0.1179 -0.1589 -0.6850
19685TIP3    H180546   3.053   3.630  14.055  1.4672  2.3455  2.1341
19685TIP3    H280547   3.119   3.686  13.930  2.0173  0.2428  1.4221
19686TIP3   OH280548   4.691   1.224  12.342 -0.1716 -0.3438  0.2411
19686TIP3    H180549   4.656   1.309  12.370 -0.3777 -0.6657  1.0102
19686TIP3    H280550   4.775   1.216  12.389  0.7537  0.2341 -1.2588
19687TIP3   OH280551   1.115   4.689   2.615  0.2298  0.1064  0.2258
19687TIP3    H180552   1.174   4.683   2.690  1.8777  0.4947 -1.0013
19687TIP3    H280553   1.116   4.601   2.577 -1.2947 -0.3333  1.1181
19688TIP3   OH280554   2.841   6.204  14.066  0.2870 -0.2709 -0.2095
19688TIP3    H180555   2.760   6.153  14.069  0.5373 -0.6502  0.3703
19688TIP3    H280556   2.872   6.204  14.157 -0.2494  1.7932  0.0171
19689TIP3   OH280557   1.051   2.781   0.840  0.0347 -0.0383  0.6768
19689TIP3    H180558   1.054   2.801   0.747  3.4067  0.8024  0.8371
19689TIP3    H280559   1.026   2.864   0.881  1.7261  0.5356  0.6318
19690TIP3   OH280560   2.708   1.972  12.116  0.5477  0.8994 -0.0383
19690TIP3    H180561   2.625   1.987  12.071  1.0637 -2.1398 -2.3277
19690TIP3    H280562   2.732   2.058  12.152 -3.0206  2.0952 -0.1684
19691TIP3   OH280563   2.962   1.744  16.825 -0.6318 -0.5513 -0.0220
19691TIP3    H180564   2.969   1.764  16.918  0.2003 -0.8223 -0.0235
19691TIP3    H280565   2.926   1.824  16.786  0.3938  0.0926  0.3207
19692TIP3   OH280566   3.499   0.303  17.325  0.3816  0.6333  0.0313
19692TIP3    H180567   3.574   0.284  17.268 -0.3895 -1.7044 -0.2932
19692TIP3    H280568   3.424   0.304  17.265 -0.3532 -1.2148  0.8467
19693TIP3   OH280569   5.376   3.226  12.921  0.5007 -0.0010 -0.2552
19693TIP3    H180570   5.338   3.270  12.846  2.3995 -1.6612 -2.3196
19693TIP3    H280571   5.461   3.268  12.934 -0.2127  0.9885  1.7362
19694TIP3   OH280572   1.249   5.541   6.169  0.0283  0.0293 -0.3356
19694TIP3    H180573   1.189   5.489   6.223 -0.0759  0.2221 -0.2637
19694TIP3    H280574   1.309   5.582   6.231 -0.0808  0.2382 -0.3666
19695TIP3   OH280575   0.483   1.149   4.936  0.6620  0.1664 -0.2681
19695TIP3    H180576   0.489   1.073   4.994  0.5003  0.7344  0.5063
19695TIP3    H280577   0.449   1.114   4.854 -1.8308 -0.2316  0.8333
19696TIP3   OH280578   6.405   3.639  15.079 -0.0039 -0.1154  0.7508
19696TIP3    H180579   6.387   3.638  14.985  0.4597 -0.8873  0.6612
19696TIP3    H280580   6.413   3.731  15.101  0.5732  0.0489 -0.1033
19697TIP3   OH280581   6.736   3.649  13.905 -0.2104  0.8182 -0.1003
19697TIP3    H180582   6.815   3.597  13.904  0.3460  1.6423 -0.4392
19697TIP3    H280583   6.696   3.634  13.819  0.6953  2.0127 -0.7746
19698TIP3   OH280584   6.282   6.433  15.911 -0.0786  0.7018 -0.0994
19698TIP3    H180585   6.210   6.398  15.964 -0.9491 -0.5023 -1.9598
19698TIP3    H280586   6.262   6.526  15.904  1.5410  1.5511  3.8140
19699TIP3   OH280587   2.793   2.683  11.504 -0.1499 -0.3464 -0.0382
19699TIP3    H180588   2.709   2.653  11.538 -0.7404 -0.2447 -1.3512
19699TIP3    H280589   2.771   2.757  11.448  0.7989 -0.4871 -0.6153
19700TIP3   OH280590   2.205   4.777  12.081  0.9411 -0.5042  0.0151
19700TIP3    H180591   2.180   4.819  11.999  0.2218 -0.5565  0.1975
19700TIP3    H280592   2.298   4.794  12.090  0.7598  0.6695 -0.1380
19701TIP3   OH280593   3.256   4.628   5.138 -0.3034 -0.6834 -0.2680
19701TIP3    H180594   3.209   4.621   5.221  0.6697  1.1197  0.4947
19701TIP3    H280595   3.191   4.664   5.077 -0.0273  1.8269  0.7848
19702TIP3   OH280596   1.504   1.023   6.388 -0.0480  0.3430  0.0772
19702TIP3    H180597   1.510   0.982   6.474  0.2163  0.5652  0.1657
19702TIP3    H280598   1.410   1.033   6.373 -0.1292 -0.6565 -0.1260
19703TIP3   OH280599   2.551   5.782  16.803  0.0054  0.4358  0.1159
19703TIP3    H180600   2.484   5.723  16.769  0.4331 -0.2052  0.3668
19703TIP3    H280601   2.630   5.762  16.751 -0.3370  2.1795 -1.1656
19704TIP3   OH280602   4.535   2.004   3.924 -0.3161  0.3658 -0.7280
19704TIP3    H180603   4.585   1.939   3.874  0.1173  1.1793 -1.3704
19704TIP3    H280604   4.582   2.013   4.007 -0.8495 -0.7397 -0.2721
19705TIP3   OH280605   4.428   1.764  16.900  0.3529 -0.2871 -0.2043
19705TIP3    H180606   4.498   1.775  16.835 -0.9651  1.3084 -1.4477
19705TIP3    H280607   4.389   1.679  16.881  0.8940 -0.4608 -0.5533
19706TIP3   OH280608   0.392   6.385  13.112 -0.2434  0.1477 -0.1405
19706TIP3    H180609   0.432   6.344  13.035 -0.2067 -2.2709  1.0523
19706TIP3    H280610   0.301   6.401  13.086 -0.3172 -0.9314 -0.6101
19707TIP3   OH280611   3.930   6.302   1.426 -0.6885  0.2390 -0.2633
19707TIP3    H180612   3.856   6.307   1.366 -0.6085 -3.2499 -0.8371
19707TIP3    H280613   3.930   6.212   1.457  2.4028  0.5309  0.9253
19708TIP3   OH280614   5.959   5.326  12.544  0.2595  0.3454  0.4041
19708TIP3    H180615   5.976   5.232  12.542  2.2649  0.6544 -0.8673
19708TIP3    H280616   6.037   5.363  12.585 -1.0065  1.4104  1.9607
19709TIP3   OH280617   0.386   2.613   6.081  0.3844 -0.0818 -0.0680
19709TIP3    H180618   0.366   2.534   6.030  1.2064 -0.4360  0.1396
19709TIP3    H280619   0.397   2.682   6.016  0.3798 -0.3005 -0.3035
19710TIP3   OH280620   1.270   5.317   1.458 -0.4063  0.4787  0.4764
19710TIP3    H180621   1.270   5.286   1.367 -1.1500  0.8203  0.3520
19710TIP3    H280622   1.180   5.303   1.487  0.1823 -1.1409  1.6895
19711TIP3   OH280623   5.379   1.161   3.407 -0.2225  0.0522  0.2445
19711TIP3    H180624   5.366   1.069   3.431 -1.0852  0.2748  0.6827
19711TIP3    H280625   5.413   1.201   3.487 -1.6848  0.4939  0.6763
19712TIP3   OH280626   2.764   0.386  14.365 -0.0806 -0.7465 -0.0695
19712TIP3    H180627   2.781   0.476  14.336  0.5102 -0.3509  1.4065
19712TIP3    H280628   2.835   0.335  14.327 -0.5680 -0.6526 -1.1390
19713TIP3   OH280629   4.694   6.291   4.157 -0.3611  1.1565 -0.5229
19713TIP3    H180630   4.631   6.347   4.203 -0.2529  1.0631 -0.2580
19713TIP3    H280631   4.710   6.337   4.074  0.0944  1.7669 -0.1075
19714TIP3   OH280632   5.551   1.961   0.177 -0.6611  0.3630  0.0701
19714TIP3    H180633   5.498   2.023   0.227  0.4041  3.1181 -1.9726
19714TIP3    H280634   5.511   1.961   0.090 -1.2370 -2.7234  0.2095
19715TIP3   OH280635   5.059   0.228   0.335 -0.0957 -0.0695 -0.1080
19715TIP3    H180636   5.017   0.264   0.413  1.0931  0.3774  0.3492
19715TIP3    H280637   5.094   0.144   0.363  0.1539 -0.0039 -0.2237
19716TIP3   OH280638   2.505   4.259   2.083  0.4713  0.1856 -0.2762
19716TIP3    H180639   2.585   4.235   2.130  0.5093  1.7032  0.4940
19716TIP3    H280640   2.531   4.331   2.025 -0.4243  1.0696  0.3781
19717TIP3   OH280641   4.377   3.853   4.857  0.0479  0.3367  0.9199
19717TIP3    H180642   4.453   3.804   4.888  0.0047 -1.3850 -1.3666
19717TIP3    H280643   4.412   3.907   4.785 -0.6881  0.3813  0.5922
19718TIP3   OH280644   0.741   1.577   3.312  0.4994 -0.4360 -0.0178
19718TIP3    H180645   0.773   1.508   3.370  0.4388 -0.8962 -0.5124
19718TIP3    H280646   0.678   1.532   3.255 -0.5926  0.3268  0.5519
19719TIP3   OH280647   2.533   2.688  11.913 -0.1720  0.3826 -0.5703
19719TIP3    H180648   2.569   2.695  11.824 -0.0678  0.3594 -0.5304
19719TIP3    H280649   2.499   2.599  11.917 -1.3926  0.8076 -1.0357
19720TIP3   OH280650   0.276   5.595   5.322 -0.4319 -0.3116  0.1685
19720TIP3    H180651   0.258   5.611   5.230 -0.5288  0.1023  0.2565
19720TIP3    H280652   0.298   5.681   5.357 -0.0021 -0.5307  0.4430
19721TIP3   OH280653   3.440   3.667   7.203 -0.1361  0.5188  0.0302
19721TIP3    H180654   3.455   3.756   7.234  0.9957  0.1954  0.4886
19721TIP3    H280655   3.507   3.615   7.247  0.0921 -0.3370 -1.2637
19722TIP3   OH280656   6.559   2.051  13.211  0.3594 -0.2063  0.3107
19722TIP3    H180657   6.600   2.059  13.297  1.2621 -2.3901  0.1519
19722TIP3    H280658   6.630   2.065  13.149  0.4353 -1.7248  0.0056
19723TIP3   OH280659   6.623   5.240   3.050  0.0879 -0.6912  0.7137
19723TIP3    H180660   6.627   5.245   3.146  1.9634 -0.3792  0.6581
19723TIP3    H280661   6.558   5.306   3.026  0.0920 -0.2829  1.7477
19724TIP3   OH280662   2.029   3.371   4.227 -0.1169  0.0753  0.3558
19724TIP3    H180663   2.058   3.438   4.288 -0.9257  0.5384  0.2473
19724TIP3    H280664   2.108   3.321   4.206  0.4498  0.8438  0.6208
19725TIP3   OH280665   3.080   6.320  11.234  0.0571  0.0807 -0.7463
19725TIP3    H180666   3.151   6.381  11.214 -1.1135  0.8344 -3.0051
19725TIP3    H280667   3.008   6.376  11.265 -0.6669 -0.2248 -1.8108
19726TIP3   OH280668   6.570   5.627   4.457 -0.5855 -0.0290 -0.3264
19726TIP3    H180669   6.598   5.650   4.546 -1.4325 -0.2637  0.0164
19726TIP3    H280670   6.511   5.553   4.470  0.8229 -1.3654 -1.2744
19727TIP3   OH280671   4.529   6.733   4.129 -0.1213 -0.1402  0.0925
19727TIP3    H180672   4.491   6.812   4.092 -0.9887  0.6438  2.4393
19727TIP3    H280673   4.456   6.688   4.171  1.0198  0.1407  2.6169
19728TIP3   OH280674   4.093   1.551  15.557  0.3649 -0.1106  0.5493
19728TIP3    H180675   4.038   1.607  15.503  0.7314 -1.1446 -0.9488
19728TIP3    H280676   4.066   1.570  15.647 -0.4016  1.5052  0.0115
19729TIP3   OH280677   2.867   5.336  12.842  0.6271  0.2133  0.2143
19729TIP3    H180678   2.867   5.359  12.749  0.2823  1.6501  0.5421
19729TIP3    H280679   2.882   5.420  12.887  0.4498 -0.4059  1.4638
19730TIP3   OH280680   4.134   0.154  14.364 -0.3270 -0.4433  0.7039
19730TIP3    H180681   4.076   0.103  14.306  0.2877  0.1377 -0.4610
19730TIP3    H280682   4.207   0.180  14.308 -0.8020  2.0667  1.1244
19731TIP3   OH280683   4.129   6.290   5.367  0.3596  0.5817  0.0284
19731TIP3    H180684   4.152   6.327   5.453  0.5001  1.5070 -0.3924
19731TIP3    H280685   4.078   6.359   5.324  0.1617  0.0682 -0.5751
19732TIP3   OH280686   6.410   5.161   2.736 -0.4735  0.1025 -0.2339
19732TIP3    H180687   6.322   5.172   2.700 -1.3565  1.2856  2.0894
19732TIP3    H280688   6.445   5.250   2.742  0.2739 -0.2150  0.3326
19733TIP3   OH280689   5.713   4.817   1.190 -0.0061 -0.0256  0.5532
19733TIP3    H180690   5.808   4.831   1.186  0.2366 -1.5737 -2.8542
19733TIP3    H280691   5.696   4.794   1.281  2.7960  0.7537  1.3763
19734TIP3   OH280692   6.481   2.980  16.467  0.0398 -0.4190  0.6335
19734TIP3    H180693   6.397   2.999  16.508  0.3878  0.2404  1.0671
19734TIP3    H280694   6.467   2.898  16.420 -0.7164 -0.5443  1.0568
19735TIP3   OH280695   5.866   0.068  11.291 -0.0553 -0.1915 -0.6351
19735TIP3    H180696   5.922   0.064  11.369 -1.4265 -1.4451  0.3354
19735TIP3    H280697   5.822   0.152  11.297 -1.5396 -1.0287  1.0033
19736TIP3   OH280698   0.660   1.541   1.411  0.0850 -0.5539 -0.1028
19736TIP3    H180699   0.723   1.558   1.481 -1.8480 -0.6844  1.7438
19736TIP3    H280700   0.636   1.449   1.423 -1.2697 -0.2117 -0.0610
19737TIP3   OH280701   1.229   5.915  14.746  0.5978  0.2292 -0.4967
19737TIP3    H180702   1.242   6.007  14.727 -0.5608  0.4069 -0.4626
19737TIP3    H280703   1.316   5.884  14.775  0.5835  1.7780  1.4329
19738TIP3   OH280704   3.808   2.819  12.923  0.3784  0.0366  0.2666
19738TIP3    H180705   3.857   2.739  12.942  0.4231 -0.2752 -1.0337
19738TIP3    H280706   3.776   2.807  12.834 -0.1743  1.1962  0.2848
19739TIP3   OH280707   6.632   0.380  14.101  0.3367  0.0531 -0.0553
19739TIP3    H180708   6.686   0.321  14.154 -0.0281 -0.1150  0.1336
19739TIP3    H280709   6.669   0.373  14.013  0.4236 -0.3049  0.0046
19740TIP3   OH280710   0.677   2.506   2.992  0.3001  0.4673 -0.2916
19740TIP3    H180711   0.703   2.597   2.976  0.1391  0.4230 -0.8047
19740TIP3    H280712   0.723   2.455   2.926 -0.4818  0.3020 -0.7174
19741TIP3   OH280713   3.160   1.797   2.948  0.4088 -0.0411 -0.2249
19741TIP3    H180714   3.170   1.710   2.910 -1.2529  0.2768 -1.5516
19741TIP3    H280715   3.108   1.784   3.027  0.1042 -0.2606 -0.4581
19742TIP3   OH280716   6.532   6.587   3.084 -0.0660  0.2303 -0.9741
19742TIP3    H180717   6.490   6.654   3.137 -0.0624 -1.7992  1.7734
19742TIP3    H280718   6.459   6.536   3.048 -0.0279  0.7461 -1.8228
19743TIP3   OH280719   5.797   2.536  17.210 -0.8822 -0.4077  0.2770
19743TIP3    H180720   5.776   2.590  17.286 -2.0957 -1.5842  0.8285
19743TIP3    H280721   5.774   2.447  17.237  1.3140 -1.2853 -0.4861
19744TIP3   OH280722   5.817   1.794   5.683  0.2080  0.0319 -0.0759
19744TIP3    H180723   5.900   1.841   5.687  1.4518 -1.9622 -1.0317
19744TIP3    H280724   5.751   1.863   5.679  1.7795  1.6767  0.7166
19745TIP3   OH280725   5.656   0.263  12.176 -0.3445  0.0415  0.0186
19745TIP3    H180726   5.720   0.193  12.189 -0.6450 -0.0858  0.8992
19745TIP3    H280727   5.611   0.241  12.095 -1.1002 -1.3289  0.7800
19746TIP3   OH280728   5.221   3.946  17.382  0.2139  0.5394  0.0783
19746TIP3    H180729   5.280   4.016  17.412  0.2982  0.4979  0.0082
19746TIP3    H280730   5.258   3.917  17.299  1.1832 -0.7930  0.9458
19747TIP3   OH280731   4.007   3.040   2.927  0.1875  0.4804 -0.3969
19747TIP3    H180732   3.921   3.075   2.902  0.3607  0.6208 -0.8126
19747TIP3    H280733   4.054   3.116   2.960  0.0380  0.3376  0.1492
19748TIP3   OH280734   2.244   5.704  14.839 -0.4136 -0.0558  0.2679
19748TIP3    H180735   2.228   5.702  14.934  0.0174 -1.2705  0.3300
19748TIP3    H280736   2.184   5.771  14.806 -0.7872  0.1650  1.3584
19749TIP3   OH280737   2.039   2.241  13.150  0.2002 -0.4101 -0.3751
19749TIP3    H180738   2.014   2.327  13.116 -1.5740  0.4048  2.6238
19749TIP3    H280739   2.130   2.252  13.179  0.9256 -0.4392 -2.4922
19750TIP3   OH280740   1.215   5.570  11.298 -0.2735  0.3768 -0.2716
19750TIP3    H180741   1.234   5.497  11.239 -0.1047 -0.9015  1.2874
19750TIP3    H280742   1.282   5.564  11.365 -0.1586  2.1155 -0.2063
19751TIP3   OH280743   0.964   5.071   2.585  0.7522 -0.3813 -0.6052
19751TIP3    H180744   0.872   5.066   2.561  0.8980 -1.3843 -0.9800
19751TIP3    H280745   0.975   5.160   2.620 -0.6411 -0.6799  0.6592
19752TIP3   OH280746   0.460   1.409  11.989 -0.2450  0.4026 -0.4909
19752TIP3    H180747   0.413   1.472  12.045 -0.9797  0.4988 -1.2028
19752TIP3    H280748   0.506   1.352  12.051  1.6100  2.4800  0.1886
19753TIP3   OH280749   2.076   3.098   6.281  0.2773  0.2219 -0.1898
19753TIP3    H180750   2.033   3.089   6.366  1.6141 -0.5728  0.4270
19753TIP3    H280751   2.169   3.085   6.299  0.3991 -2.1254 -2.0675
19754TIP3   OH280752   5.836   4.930   3.167  0.0470  0.2779 -0.1004
19754TIP3    H180753   5.885   5.012   3.170  1.7968 -0.7409  0.0748
19754TIP3    H280754   5.835   4.907   3.074  0.3210  0.0625 -0.0515
19755TIP3   OH280755   0.166   4.203  13.896 -0.0003  0.6345  0.4952
19755TIP3    H180756   0.078   4.235  13.878 -0.3342 -0.9885 -1.0221
19755TIP3    H280757   0.156   4.109  13.906  1.5799  0.4080  0.2578
19756TIP3   OH280758   1.660   6.421  11.885  0.2072  0.4363  0.2509
19756TIP3    H180759   1.718   6.495  11.868  1.7177 -0.7946 -0.1542
19756TIP3    H280760   1.681   6.393  11.974 -0.5345  0.6273  0.4946
19757TIP3   OH280761   1.873   1.104  14.956 -0.7437  0.0303 -0.2421
19757TIP3    H180762   1.877   1.019  15.001 -1.4037 -0.3656 -0.9021
19757TIP3    H280763   1.783   1.134  14.971 -0.6215  0.4352 -0.3256
19758TIP3   OH280764   4.251   6.347  12.782 -0.6552  0.2247 -0.4211
19758TIP3    H180765   4.341   6.322  12.763  0.0909  1.5672  1.0651
19758TIP3    H280766   4.257   6.440  12.806 -2.3979  0.2816 -0.0615
19759TIP3   OH280767   2.146   1.155  14.564  0.5087 -0.4271  0.0144
19759TIP3    H180768   2.129   1.121  14.652  1.3776 -1.3552 -0.1544
19759TIP3    H280769   2.224   1.208  14.574  0.9895 -1.0623 -0.3055
19760TIP3   OH280770   2.845   1.167   4.288  0.3278 -0.3529  0.7452
19760TIP3    H180771   2.881   1.190   4.202 -0.1718  0.3109  0.7041
19760TIP3    H280772   2.784   1.095   4.270  0.7792 -0.7173  0.6559
19761TIP3   OH280773   2.734   2.013   1.455  0.0380 -0.0940  0.1982
19761TIP3    H180774   2.668   2.081   1.450 -0.6397 -0.7745 -0.2998
19761TIP3    H280775   2.703   1.954   1.523 -0.9522 -1.4974 -1.3757
19762TIP3   OH280776   1.562   4.373  12.173  0.1266  0.2124  0.4460
19762TIP3    H180777   1.575   4.310  12.102 -0.1196  0.2145  0.3977
19762TIP3    H280778   1.497   4.434  12.139  2.5637  2.3501 -0.7241
19763TIP3   OH280779   2.172   1.388  16.083 -0.0090  0.2851 -0.0876
19763TIP3    H180780   2.255   1.356  16.118  0.1019  0.1388 -0.4741
19763TIP3    H280781   2.112   1.314  16.094  0.4203 -0.3391 -1.6061
19764TIP3   OH280782   2.306   3.633   3.005  0.0970  0.1704  0.2642
19764TIP3    H180783   2.298   3.538   2.998 -0.0914  0.0186  1.9621
19764TIP3    H280784   2.215   3.664   3.005  0.1378  0.2870  0.2869
19765TIP3   OH280785   6.641   5.010  17.641  0.2812  0.2569  0.3470
19765TIP3    H180786   6.636   4.916  17.623  3.0946 -0.5247  2.8492
19765TIP3    H280787   6.549   5.037  17.650 -0.6040 -2.4125  0.2644
19766TIP3   OH280788   2.166   6.430  17.590 -0.1775  0.2543 -0.7495
19766TIP3    H180789   2.209   6.405  17.508  0.8794  0.6574 -0.3229
19766TIP3    H280790   2.160   6.526  17.585 -1.1925  0.2060 -0.8705
19767TIP3   OH280791   2.884   1.308   0.169 -0.0295  0.2591 -0.4525
19767TIP3    H180792   2.892   1.400   0.193 -1.8061  0.1592  0.7307
19767TIP3    H280793   2.875   1.308   0.074 -1.8292  1.5080 -0.3312
19768TIP3   OH280794   0.777   3.601  14.978  0.1081 -0.6386  0.1497
19768TIP3    H180795   0.834   3.537  15.020  1.0474 -0.8896 -1.4025
19768TIP3    H280796   0.698   3.553  14.957 -0.3315 -0.5353  1.4795
19769TIP3   OH280797   3.122   6.255   0.768  0.3518  0.1157  0.0376
19769TIP3    H180798   3.109   6.273   0.675  1.4449 -1.1520 -0.3808
19769TIP3    H280799   3.033   6.254   0.804 -0.1370 -0.1173 -1.1239
19770TIP3   OH280800   2.519   2.254  12.384 -0.8077  0.0731  0.8215
19770TIP3    H180801   2.559   2.195  12.447 -1.0086 -0.1342  0.7529
19770TIP3    H280802   2.427   2.259  12.410 -1.0071 -0.4404  0.2162
19771TIP3   OH280803   2.282   3.980   0.612 -0.0758 -0.5422  0.3297
19771TIP3    H180804   2.195   4.020   0.602  0.1279 -0.6249 -2.3413
19771TIP3    H280805   2.339   4.054   0.633 -0.3080  0.0592 -1.0344
19772TIP3   OH280806   2.505   1.635  16.844  0.3246 -0.2090 -0.0668
19772TIP3    H180807   2.541   1.721  16.862  0.8305 -0.3487 -0.4060
19772TIP3    H280808   2.465   1.643  16.758  1.7507 -0.7302 -0.8029
19773TIP3   OH280809   4.849   3.576   6.845 -0.2726  0.1472  0.2075
19773TIP3    H180810   4.827   3.547   6.933  1.2711  1.0362  0.9093
19773TIP3    H280811   4.834   3.498   6.790  0.4331 -0.9517  1.5205
19774TIP3   OH280812   4.857   1.094   3.395 -0.9872  0.0290 -0.4400
19774TIP3    H180813   4.943   1.126   3.422 -1.3280  1.5329 -1.0777
19774TIP3    H280814   4.832   1.149   3.321 -2.0376 -1.1013 -0.9733
19775TIP3   OH280815   1.969   3.862  11.716  0.3175 -0.5051 -0.1921
19775TIP3    H180816   1.987   3.792  11.778  1.5885  0.8808  1.0942
19775TIP3    H280817   2.024   3.935  11.746 -0.1478  0.6949 -2.0943
19776TIP3   OH280818   0.299   0.029   4.870 -0.5103 -0.0028 -0.2266
19776TIP3    H180819   0.226  -0.032   4.867  0.3061 -1.1202  1.5325
19776TIP3    H280820   0.351   0.008   4.792 -1.3597 -0.0650 -0.7904
19777TIP3   OH280821   4.691   2.285  15.966  0.3649  0.1233  0.2488
19777TIP3    H180822   4.631   2.215  15.942  0.8354 -0.2845  0.2544
19777TIP3    H280823   4.708   2.332  15.884 -2.2789  2.1151  0.6977
19778TIP3   OH280824   4.485   4.574  10.850 -0.0780  0.0514 -0.1751
19778TIP3    H180825   4.524   4.559  10.936  0.0101 -1.7090 -0.4799
19778TIP3    H280826   4.465   4.486  10.817 -1.5958  0.7639 -1.2842
19779TIP3   OH280827   0.869   6.425   1.941  0.6957 -0.4191  0.1876
19779TIP3    H180828   0.805   6.449   2.009  0.7176  2.7027 -0.7492
19779TIP3    H280829   0.846   6.479   1.866  1.1477 -3.2124 -2.1468
19780TIP3   OH280830   4.494   5.026   1.460  0.3046 -0.2300 -0.4422
19780TIP3    H180831   4.563   5.002   1.522 -1.0194 -0.1012  1.1500
19780TIP3    H280832   4.468   5.115   1.486 -0.8301 -0.4838 -0.6498
19781TIP3   OH280833   1.305   4.748  11.933  0.1803  0.3211  0.0717
19781TIP3    H180834   1.379   4.804  11.909  1.4240 -1.1093  0.4208
19781TIP3    H280835   1.342   4.660  11.940 -1.8933 -0.7470 -1.3662
19782TIP3   OH280836   3.816   6.017  11.321  0.7244  0.1653  0.2838
19782TIP3    H180837   3.809   5.940  11.264  0.9325 -0.1432  0.6680
19782TIP3    H280838   3.727   6.049  11.330  0.6534  0.0451  0.0170
19783TIP3   OH280839   4.969   0.281   1.703 -0.7360 -0.5029 -0.4739
19783TIP3    H180840   5.027   0.266   1.629 -1.5141  1.6879 -1.6031
19783TIP3    H280841   5.018   0.340   1.760 -0.8827 -0.6848 -0.1530
19784TIP3   OH280842   4.610   0.027  16.644 -0.1626 -0.0130 -0.9324
19784TIP3    H180843   4.643   0.066  16.563  0.7811  1.4973  0.1408
19784TIP3    H280844   4.528   0.073  16.660  0.8284  1.4263  0.2037
19785TIP3   OH280845   0.696   6.709   1.028  0.1405  0.3957  0.4193
19785TIP3    H180846   0.767   6.773   1.030  0.4885  0.0197  2.4099
19785TIP3    H280847   0.717   6.648   1.099 -2.2295  0.3264  1.1373
19786TIP3   OH280848   0.180   5.083  16.149  0.1047  0.4886  0.3260
19786TIP3    H180849   0.240   5.150  16.117 -0.6630  1.2099  0.3596
19786TIP3    H280850   0.099   5.099  16.102  0.8559 -2.6406 -2.3826
19787TIP3   OH280851   1.299   2.954  16.910  0.4502  0.8477 -0.1852
19787TIP3    H180852   1.276   2.978  16.999 -2.0438 -0.2969 -0.4074
19787TIP3    H280853   1.311   2.859  16.913  1.4376  0.9375 -0.8719
19788TIP3   OH280854   4.982   4.789  16.119 -0.7178 -0.4098 -0.5227
19788TIP3    H180855   4.976   4.695  16.102  1.8315 -0.4500 -1.6503
19788TIP3    H280856   4.984   4.829  16.031  0.1013  0.5039 -0.1130
19789TIP3   OH280857   2.628   5.327  15.250  0.1009  0.5470 -0.0724
19789TIP3    H180858   2.541   5.320  15.288  0.5036  0.4975  0.8745
19789TIP3    H280859   2.628   5.267  15.176 -0.4622  0.0571  0.3223
19790TIP3   OH280860   1.957   0.499   5.542  0.2045 -0.4978 -0.0914
19790TIP3    H180861   1.918   0.488   5.455  0.3598 -0.4905 -0.1620
19790TIP3    H280862   2.046   0.532   5.525  0.6944 -1.7264  0.0264
19791TIP3   OH280863   6.376   4.747   2.449 -0.4348  0.2896 -0.1426
19791TIP3    H180864   6.350   4.815   2.511 -0.3565 -0.4086  0.6632
19791TIP3    H280865   6.306   4.683   2.452 -0.8491  0.6544 -1.4276
19792TIP3   OH280866   1.417   5.997  17.683 -0.6812  0.6793 -0.1436
19792TIP3    H180867   1.405   6.044  17.765 -2.0868 -0.5094  0.3836
19792TIP3    H280868   1.413   5.905  17.707  0.2923  0.2847 -1.3724
19793TIP3   OH280869   2.313   4.573  17.523 -0.1434 -0.3391 -0.1101
19793TIP3    H180870   2.333   4.640  17.458 -0.7777 -1.2459 -1.2751
19793TIP3    H280871   2.376   4.589  17.594  2.5284 -1.0388 -2.1413
19794TIP3   OH280872   5.868   3.310  16.147  0.5301 -0.3850  0.6846
19794TIP3    H180873   5.960   3.333  16.132  0.7251 -0.1089  2.1840
19794TIP3    H280874   5.862   3.218  16.121  1.1397 -0.3059  0.2340
19795TIP3   OH280875   3.410   5.090  12.788 -0.6813  0.3194  0.2140
19795TIP3    H180876   3.374   5.178  12.803  0.4547  1.0082 -0.8613
19795TIP3    H280877   3.345   5.031  12.823 -1.7688  1.5867  0.4082
19796TIP3   OH280878   5.193   5.261   4.035  0.2733 -0.1059 -0.5444
19796TIP3    H180879   5.239   5.201   4.093  0.8986 -1.3978 -2.2902
19796TIP3    H280880   5.110   5.278   4.079  2.1715  2.0735  2.5577
19797TIP3   OH280881   3.319   3.256   3.289 -0.1567  0.2161  0.1446
19797TIP3    H180882   3.358   3.201   3.357 -0.8367  1.2725  1.4397
19797TIP3    H280883   3.393   3.308   3.256 -0.0116  0.5343  0.9322
19798TIP3   OH280884   1.261   0.694   1.502 -0.5165 -0.5005 -0.7983
19798TIP3    H180885   1.349   0.674   1.532 -0.4069 -2.0264 -1.9941
19798TIP3    H280886   1.206   0.687   1.580  0.6349  2.6144  0.4439
19799TIP3   OH280887   0.080   3.144   1.892  0.0007 -0.0452  0.0459
19799TIP3    H180888   0.169   3.133   1.858  1.4921  1.0953  3.2669
19799TIP3    H280889   0.082   3.106   1.980 -2.1186  1.8076  0.9935
19800TIP3   OH280890   4.325   4.084   0.797  0.6510 -0.0211  0.2722
19800TIP3    H180891   4.278   4.004   0.775 -0.5356  0.9136 -0.6963
19800TIP3    H280892   4.359   4.116   0.713  0.8747  0.6413  0.6078
19801TIP3   OH280893   5.032   2.501   0.972 -0.3127  0.4537  0.4863
19801TIP3    H180894   5.019   2.408   0.957 -0.7028  0.2075  2.1966
19801TIP3    H280895   5.016   2.541   0.886  0.8985 -1.1106 -0.5319
19802TIP3   OH280896   2.070   5.820   3.950 -1.0330  0.0747  0.1392
19802TIP3    H180897   2.026   5.856   3.873  0.0557 -0.2694 -0.6799
19802TIP3    H280898   2.152   5.784   3.916 -0.6691 -0.3769  1.4184
19803TIP3   OH280899   5.386   0.749  14.871 -0.1971  0.4434  0.6160
19803TIP3    H180900   5.468   0.744  14.921  1.1987 -1.2625 -1.6435
19803TIP3    H280901   5.326   0.691  14.918  1.1277 -1.2361  0.3553
19804TIP3   OH280902   0.416   3.196  11.642  0.2525  0.4053  0.5092
19804TIP3    H180903   0.394   3.129  11.707 -1.1171 -0.5345 -0.8514
19804TIP3    H280904   0.340   3.200  11.585  0.9301  2.0740 -0.3357
19805TIP3   OH280905   0.235   0.802   5.044  0.3282 -0.8319  0.0167
19805TIP3    H180906   0.180   0.729   5.071 -0.2341 -0.7138 -0.7732
19805TIP3    H280907   0.299   0.812   5.115  0.2553 -1.9142  0.2473
19806TIP3   OH280908   3.552   2.685  17.145 -0.1493 -0.6573 -0.1771
19806TIP3    H180909   3.472   2.640  17.118  0.0169 -2.1850  1.6465
19806TIP3    H280910   3.523   2.774  17.169 -1.3231 -1.1888  0.4670
19807TIP3   OH280911   0.867   5.523  14.553  0.1825  0.1497  0.0899
19807TIP3    H180912   0.810   5.588  14.594  0.8339  0.6750  0.1823
19807TIP3    H280913   0.941   5.574  14.518  1.1549 -0.6281  0.9538
19808TIP3   OH280914   6.702   1.174   1.016 -0.1998 -0.4499 -0.0007
19808TIP3    H180915   6.626   1.219   1.053 -0.5303 -0.7672 -0.2815
19808TIP3    H280916   6.702   1.197   0.923 -0.6454 -1.3820 -0.2471
19809TIP3   OH280917   6.225   0.230   3.618  0.2058 -0.0993 -0.0059
19809TIP3    H180918   6.306   0.275   3.639  0.2011  0.2047 -0.6059
19809TIP3    H280919   6.178   0.291   3.561 -1.5840  0.7891  2.2938
19810TIP3   OH280920   2.653   2.960  15.804 -0.0085  0.6075  0.4394
19810TIP3    H180921   2.725   3.022  15.818 -0.0753  0.5153  1.2817
19810TIP3    H280922   2.599   2.969  15.883  0.8977 -1.7302  1.4113
19811TIP3   OH280923   2.063   2.932  13.090 -0.2179 -0.1763  0.0606
19811TIP3    H180924   2.124   2.873  13.045  1.6315  1.6515  0.0070
19811TIP3    H280925   2.016   2.976  13.019 -0.3277 -0.3001  0.0552
19812TIP3   OH280926   6.625   4.570   3.940  0.3147  0.3046 -0.1074
19812TIP3    H180927   6.656   4.522   4.017  0.8050  0.2401 -0.3431
19812TIP3    H280928   6.544   4.612   3.969 -1.0754 -2.0340 -0.3843
19813TIP3   OH280929   3.198   2.247   2.310  0.1658 -0.5308 -0.6845
19813TIP3    H180930   3.257   2.172   2.314  0.7025 -0.3469 -3.3423
19813TIP3    H280931   3.182   2.260   2.217 -2.5136  0.6872 -0.1354
19814TIP3   OH280932   1.618   5.631   2.569  0.0873  0.6156  0.5518
19814TIP3    H180933   1.636   5.610   2.661 -4.3233  0.3663  1.6095
19814TIP3    H280934   1.613   5.545   2.526  1.7575  0.7163  0.0833
19815TIP3   OH280935   0.473   5.557  11.228  0.2488  0.3521 -0.6632
19815TIP3    H180936   0.507   5.597  11.148 -2.0634  2.7482 -0.5822
19815TIP3    H280937   0.552   5.534  11.277  1.7403 -0.8786 -3.3922
19816TIP3   OH280938   4.219   4.785   4.012  0.1428 -0.3914 -0.5837
19816TIP3    H180939   4.123   4.787   4.015  0.1681 -0.0502  1.0278
19816TIP3    H280940   4.244   4.874   3.987  0.0448 -0.3443 -0.5158
19817TIP3   OH280941   1.664   3.545   1.562  0.1414  0.0153  0.7519
19817TIP3    H180942   1.691   3.453   1.551  0.5267  0.2684 -0.6291
19817TIP3    H280943   1.655   3.556   1.657  1.1755 -1.1444  1.0152
19818TIP3   OH280944   4.115   2.782  14.676 -0.4965  0.4747  0.1369
19818TIP3    H180945   4.197   2.816  14.641 -1.0571  2.5918  0.7535
19818TIP3    H280946   4.059   2.773  14.599  0.6247 -2.2305 -0.4891
19819TIP3   OH280947   0.502   5.528   0.458  0.3004  0.0380 -0.6432
19819TIP3    H180948   0.559   5.454   0.479  0.5796  0.2711 -0.5694
19819TIP3    H280949   0.547   5.604   0.495  0.6215  0.4053 -1.7778
19820TIP3   OH280950   2.515   3.890  14.175  0.3916 -0.2207 -0.2146
19820TIP3    H180951   2.603   3.909  14.208  0.1741 -1.5030  1.2417
19820TIP3    H280952   2.527   3.812  14.121  0.1177 -0.5357  0.1779
19821TIP3   OH280953   2.526   3.234   5.881  0.4497 -0.0569  0.0030
19821TIP3    H180954   2.572   3.287   5.947 -0.5451  1.5445 -0.5313
19821TIP3    H280955   2.453   3.194   5.929 -0.0961  0.8623 -0.0379
19822TIP3   OH280956   0.420   0.023   3.141  0.5425  0.5308  0.5536
19822TIP3    H180957   0.370   0.050   3.064  0.8586  2.0635  0.8524
19822TIP3    H280958   0.485   0.092   3.152  1.9659 -0.8132  0.8835
19823TIP3   OH280959   5.143   5.102   7.232 -0.1657 -0.3583 -0.1732
19823TIP3    H180960   5.178   5.028   7.280 -0.4461 -0.0184  0.5728
19823TIP3    H280961   5.218   5.161   7.220 -0.0540 -0.5302 -0.3151
19824TIP3   OH280962   4.623   3.112  16.289  0.0102  0.1709  0.3163
19824TIP3    H180963   4.570   3.171  16.342  0.2698 -0.7631  1.6518
19824TIP3    H280964   4.582   3.115  16.202  0.0153  2.2734  0.3215
19825TIP3   OH280965   2.756   1.200  16.785 -0.1854 -0.2159  0.3128
19825TIP3    H180966   2.846   1.182  16.811  0.5151  0.3012 -1.5933
19825TIP3    H280967   2.704   1.133  16.830  1.1071 -0.3803  1.6214
19826TIP3   OH280968   0.104   4.597  13.702  0.5028 -0.3855 -0.7075
19826TIP3    H180969   0.066   4.650  13.631  1.2313  0.1479 -0.7197
19826TIP3    H280970   0.103   4.656  13.778 -1.4722 -1.3817  0.0965
19827TIP3   OH280971   0.011   2.883  14.667 -0.3245 -0.2999 -1.2001
19827TIP3    H180972   0.062   2.804  14.651  0.6684 -0.0548  0.5884
19827TIP3    H280973   0.075   2.953  14.671 -0.6979 -0.0031  1.2196
19828TIP3   OH280974   4.042   0.208  14.850  0.1986  0.3306  0.0174
19828TIP3    H180975   3.952   0.211  14.820  0.9436 -0.9869 -2.6528
19828TIP3    H280976   4.036   0.211  14.945 -2.5564  1.4887 -0.1085
19829TIP3   OH280977   6.466   2.266   1.164  0.4967 -0.0261  0.3584
19829TIP3    H180978   6.490   2.333   1.099  0.7025  0.6396  1.1053
19829TIP3    H280979   6.543   2.261   1.221  0.9220 -1.6827 -0.3023
19830TIP3   OH280980   1.457   6.589  13.436 -0.1816 -0.1937 -0.0045
19830TIP3    H180981   1.486   6.569  13.347  0.2608 -0.7335  0.2527
19830TIP3    H280982   1.451   6.504  13.479 -0.1923  0.0786  0.5437
19831TIP3   OH280983   3.224   3.400  11.838  0.0974 -0.1979 -0.2214
19831TIP3    H180984   3.161   3.370  11.772  0.0704  0.4360 -0.4896
19831TIP3    H280985   3.254   3.319  11.881  0.5860 -0.6793 -1.4255
19832TIP3   OH280986   5.390   4.680  13.300 -0.0447 -0.1114 -0.9025
19832TIP3    H180987   5.453   4.612  13.277  1.0892  0.7446 -0.4388
19832TIP3    H280988   5.307   4.633  13.314  0.9162 -1.5339  0.3519
19833TIP3   OH280989   0.507   4.583   2.271 -0.0596 -0.5146 -0.2270
19833TIP3    H180990   0.420   4.595   2.309 -0.2027  0.2549 -0.7823
19833TIP3    H280991   0.540   4.672   2.258  1.1298 -0.7945  0.6711
19834TIP3   OH280992   4.954   6.438  15.442  0.2975  0.0051  0.3878
19834TIP3    H180993   4.890   6.369  15.462 -0.0478  0.6270  1.5520
19834TIP3    H280994   5.007   6.444  15.521  0.5216  0.8580  0.1836
19835TIP3   OH280995   6.589   6.366  15.168 -0.0914 -0.1844 -0.3101
19835TIP3    H180996   6.666   6.421  15.158 -1.0274  1.5390  1.2700
19835TIP3    H280997   6.527   6.420  15.217 -2.5540 -1.2614 -2.0232
19836TIP3   OH280998   4.510   0.537  17.631 -1.0251 -0.0534 -0.4827
19836TIP3    H180999   4.452   0.567  17.560 -1.4695 -1.3289 -0.6868
19836TIP3    H281000   4.536   0.449  17.605  0.3556  0.1868  0.0297
19837TIP3   OH281001   1.542   1.699  13.514 -0.6105 -0.5345  0.5380
19837TIP3    H181002   1.586   1.657  13.439 -1.9553 -0.4264 -0.3349
19837TIP3    H281003   1.563   1.792  13.505  0.3285 -0.6834  1.0702
19838TIP3   OH281004   2.635   1.598   3.966  0.6251  0.8462  0.2692
19838TIP3    H181005   2.579   1.666   4.006 -0.4057  1.6586 -2.3667
19838TIP3    H281006   2.623   1.522   4.023  0.9006  2.4609  2.6756
19839TIP3   OH281007   0.009   1.391  13.197  0.2031  0.1559 -0.3831
19839TIP3    H181008   0.084   1.343  13.162  0.7522 -0.9176  2.0499
19839TIP3    H281009   0.047   1.455  13.257 -0.7219  1.5249 -1.1928
19840TIP3   OH281010   6.269   2.081   4.710 -0.1877  0.2256 -0.5214
19840TIP3    H181011   6.363   2.064   4.710 -0.4350 -1.4777  1.7515
19840TIP3    H281012   6.257   2.155   4.770 -0.4059 -0.4630  0.3006
19841TIP3   OH281013   1.564   6.324   4.757 -1.2890  0.0540  0.6363
19841TIP3    H181014   1.630   6.385   4.792 -0.1154 -0.9821  0.3131
19841TIP3    H281015   1.609   6.278   4.687 -2.4991 -0.4350  0.1568
19842TIP3   OH281016   3.310   3.422   5.875 -0.0949  0.0276  0.3518
19842TIP3    H181017   3.298   3.384   5.788  1.5332  0.0912  0.0663
19842TIP3    H281018   3.317   3.516   5.859  1.1357 -0.0326  0.4008
19843TIP3   OH281019   0.355   2.506  12.702  0.0101  0.1364  0.3794
19843TIP3    H181020   0.322   2.556  12.627  0.7735 -0.0524 -0.0922
19843TIP3    H281021   0.365   2.417  12.669 -0.0077 -0.0338  0.8216
19844TIP3   OH281022   0.963   1.337  11.342 -0.6638 -0.3894  0.2627
19844TIP3    H181023   0.898   1.399  11.309  0.1116  0.3672  0.1120
19844TIP3    H281024   0.916   1.286  11.407 -1.2523  0.5869  0.6311
19845TIP3   OH281025   1.100   2.088  17.348 -0.2999  0.6507 -0.4404
19845TIP3    H181026   1.100   2.113  17.256 -2.2889  1.0172 -0.3758
19845TIP3    H281027   1.010   2.100  17.377  0.1695  0.0615  1.4367
19846TIP3   OH281028   5.423   0.723   5.554  0.3464 -0.6421 -0.0354
19846TIP3    H181029   5.468   0.668   5.618  0.7355  0.4971  0.6934
19846TIP3    H281030   5.331   0.718   5.579  0.1655 -2.1019 -0.8656
19847TIP3   OH281031   5.340   5.429  11.528  0.1899 -0.7282 -0.1154
19847TIP3    H181032   5.375   5.517  11.541 -1.4533 -0.1779  0.7382
19847TIP3    H281033   5.306   5.430  11.438 -0.4456 -0.2571  0.1242
19848TIP3   OH281034   4.689   2.025  16.259  0.4071  0.5900  0.0559
19848TIP3    H181035   4.599   2.050  16.279 -0.1509 -0.5296 -0.9493
19848TIP3    H281036   4.724   1.989  16.341 -0.2317  0.5349  0.3065
19849TIP3   OH281037   6.184   3.710   2.648  0.5549  0.4343  0.1696
19849TIP3    H181038   6.236   3.667   2.580  1.9061  0.0306  1.4291
19849TIP3    H281039   6.209   3.667   2.729 -1.5029  0.4920  0.8794
19850TIP3   OH281040   6.552   5.768  16.732  0.7158  0.0983  0.2606
19850TIP3    H181041   6.574   5.843  16.786  0.0742  0.1545  0.4492
19850TIP3    H281042   6.594   5.786  16.647  1.7969 -0.0362  0.7544
19851TIP3   OH281043   1.522   2.052  16.801  0.4139 -0.4563 -0.5746
19851TIP3    H181044   1.575   2.014  16.871  1.5137  0.1400 -1.0663
19851TIP3    H281045   1.461   1.982  16.777  0.5512 -0.9401  0.4171
19852TIP3   OH281046   5.508   6.075   1.422  0.4959  0.0014 -1.2377
19852TIP3    H181047   5.414   6.088   1.411  0.2999  2.4952  1.8521
19852TIP3    H281048   5.541   6.058   1.334 -2.7217 -0.2103 -2.5206
19853TIP3   OH281049   6.628   4.211  14.761  0.2974 -0.1126 -0.1075
19853TIP3    H181050   6.660   4.150  14.694  0.7583 -0.6575  0.5946
19853TIP3    H281051   6.688   4.200  14.835 -0.1165  0.5844  0.3446
19854TIP3   OH281052   2.486   4.205   4.314 -0.1019  0.3410  0.6498
19854TIP3    H181053   2.568   4.196   4.361  1.1002 -0.3536 -1.4338
19854TIP3    H281054   2.509   4.254   4.235 -1.1683 -1.7009 -1.0406
19855TIP3   OH281055   5.115   0.248   0.996 -0.2585  0.0333 -0.1645
19855TIP3    H181056   5.059   0.263   1.072 -0.1097  0.1250 -0.0723
19855TIP3    H281057   5.138   0.336   0.966  0.1775  0.0004  0.0528
19856TIP3   OH281058   3.517   2.013   5.692 -0.4966  0.7907  0.3055
19856TIP3    H181059   3.513   2.043   5.783  0.0308 -0.1392  0.6512
19856TIP3    H281060   3.535   1.919   5.699  1.7927  1.0898 -0.7740
19857TIP3   OH281061   6.334   4.239  15.953  1.1412 -0.2681  0.2902
19857TIP3    H181062   6.272   4.209  15.887  1.8423 -0.1232 -0.4452
19857TIP3    H281063   6.342   4.333  15.937 -0.2456  0.1702  1.9031
19858TIP3   OH281064   2.771   4.838   5.868  0.7420  0.3387 -0.5490
19858TIP3    H181065   2.677   4.849   5.883  0.5724  0.1022 -1.3694
19858TIP3    H281066   2.797   4.917   5.821  1.0777  0.6617  0.1612
19859TIP3   OH281067   5.641   5.196  11.032 -0.2933  0.6654 -0.6911
19859TIP3    H181068   5.645   5.201  10.937  2.6572  0.8073 -0.6388
19859TIP3    H281069   5.708   5.131  11.056 -0.0075  1.6248  1.3394
19860TIP3   OH281070   6.678   4.985   5.818  0.2242 -0.0633  0.1227
19860TIP3    H181071   6.739   4.913   5.802  0.0611 -0.2653  0.4170
19860TIP3    H281072   6.645   4.970   5.907 -2.1391 -1.3260 -0.9068
19861TIP3   OH281073   1.709   0.095  17.440  0.2614 -0.1485  0.1041
19861TIP3    H181074   1.793   0.095  17.395  0.0904  0.5769 -0.2239
19861TIP3    H281075   1.711   0.017  17.495  0.9053 -0.4593 -0.3539
19862TIP3   OH281076   5.105   2.336   4.480  0.0460 -0.6492 -0.5651
19862TIP3    H181077   5.031   2.389   4.511  1.2681  0.2541  0.9417
19862TIP3    H281078   5.168   2.400   4.448  0.8340 -1.3132 -0.3644
19863TIP3   OH281079   6.615   3.471   0.816 -0.0752 -0.1882  0.4395
19863TIP3    H181080   6.526   3.506   0.808 -0.1120 -0.4617 -0.4754
19863TIP3    H281081   6.628   3.460   0.910 -1.8966 -2.3563  0.5440
19864TIP3   OH281082   3.146   2.990   2.002 -0.0570  0.2125  0.6140
19864TIP3    H181083   3.221   3.024   2.050 -0.3136  0.9839  0.4925
19864TIP3    H281084   3.084   3.064   2.000 -0.5998 -0.2459  0.2717
19865TIP3   OH281085   4.216   1.294   2.665 -0.1658 -0.2210  0.0786
19865TIP3    H181086   4.184   1.254   2.746  2.6350  0.7063  1.8113
19865TIP3    H281087   4.271   1.227   2.625  0.0020 -0.0392 -0.0012
19866TIP3   OH281088   2.925   1.026   2.991 -0.2435  0.0008  0.4726
19866TIP3    H181089   2.923   1.014   2.896 -0.4600  0.2638  0.4411
19866TIP3    H281090   2.833   1.027   3.017 -0.2609  1.4279  0.4803
19867TIP3   OH281091   1.029   3.734  13.735 -0.2618  0.5480  0.0748
19867TIP3    H181092   0.989   3.697  13.657 -0.0606  0.1467  0.1569
19867TIP3    H281093   0.956   3.772  13.784 -0.7730 -1.2815  0.8405
19868TIP3   OH281094   3.430   3.602   1.557 -0.2273  0.4042  0.2962
19868TIP3    H181095   3.456   3.666   1.491  0.0441  0.8891  0.8674
19868TIP3    H281096   3.494   3.612   1.627 -0.3003 -0.3546  0.4811
19869TIP3   OH281097   1.334   2.978  17.214 -0.1803  0.5902  0.0235
19869TIP3    H181098   1.396   3.021  17.272 -0.0445  1.5011 -0.7731
19869TIP3    H281099   1.249   2.992  17.256  0.0282  0.2919  0.5528
19870TIP3   OH281100   6.200   6.435  12.871 -0.1245 -0.0473  0.1696
19870TIP3    H181101   6.252   6.503  12.828  0.4171 -0.4968  0.0980
19870TIP3    H281102   6.126   6.482  12.909 -0.7404  0.3555 -1.4257
19871TIP3   OH281103   4.118   1.611  17.477  0.3984  0.1743  0.6772
19871TIP3    H181104   4.058   1.649  17.413 -0.2476 -0.3301  0.9744
19871TIP3    H281105   4.198   1.594  17.427  1.1871  3.0621  0.8119
19872TIP3   OH281106   6.415   4.638  13.587  0.5891 -0.3844  0.1963
19872TIP3    H181107   6.439   4.728  13.564 -1.8933  0.0396 -1.0334
19872TIP3    H281108   6.444   4.629  13.678  0.1662  1.9519  0.6485
19873TIP3   OH281109   0.052   6.381   4.498  0.3715  0.4590  0.3524
19873TIP3    H181110  -0.031   6.421   4.472 -0.3283  0.0633  1.9253
19873TIP3    H281111   0.028   6.303   4.547  1.6256  1.0799  2.0478
19874TIP3   OH281112   2.081   1.888  15.801  0.3321 -0.2115 -0.0717
19874TIP3    H181113   2.101   1.849  15.886 -0.8364 -0.4869  0.1003
19874TIP3    H281114   2.094   1.817  15.739 -2.4176 -1.1929  0.3075
19875TIP3   OH281115   3.840   1.399   4.611 -0.5035 -0.2546 -0.0593
19875TIP3    H181116   3.778   1.466   4.580 -0.9655 -0.6743 -0.0570
19875TIP3    H281117   3.789   1.319   4.613  0.0667 -0.6235 -0.1154
19876TIP3   OH281118   0.781   5.906  16.703  0.2989 -0.4355  0.3712
19876TIP3    H181119   0.715   5.841  16.677 -0.8105  0.3511  1.1619
19876TIP3    H281120   0.838   5.914  16.626  0.0438 -1.8099  0.0061
19877TIP3   OH281121   0.276   0.026  12.389  0.1595  0.2335  0.1795
19877TIP3    H181122   0.261  -0.028  12.312 -1.5070  0.4419  0.3020
19877TIP3    H281123   0.363   0.063  12.377 -0.7237  1.6605 -2.4914
19878TIP3   OH281124   5.075   4.059  15.613 -0.0469  0.2032  0.4978
19878TIP3    H181125   5.041   4.049  15.524 -2.0978  0.1747  1.2181
19878TIP3    H281126   5.166   4.085  15.602 -0.7150  1.9275 -1.6559
19879TIP3   OH281127   3.662   5.722  13.544 -0.3487 -0.9046 -0.2315
19879TIP3    H181128   3.614   5.639  13.539 -2.4998  0.3108 -0.9578
19879TIP3    H281129   3.643   5.766  13.461 -0.5477  0.9653  0.7498
19880TIP3   OH281130   5.560   2.753  11.671 -0.2612 -0.3998  0.7281
19880TIP3    H181131   5.493   2.820  11.683 -0.1385 -0.3711  1.2901
19880TIP3    H281132   5.545   2.719  11.583 -1.7732 -1.2228  1.2608
19881TIP3   OH281133   1.520   2.860   6.043 -0.4470  0.3566 -0.2260
19881TIP3    H181134   1.445   2.825   5.995  1.0243 -0.2424 -2.2382
19881TIP3    H281135   1.494   2.855   6.135 -1.2765 -3.8532 -0.4715
19882TIP3   OH281136   5.635   4.073  11.811  0.1663 -0.1109  0.2108
19882TIP3    H181137   5.589   4.023  11.744  0.7362 -0.7375  0.2722
19882TIP3    H281138   5.691   4.134  11.763 -1.4541  1.3806  0.1337
19883TIP3   OH281139   1.902   1.825   2.791 -0.1227  0.6032 -0.0004
19883TIP3    H181140   1.947   1.908   2.774 -2.0009  1.3155 -2.0349
19883TIP3    H281141   1.828   1.849   2.847 -1.2537  0.5522 -1.4129
19884TIP3   OH281142   1.602   3.284  12.256 -0.5496 -0.1011 -0.4749
19884TIP3    H181143   1.652   3.296  12.175 -1.0923 -0.5322 -0.8855
19884TIP3    H281144   1.659   3.319  12.325  0.8310 -1.6432 -0.7722
19885TIP3   OH281145   2.735   2.657  17.189  0.3601  0.5040  0.0336
19885TIP3    H181146   2.683   2.594  17.138  0.1476  0.2578  0.5504
19885TIP3    H281147   2.691   2.661  17.274  0.6532  0.9900  0.1667
19886TIP3   OH281148   6.630   0.337   4.283 -0.2106 -0.2176 -0.0954
19886TIP3    H181149   6.557   0.277   4.297 -1.6690  1.6864  0.9750
19886TIP3    H281150   6.599   0.398   4.216 -0.2313  1.4256  1.3048
19887TIP3   OH281151   0.454   4.725   2.596 -0.9064 -0.4689  0.0859
19887TIP3    H181152   0.439   4.819   2.605  2.3545  0.0155  1.6782
19887TIP3    H281153   0.393   4.685   2.658 -0.6226  0.7982  1.2283
19888TIP3   OH281154   6.633   6.179  16.452  0.7490  0.3945  0.5003
19888TIP3    H181155   6.606   6.098  16.409 -0.5328  0.6489  0.8030
19888TIP3    H281156   6.716   6.201  16.410  0.3476 -0.2463 -0.6743
19889TIP3   OH281157   1.884   6.223   1.809  0.0971 -0.3163  0.3045
19889TIP3    H181158   1.856   6.284   1.741 -0.2528 -1.0985 -0.2665
19889TIP3    H281159   1.937   6.157   1.763  1.0841 -0.0499  1.0270
19890TIP3   OH281160   3.525   3.929   1.308  0.4421  0.2548 -0.1204
19890TIP3    H181161   3.544   4.015   1.271  0.4933  0.9668  1.4763
19890TIP3    H281162   3.597   3.913   1.368 -0.3029 -0.2494  0.6576
19891TIP3   OH281163   5.723   5.807   4.581  0.3396  0.3755  0.0429
19891TIP3    H181164   5.735   5.738   4.647  0.3489 -0.5918 -0.9486
19891TIP3    H281165   5.810   5.846   4.572  0.3582  0.4560  0.5264
19892TIP3   OH281166   5.641   6.146   0.914  0.0812 -0.2757 -0.1451
19892TIP3    H181167   5.616   6.235   0.936  1.0921  0.6137 -2.3490
19892TIP3    H281168   5.736   6.148   0.905  0.1922 -1.7218  0.3340
19893TIP3   OH281169   6.165   0.715  14.489  0.5616 -0.1861  0.1410
19893TIP3    H181170   6.121   0.695  14.406  3.3562  1.3870 -1.9475
19893TIP3    H281171   6.152   0.809  14.501  2.0350  0.0405  0.2077
19894TIP3   OH281172   5.928   1.333   2.174 -0.1653 -0.1711 -0.1998
19894TIP3    H181173   5.864   1.351   2.105  0.2448 -0.2870 -0.6173
19894TIP3    H281174   5.997   1.397   2.159  0.0848 -0.4161 -0.1047
19895TIP3   OH281175   3.661   6.310   4.746 -0.3061  0.0689 -0.3760
19895TIP3    H181176   3.590   6.307   4.682  0.3127 -0.8115 -1.0380
19895TIP3    H281177   3.617   6.327   4.829 -1.3628 -1.0004 -0.6896
19896TIP3   OH281178   6.307   3.734  14.815  0.3018  0.9122  0.6386
19896TIP3    H181179   6.262   3.817  14.802  0.3602  0.7478 -0.6826
19896TIP3    H281180   6.273   3.676  14.747  1.1677  0.2336  0.7606
19897TIP3   OH281181   5.195   0.705  14.626 -0.2232 -0.5800  0.1605
19897TIP3    H181182   5.127   0.659  14.675  0.3512 -1.1372  0.4557
19897TIP3    H281183   5.270   0.645  14.627  0.8173  0.6634  1.1994
19898TIP3   OH281184   4.423   4.401   6.442 -0.0751 -0.6221 -0.3337
19898TIP3    H181185   4.488   4.415   6.374 -1.3010 -0.4139 -1.4966
19898TIP3    H281186   4.339   4.414   6.399 -0.8792  0.4959  1.4341
19899TIP3   OH281187   4.217   5.651   1.931 -0.5533  1.0425 -0.1742
19899TIP3    H181188   4.284   5.660   1.999  0.6314  1.2239 -1.3149
19899TIP3    H281189   4.185   5.562   1.940  0.2619  0.7622  0.0416
19900TIP3   OH281190   4.563   4.046   4.403 -0.1081  0.3369 -0.1335
19900TIP3    H181191   4.537   3.956   4.424 -0.3774 -0.0603 -1.9324
19900TIP3    H281192   4.526   4.099   4.473 -0.7111 -0.8554  0.4985
19901TIP3   OH281193   6.266   4.132   2.529 -0.3240 -0.3928  0.4674
19901TIP3    H181194   6.316   4.089   2.599 -0.4525 -0.6783  0.3821
19901TIP3    H281195   6.251   4.064   2.464  0.0506 -0.0498  0.0184
19902TIP3   OH281196   0.601   0.535  11.366 -0.1458  0.0692  0.4840
19902TIP3    H181197   0.580   0.595  11.438  0.6085  1.3116 -0.2939
19902TIP3    H281198   0.602   0.590  11.288 -1.1427 -1.2862 -0.5307
19903TIP3   OH281199   4.241   5.941  10.965  0.4612 -0.4283 -0.0013
19903TIP3    H181200   4.241   5.945  10.869  0.7744 -0.7600 -0.0166
19903TIP3    H281201   4.150   5.919  10.988  0.1283  0.6945 -0.1704
19904TIP3   OH281202   0.648   6.246   1.696 -0.2842 -0.4004  0.0078
19904TIP3    H181203   0.680   6.175   1.752  0.7711 -1.0114 -1.3124
19904TIP3    H281204   0.672   6.219   1.607 -2.0213  0.4760 -0.7784
19905TIP3   OH281205   4.639   1.388   3.017  0.4177 -0.4988  0.4055
19905TIP3    H181206   4.545   1.389   2.996  0.7548  0.7394 -1.2749
19905TIP3    H281207   4.681   1.369   2.933  1.7528  1.8675  0.4497
19906TIP3   OH281208   5.372   1.291   5.407  0.2682  0.1113 -0.1315
19906TIP3    H181209   5.394   1.357   5.473 -0.9069 -1.1396  1.5917
19906TIP3    H281210   5.287   1.319   5.372  0.3708  0.1727 -0.3382
19907TIP3   OH281211   3.130   1.508  12.950  0.8450  0.1603 -0.2297
19907TIP3    H181212   3.064   1.456  12.995  0.4997  2.6645  2.4010
19907TIP3    H281213   3.084   1.543  12.873 -0.1411 -0.0452  0.2531
19908TIP3   OH281214   6.609   0.354  15.258 -0.3616  0.0417 -0.1812
19908TIP3    H181215   6.661   0.404  15.194  0.3998 -0.3717  0.1035
19908TIP3    H281216   6.535   0.411  15.278 -0.1471  0.5453 -0.7773
19909TIP3   OH281217   0.530   5.427  15.806  0.4808  0.0233  0.7111
19909TIP3    H181218   0.551   5.335  15.826  1.5650  0.0940 -0.0337
19909TIP3    H281219   0.569   5.442  15.720 -2.0495  0.3963 -0.4600
19910TIP3   OH281220   2.178   1.064   3.754 -0.1724  0.1430  0.0675
19910TIP3    H181221   2.254   1.007   3.744 -0.1265  0.3564 -0.8237
19910TIP3    H281222   2.197   1.115   3.833 -1.1483 -2.4871  2.1912
19911TIP3   OH281223   3.335   4.328   0.121 -0.1935 -0.6517  0.0362
19911TIP3    H181224   3.267   4.360   0.062 -0.5977  1.3898  1.5015
19911TIP3    H281225   3.381   4.261   0.070 -1.8679 -0.5180 -1.7854
19912TIP3   OH281226   1.971   5.502  17.443 -0.0934 -0.2684 -0.1178
19912TIP3    H181227   2.017   5.557  17.380 -0.4513 -1.4349 -1.4537
19912TIP3    H281228   1.879   5.513  17.421 -0.2304 -0.6182  0.2712
19913TIP3   OH281229   2.427   3.835  16.005  0.0794 -0.2335  0.4139
19913TIP3    H181230   2.343   3.823  15.962 -0.0902 -0.7630  0.8824
19913TIP3    H281231   2.473   3.899  15.951 -0.8025  0.4140  0.4171
19914TIP3   OH281232   3.972   0.239   1.390  0.0783 -0.1736 -0.2085
19914TIP3    H181233   4.065   0.222   1.404  0.4108  0.9317 -0.9173
19914TIP3    H281234   3.964   0.250   1.295 -0.7863 -0.3077 -0.1630
19915TIP3   OH281235   0.045   6.128  17.620  0.4124  0.3684  0.1085
19915TIP3    H181236   0.129   6.174  17.623  0.0489  1.0419  0.2154
19915TIP3    H281237   0.056   6.054  17.679  1.0480  0.2466 -0.1538
19916TIP3   OH281238   4.393   4.522  14.799  0.2871  0.1792  0.2938
19916TIP3    H181239   4.327   4.554  14.737 -0.1519  1.9974  1.6073
19916TIP3    H281240   4.354   4.443  14.836 -1.4794  1.5039  1.4440
19917TIP3   OH281241   1.387   5.329  14.208  0.1762  0.5728  0.1449
19917TIP3    H181242   1.423   5.266  14.271  0.5250 -0.4436 -1.0375
19917TIP3    H281243   1.304   5.356  14.247  0.6051  0.3284  1.2683
19918TIP3   OH281244   4.037   2.045  17.185  0.5555 -0.0524  0.2400
19918TIP3    H181245   4.100   1.980  17.154 -1.9063 -2.8431  0.5945
19918TIP3    H281246   4.050   2.047  17.280 -0.4067 -1.3213  0.4255
19919TIP3   OH281247   0.545   0.944  13.805 -0.1594 -0.2441  0.5232
19919TIP3    H181248   0.621   0.997  13.783  0.1944  0.1992  2.5466
19919TIP3    H281249   0.533   0.885  13.731  0.5979  1.3787 -0.9510
19920TIP3   OH281250   2.464   0.269   5.684  0.5226 -0.0668  0.1216
19920TIP3    H181251   2.557   0.258   5.666  1.4740  0.3141  3.8517
19920TIP3    H281252   2.430   0.179   5.690  1.6283 -0.4121  2.4056
19921TIP3   OH281253   2.716   4.502   1.044 -0.1543 -0.8038  0.2515
19921TIP3    H181254   2.685   4.416   1.072 -1.8098 -0.3862 -0.2125
19921TIP3    H281255   2.730   4.492   0.950 -1.4239 -0.2908 -0.0109
19922TIP3   OH281256   1.327   1.764  17.279  0.2662  0.5125  0.1750
19922TIP3    H181257   1.313   1.831  17.347  1.9739  0.5029  0.5824
19922TIP3    H281258   1.421   1.771  17.258  1.0608 -3.1330  1.7514
19923TIP3   OH281259   0.846   6.519   2.793 -0.7707 -0.2605  0.4012
19923TIP3    H181260   0.812   6.437   2.758  1.2201 -1.7878  1.7392
19923TIP3    H281261   0.940   6.515   2.775 -0.4404  1.1080  1.6380
19924TIP3   OH281262   2.363   2.762   6.705  0.1015 -0.6064 -0.4788
19924TIP3    H181263   2.378   2.856   6.715  1.1134 -0.8121  0.0614
19924TIP3    H281264   2.349   2.731   6.795  0.8936 -1.1476 -0.5345
19925TIP3   OH281265   3.725   0.878  16.913 -0.6929  0.1480  0.5072
19925TIP3    H181266   3.817   0.900  16.930  0.3379 -2.4288 -1.0840
19925TIP3    H281267   3.675   0.943  16.961  1.9596  2.3850  0.4744
19926TIP3   OH281268   5.321   3.818   2.160 -0.2511  0.0107 -0.2540
19926TIP3    H181269   5.313   3.912   2.180  0.0750 -0.0692  0.2756
19926TIP3    H281270   5.238   3.781   2.189 -0.0209 -0.0054  0.4090
19927TIP3   OH281271   2.313   5.898   0.856  0.4342 -0.2137 -0.4150
19927TIP3    H181272   2.290   5.955   0.928 -0.3422 -0.6568 -0.3012
19927TIP3    H281273   2.229   5.862   0.825  0.9514 -2.0471  0.1638
19928TIP3   OH281274   4.954   3.934  17.372 -0.6206 -0.8380  0.2513
19928TIP3    H181275   5.048   3.942  17.386 -0.8066 -1.0614  1.8464
19928TIP3    H281276   4.933   3.846  17.405 -1.4771 -0.5305  0.5534
19929TIP3   OH281277   6.508   4.996   0.669 -0.5583 -0.7472  0.6617
19929TIP3    H181278   6.582   5.011   0.727  0.4961 -1.2975 -0.5034
19929TIP3    H281279   6.531   4.918   0.619 -0.4353  0.8277 -1.9585
19930TIP3   OH281280   3.381   2.010   2.980 -0.0327  0.4971  0.3909
19930TIP3    H181281   3.433   2.061   2.918 -1.6836  0.0302 -1.4661
19930TIP3    H281282   3.343   1.940   2.928 -0.2412 -0.8760  2.2843
19931TIP3   OH281283   6.254   5.360  15.792  0.3782  0.0793 -0.1761
19931TIP3    H181284   6.220   5.412  15.720 -0.2510  0.4726  0.3986
19931TIP3    H281285   6.197   5.282  15.795  0.6852 -0.1561 -0.3886
19932TIP3   OH281286   1.921   5.530  11.192  0.1838  0.1922  0.3904
19932TIP3    H181287   1.900   5.571  11.108  0.2519  1.0979  0.7954
19932TIP3    H281288   1.997   5.476  11.175  1.3505  1.8093  0.2375
19933TIP3   OH281289   4.561   5.182  12.517 -0.4665 -0.2280  0.3781
19933TIP3    H181290   4.532   5.252  12.459 -2.0788 -1.5056 -0.4558
19933TIP3    H281291   4.650   5.206  12.541 -0.3811  1.2521 -1.2111
19934TIP3   OH281292   0.752   0.960  11.847 -0.0130 -0.5129 -0.0653
19934TIP3    H181293   0.706   0.903  11.908 -1.2923 -0.0447 -0.5707
19934TIP3    H281294   0.844   0.936  11.858 -0.5191 -3.0230 -0.5880
19935TIP3   OH281295   3.470   3.247   5.337 -0.1655 -0.1526 -0.1536
19935TIP3    H181296   3.513   3.306   5.275  0.7193 -1.7028 -1.0717
19935TIP3    H281297   3.393   3.215   5.290 -0.4456 -0.0114  0.2034
19936TIP3   OH281298   4.035   3.685   1.293 -0.2528  0.0281 -0.0966
19936TIP3    H181299   3.998   3.608   1.248 -3.7309  0.2497  1.9925
19936TIP3    H281300   4.009   3.759   1.238  0.2617 -0.0426 -0.4444
19937TIP3   OH281301   4.723   3.205  11.809 -0.1715  0.1672 -0.0628
19937TIP3    H181302   4.673   3.142  11.758 -0.0902 -0.2163  0.3213
19937TIP3    H281303   4.787   3.152  11.856 -1.4223  0.2725  1.8659
19938TIP3   OH281304   4.761   5.153  16.029  0.0624  0.6510  0.5310
19938TIP3    H181305   4.712   5.103  16.094 -0.4436 -1.4222 -1.3135
19938TIP3    H281306   4.694   5.196  15.976  0.2281 -0.7523 -0.8973
19939TIP3   OH281307   4.610   2.712   1.198 -0.3627 -0.2608  0.1051
19939TIP3    H181308   4.636   2.740   1.286 -0.4717 -1.5844  0.5811
19939TIP3    H281309   4.587   2.793   1.153  0.5689  0.5301  0.9978
19940TIP3   OH281310   4.141   5.477   2.122  0.3385  0.0821 -0.0846
19940TIP3    H181311   4.157   5.519   2.206  0.6380 -0.7001  0.2672
19940TIP3    H281312   4.161   5.384   2.138 -0.9343 -0.3148 -0.6448
19941TIP3   OH281313   3.486   3.005  16.553  0.1265  0.2623  0.0540
19941TIP3    H181314   3.497   3.053  16.471  1.3321  0.6255  0.4111
19941TIP3    H281315   3.395   2.975  16.551 -0.6848  2.5476 -0.1882
19942TIP3   OH281316   2.609   1.128   4.444 -0.0230 -0.3843 -0.2989
19942TIP3    H181317   2.688   1.180   4.432  0.0662 -0.4799 -0.1257
19942TIP3    H281318   2.636   1.038   4.427 -0.1252 -0.4011 -0.3749
19943TIP3   OH281319   4.197   1.352  17.571 -0.2589 -0.2273 -0.5272
19943TIP3    H181320   4.135   1.421  17.548  1.5200  1.4247 -0.6692
19943TIP3    H281321   4.251   1.391  17.640  1.2748 -1.1909 -1.1270
19944TIP3   OH281322   4.068   0.609   0.818 -0.4602 -0.3502  0.2594
19944TIP3    H181323   4.130   0.630   0.888 -0.6120  0.7889  0.0678
19944TIP3    H281324   4.122   0.573   0.748  0.0925  1.1242 -0.1139
19945TIP3   OH281325   3.417   3.923  13.449  0.7913  0.4696 -0.2432
19945TIP3    H181326   3.478   3.955  13.516 -0.4793  1.1565  0.6295
19945TIP3    H281327   3.389   4.002  13.403  0.3796  0.1911 -0.4717
19946TIP3   OH281328   5.834   1.925  15.849 -0.1641  0.2920 -0.4822
19946TIP3    H181329   5.904   1.884  15.900 -0.6614 -1.2984 -1.0264
19946TIP3    H281330   5.847   2.019  15.862  1.3143 -0.0058  0.4221
19947TIP3   OH281331   3.671   1.785  11.426 -0.3121  0.0891 -0.4861
19947TIP3    H181332   3.642   1.821  11.509 -2.8275 -0.1364 -1.1662
19947TIP3    H281333   3.673   1.690  11.439  3.3348  0.1418  0.4147
19948TIP3   OH281334   3.382   0.181  11.746  0.0111 -0.1387 -0.3746
19948TIP3    H181335   3.431   0.259  11.721 -2.6303  1.1150 -2.0347
19948TIP3    H281336   3.346   0.202  11.832 -0.7703  0.5505 -0.8603
19949TIP3   OH281337   5.544   0.378  14.981  0.4533  0.5512 -0.2774
19949TIP3    H181338   5.453   0.396  14.957  1.3987  2.8504 -2.6802
19949TIP3    H281339   5.566   0.298  14.934  0.0735  0.8296 -0.9435
19950TIP3   OH281340   0.947   1.124  15.226 -0.2104  0.1491 -0.1694
19950TIP3    H181341   0.996   1.090  15.301 -0.8667 -0.0090  0.1948
19950TIP3    H281342   0.904   1.047  15.188  0.3514  0.1843 -0.8849
19951TIP3   OH281343   6.730   0.555   1.413  0.2824 -0.2478  0.1582
19951TIP3    H181344   6.735   0.605   1.494 -1.2898  2.7325 -1.4290
19951TIP3    H281345   6.806   0.584   1.362 -0.0414 -0.2954 -0.3552
19952TIP3   OH281346   5.129   1.493  14.808  0.1484  0.4812  0.3674
19952TIP3    H181347   5.154   1.401  14.815  2.0363  0.8728 -0.5313
19952TIP3    H281348   5.210   1.538  14.783 -1.4025  1.8962 -2.6411
19953TIP3   OH281349   5.503   5.609   2.029  0.0011  0.0237  0.4852
19953TIP3    H181350   5.436   5.677   2.026 -1.1534 -1.0560  0.6178
19953TIP3    H281351   5.572   5.640   1.969 -1.3358  0.4514 -0.9088
19954TIP3   OH281352   0.600   1.475   3.087 -0.1218 -0.1054 -0.9103
19954TIP3    H181353   0.521   1.488   3.035 -1.2084 -4.1034 -0.5514
19954TIP3    H281354   0.671   1.472   3.022 -0.3326  2.2271 -1.3437
19955TIP3   OH281355   3.866   6.126  15.486 -0.7439 -0.0627 -0.0200
19955TIP3    H181356   3.847   6.067  15.559 -0.0446 -0.4133 -0.1112
19955TIP3    H281357   3.819   6.088  15.411 -0.1149 -0.6368 -0.1304
19956TIP3   OH281358   1.732   1.359  11.426  0.3130 -0.9172  0.4627
19956TIP3    H181359   1.732   1.369  11.331 -0.1359  0.4730  0.5821
19956TIP3    H281360   1.750   1.266  11.441  0.8429 -1.0624 -0.9627
19957TIP3   OH281361   6.712   1.274  12.900 -0.6298  0.9154  0.6209
19957TIP3    H181362   6.774   1.344  12.878 -2.4908  2.1789 -0.8661
19957TIP3    H281363   6.754   1.228  12.973  1.8456  1.9578 -0.0202
19958TIP3   OH281364   4.948   2.674  10.835  0.0681  0.4735 -0.0509
19958TIP3    H181365   5.001   2.645  10.761 -0.7905  1.6823 -1.1992
19958TIP3    H281366   4.890   2.740  10.798 -0.9831  0.5025  1.5413
19959TIP3   OH281367   3.350   5.280   0.651  0.3186  0.1954  0.4058
19959TIP3    H181368   3.258   5.305   0.652  0.7741  2.0297  2.2754
19959TIP3    H281369   3.396   5.359   0.625  1.5896  0.5005  3.2681
19960TIP3   OH281370   3.387   0.446  12.915 -0.4806 -0.3051  0.1624
19960TIP3    H181371   3.430   0.364  12.888  0.3199 -0.3031  1.3778
19960TIP3    H281372   3.338   0.422  12.993  0.2463  0.4924  0.8818
19961TIP3   OH281373   6.674   6.043  16.755  0.7482  0.5336  0.1477
19961TIP3    H181374   6.758   6.009  16.724  0.9896 -0.9500  2.2322
19961TIP3    H281375   6.698   6.120  16.807  0.7779  0.3216  0.4469
19962TIP3   OH281376   1.463   4.367   0.792  0.6902 -0.2726 -0.6716
19962TIP3    H181377   1.459   4.301   0.723 -0.2810  0.8038 -1.6856
19962TIP3    H281378   1.410   4.329   0.863  0.4997 -0.7764 -1.0708
19963TIP3   OH281379   6.701   3.440  14.194 -0.1640 -0.0080 -0.1568
19963TIP3    H181380   6.754   3.519  14.204 -0.5640  0.2930 -0.3819
19963TIP3    H281381   6.764   3.371  14.175  0.2541  0.1338  0.6664
19964TIP3   OH281382   5.585   5.561  16.989 -0.2174  0.2156  0.1843
19964TIP3    H181383   5.627   5.625  16.931 -1.3897  0.4279 -0.4562
19964TIP3    H281384   5.562   5.612  17.067  0.1113  0.2456  0.2660
19965TIP3   OH281385   4.266   0.806   0.715 -0.6196 -0.0371 -0.2274
19965TIP3    H181386   4.191   0.757   0.749 -0.6914  0.3239  0.1415
19965TIP3    H281387   4.232   0.849   0.637 -0.3385 -1.2122 -1.0275
19966TIP3   OH281388   6.543   0.551   4.143  0.6938  0.0054  0.2372
19966TIP3    H181389   6.576   0.546   4.054 -0.4868  2.5481 -0.4096
19966TIP3    H281390   6.463   0.603   4.137 -0.8834 -1.9622  2.4272
19967TIP3   OH281391   4.363   2.304   1.366  0.4386 -0.0394  0.2697
19967TIP3    H181392   4.420   2.270   1.297 -0.6785 -0.6388 -0.3856
19967TIP3    H281393   4.305   2.365   1.321 -0.8322 -1.0379  0.5037
19968TIP3   OH281394   2.124   0.750  17.307  0.0211 -0.1707  0.3808
19968TIP3    H181395   2.143   0.771  17.398  2.0469 -0.7006  0.1410
19968TIP3    H281396   2.062   0.677  17.311  1.1457 -1.1186  1.3916
19969TIP3   OH281397   0.266   5.393   3.899 -0.5028  0.3525 -0.5794
19969TIP3    H181398   0.314   5.476   3.904 -3.1811  2.1422 -2.2313
19969TIP3    H281399   0.174   5.418   3.902 -1.5271 -2.2716 -3.8317
19970TIP3   OH281400   3.320   4.613  15.625 -0.0692  0.1375 -0.3164
19970TIP3    H181401   3.358   4.686  15.675  0.0349 -0.3006  0.2521
19970TIP3    H281402   3.226   4.632  15.622  0.1744  1.3522 -1.9295
19971TIP3   OH281403   3.820   5.806   5.655 -0.0912 -0.5543 -0.1900
19971TIP3    H181404   3.899   5.752   5.643  0.1096 -0.0548 -1.2241
19971TIP3    H281405   3.795   5.832   5.566  0.0364  1.3532  0.2840
19972TIP3   OH281406   5.366   5.869   1.949 -0.0025 -0.2075 -0.1688
19972TIP3    H181407   5.328   5.953   1.923 -1.0149 -1.2059 -2.0901
19972TIP3    H281408   5.417   5.889   2.028 -2.5348  1.6628  1.1402
19973TIP3   OH281409   2.264   4.863   0.004  1.0310  0.0497  0.4407
19973TIP3    H181410   2.290   4.951   0.029  1.5313  0.0862 -0.1829
19973TIP3    H281411   2.220   4.873  -0.080  1.3875 -0.3256  0.2009
19974TIP3   OH281412   1.780   5.857  12.782  0.2585 -0.5169 -0.1247
19974TIP3    H181413   1.763   5.779  12.835  0.3965 -1.0641 -0.8635
19974TIP3    H281414   1.733   5.927  12.826 -0.0430 -1.0639  0.4351
19975TIP3   OH281415   5.398   2.655   0.997 -0.6892  0.0709 -0.1806
19975TIP3    H181416   5.393   2.573   0.948  1.6307  0.0062 -0.4418
19975TIP3    H281417   5.458   2.636   1.069 -0.1195  1.4973 -0.2332
19976TIP3   OH281418   4.656   3.068  13.433 -0.8123  0.3638 -1.5574
19976TIP3    H181419   4.639   2.976  13.452  0.8271  0.1040 -1.1494
19976TIP3    H281420   4.697   3.067  13.346  0.5292  0.5219 -0.9537
19977TIP3   OH281421   4.173   0.810   6.861  0.3096 -0.4055  0.6727
19977TIP3    H181422   4.166   0.723   6.823 -0.2972  0.0869 -0.3698
19977TIP3    H281423   4.091   0.853   6.839  0.7636  0.5762  0.8218
19978TIP3   OH281424   1.774   3.831  14.576  0.2744  0.3727 -0.2638
19978TIP3    H181425   1.710   3.779  14.625 -1.0981  1.1296 -1.1723
19978TIP3    H281426   1.813   3.889  14.642  0.0645 -0.1273  0.3157
19979TIP3   OH281427   2.705   3.222   3.267  0.0011 -0.2655  0.5983
19979TIP3    H181428   2.685   3.150   3.326  0.8355 -0.7527  0.2965
19979TIP3    H281429   2.778   3.268   3.307  0.5916 -0.6169 -0.0590
19980TIP3   OH281430   2.277   5.516  13.912  0.7380 -0.2910  0.5138
19980TIP3    H181431   2.344   5.479  13.854 -0.3886 -1.0788 -0.3300
19980TIP3    H281432   2.243   5.592  13.865 -0.2295 -0.9732  0.0821
19981TIP3   OH281433   0.108   2.424   5.464  0.0152 -0.2097 -0.6485
19981TIP3    H181434   0.194   2.455   5.434 -0.3276  0.2739 -1.1427
19981TIP3    H281435   0.046   2.489   5.430 -0.5176 -0.3998 -0.0439
19982TIP3   OH281436   6.175   6.636  14.045 -0.1153 -0.0618  0.1984
19982TIP3    H181437   6.220   6.589  14.115  1.2178  0.6157 -0.1610
19982TIP3    H281438   6.242   6.645  13.976 -1.6002 -1.4496 -1.5350
19983TIP3   OH281439   6.107   3.924   1.043  0.2573  0.5409  0.0333
19983TIP3    H181440   6.026   3.883   1.075 -0.3339  0.2209 -1.7173
19983TIP3    H281441   6.086   3.950   0.953  1.1745  3.1355  0.4685
19984TIP3   OH281442   1.566   3.401   2.786  0.2212  0.3754 -0.2895
19984TIP3    H181443   1.655   3.420   2.815  0.1694 -0.2169  0.2796
19984TIP3    H281444   1.517   3.481   2.806  0.4208  0.3649  0.2564
19985TIP3   OH281445   0.785   6.246   0.636 -0.1161  0.4755 -0.1500
19985TIP3    H181446   0.875   6.255   0.604 -0.3588  0.2813 -0.9025
19985TIP3    H281447   0.764   6.333   0.671  0.1748  0.6781 -0.4696
19986TIP3   OH281448   5.193   5.419   1.992  0.0773 -0.0889  0.3683
19986TIP3    H181449   5.155   5.368   1.921  0.1033 -0.6315  0.7391
19986TIP3    H281450   5.266   5.467   1.951 -1.5988  1.7969 -0.5926
19987TIP3   OH281451   3.698   2.714   7.059 -0.1157  0.1849  0.3749
19987TIP3    H181452   3.608   2.704   7.029  0.1017  1.0927 -0.6395
19987TIP3    H281453   3.725   2.799   7.025  1.2405 -0.2331  0.3637
19988TIP3   OH281454   6.272   4.402  11.193  0.3847  0.7240  0.2823
19988TIP3    H181455   6.352   4.451  11.180  0.8023 -0.0021  0.0434
19988TIP3    H281456   6.262   4.395  11.288  1.2254 -0.1648  0.3141
19989TIP3   OH281457   2.492   1.400  14.035  0.0670 -0.4015  0.1708
19989TIP3    H181458   2.550   1.335  13.993  0.8156 -0.3926  1.1506
19989TIP3    H281459   2.513   1.482  13.991  0.8966 -0.3803  0.5863
19990TIP3   OH281460   3.240   3.906   0.337 -0.3489  0.0985 -0.4631
19990TIP3    H181461   3.172   3.843   0.360 -0.9219  0.3208 -1.5090
19990TIP3    H281462   3.211   3.988   0.377  0.1509 -0.1677  0.4822
19991TIP3   OH281463   4.573   5.609  15.758 -0.1241 -0.6115  0.0098
19991TIP3    H181464   4.497   5.555  15.781 -0.6772  0.1697  0.0432
19991TIP3    H281465   4.552   5.645  15.673 -0.0233  0.0266  0.2506
19992TIP3   OH281466   3.005   2.414  14.187  0.3366  0.8560  0.5080
19992TIP3    H181467   2.928   2.470  14.185  0.8818  1.6742  1.5328
19992TIP3    H281468   2.970   2.326  14.199 -0.7988  0.3034 -4.7362
19993TIP3   OH281469   2.416   5.062   6.190  0.9711 -0.0112  0.0740
19993TIP3    H181470   2.390   4.985   6.140  0.4810  0.1342  0.0988
19993TIP3    H281471   2.458   5.027   6.268  0.5193 -0.2665  0.2111
19994TIP3   OH281472   4.258   3.466  15.499 -0.2275  0.3709  0.1110
19994TIP3    H181473   4.163   3.480  15.496 -0.2099  0.4751  0.0324
19994TIP3    H281474   4.290   3.533  15.559 -0.0367  1.2556 -0.9571
19995TIP3   OH281475   5.813   5.373   4.406 -0.4264  0.5595 -0.2013
19995TIP3    H181476   5.731   5.421   4.420  0.1322  1.1095  1.3368
19995TIP3    H281477   5.868   5.397   4.480  0.6579 -0.8380 -0.5192
19996TIP3   OH281478   5.490   1.137  17.343  0.1865  0.0462 -0.2934
19996TIP3    H181479   5.472   1.182  17.261 -0.2757  0.5479  0.0822
19996TIP3    H281480   5.585   1.148  17.355  0.4130 -0.7586 -1.1770
19997TIP3   OH281481   2.593   2.094   0.037  0.7445  0.1514 -0.2071
19997TIP3    H181482   2.538   2.115  -0.039  0.1120  0.1376  0.2468
19997TIP3    H281483   2.554   2.015   0.073  0.7951  0.3956  0.3858
19998TIP3   OH281484   0.382   5.469   0.086 -0.0063  0.4154 -0.1287
19998TIP3    H181485   0.471   5.483   0.055 -0.2589  3.6310  0.1955
19998TIP3    H281486   0.335   5.435   0.009  0.9750  1.0663 -1.0504
19999TIP3   OH281487   1.058   5.952   0.261 -0.0964 -0.2624  0.8529
19999TIP3    H181488   1.138   5.933   0.310 -0.4721 -0.8261  1.2707
19999TIP3    H281489   1.077   5.923   0.171  0.5785  0.7344  0.6631
20000TIP3   OH281490   1.169   2.942   5.469 -0.1454  0.6201 -0.2245
20000TIP3    H181491   1.248   2.940   5.415 -1.1853  0.5592 -1.8057
20000TIP3    H281492   1.168   2.857   5.513  0.1151  0.1929 -1.0303
20001TIP3   OH281493   4.268   2.839   6.098  0.0690 -0.3709  0.0790
20001TIP3    H181494   4.294   2.756   6.138  2.0965 -0.3452 -1.0889
20001TIP3    H281495   4.175   2.828   6.078 -0.1309 -1.6610  1.5658
20002TIP3   OH281496   3.350   6.053   4.660  0.5429  1.1515 -0.5709
20002TIP3    H181497   3.343   6.010   4.745 -0.0907  0.2161 -1.0738
20002TIP3    H281498   3.261   6.049   4.624  1.2472 -0.5457 -2.2439
20003TIP3   OH281499   6.620   1.829  13.773 -0.1491 -0.3960  0.1492
20003TIP3    H181500   6.698   1.790  13.735  1.8648  4.7686 -1.9391
20003TIP3    H281501   6.653   1.886  13.842 -2.1801  0.9826  0.0790
20004TIP3   OH281502   2.829   0.879   2.745  0.7619  0.3435  0.6340
20004TIP3    H181503   2.902   0.881   2.683  0.4314 -1.2318  0.1456
20004TIP3    H281504   2.757   0.841   2.695 -0.4111  1.8545  1.1154
20005TIP3   OH281505   6.051   1.452  15.623  0.4942  0.4424 -0.4769
20005TIP3    H181506   5.958   1.439  15.604 -0.5907  0.6702  3.8059
20005TIP3    H281507   6.063   1.547  15.620  0.4605  0.4468 -0.4776
20006TIP3   OH281508   0.064   4.344  14.313  0.2023 -0.1415  0.0018
20006TIP3    H181509   0.052   4.361  14.219 -0.7567  2.0337  0.4491
20006TIP3    H281510   0.148   4.299  14.319  0.3012 -0.2836 -1.8958
20007TIP3   OH281511   1.977   4.315  13.231 -0.5269  0.1744 -0.4188
20007TIP3    H181512   1.990   4.396  13.182  0.7730  0.1522 -0.1426
20007TIP3    H281513   1.974   4.342  13.323  1.0944 -0.1839 -0.2326
20008TIP3   OH281514   1.736   2.478   0.955 -0.0508 -0.6720  1.0729
20008TIP3    H181515   1.759   2.461   1.046 -2.1074 -2.1317  1.3956
20008TIP3    H281516   1.784   2.412   0.905 -0.2810 -1.0194  1.3062
20009TIP3   OH281517   4.653   0.220   0.464 -0.1276  0.3401 -0.2217
20009TIP3    H181518   4.559   0.234   0.475 -1.0160 -3.0222 -2.1690
20009TIP3    H281519   4.664   0.208   0.370  1.8221 -1.7069  0.2026
20010TIP3   OH281520   0.484   3.030  14.754 -0.0112 -0.3027  0.3577
20010TIP3    H181521   0.440   3.014  14.837  0.3161  0.5811  0.7129
20010TIP3    H281522   0.570   3.064  14.778 -0.1584  0.6110 -0.3318
20011TIP3   OH281523   4.217   4.785   2.899 -0.4603 -0.4899  0.1155
20011TIP3    H181524   4.297   4.837   2.894 -0.6094 -0.3662 -1.6694
20011TIP3    H281525   4.163   4.818   2.827  0.1053 -4.1605 -2.2382
20012TIP3   OH281526   4.577   0.024   2.998 -0.3631 -0.2914  0.6798
20012TIP3    H181527   4.623   0.057   3.076  1.4511  0.7032 -0.7141
20012TIP3    H281528   4.595  -0.070   2.998  1.1957 -0.0262  0.5306
20013TIP3   OH281529   0.124   0.504  11.382  0.7996 -0.3753 -0.1180
20013TIP3    H181530   0.203   0.548  11.350 -0.1715  0.9789 -0.7181
20013TIP3    H281531   0.114   0.537  11.472  0.0543  0.7087 -0.5781
20014TIP3   OH281532   5.341   4.367  14.406 -0.1300 -0.5661 -0.9255
20014TIP3    H181533   5.361   4.288  14.457 -2.2483 -0.7066 -0.2121
20014TIP3    H281534   5.276   4.338  14.341  0.9474  0.0771 -2.3332
20015TIP3   OH281535   6.039   3.201   4.789 -0.3353 -0.3117 -0.1238
20015TIP3    H181536   5.957   3.249   4.802  0.3644  1.2189 -1.1555
20015TIP3    H281537   6.018   3.133   4.725 -1.2747 -1.3029  1.1724
20016TIP3   OH281538   6.252   2.192   4.329  0.4932  0.2866  0.1446
20016TIP3    H181539   6.330   2.144   4.299 -0.1007 -0.5902 -0.0378
20016TIP3    H281540   6.205   2.129   4.384  0.3262  1.0822  0.9457
20017TIP3   OH281541   3.747   1.190   5.949  0.5635  0.1581  0.1618
20017TIP3    H181542   3.778   1.266   5.900 -0.4153  0.9388  0.7163
20017TIP3    H281543   3.817   1.173   6.012  0.9038  0.4439 -0.1297
20018TIP3   OH281544   3.552   6.198   2.582 -0.1832  0.4305  0.4554
20018TIP3    H181545   3.618   6.210   2.650 -0.6477  0.3832  0.9179
20018TIP3    H281546   3.586   6.125   2.529 -0.0109  0.2061  0.8683
20019TIP3   OH281547   3.670   6.579  16.441 -0.1025 -0.0791  0.5082
20019TIP3    H181548   3.616   6.609  16.369 -1.3156  0.0475  1.4291
20019TIP3    H281549   3.652   6.640  16.513 -1.6918 -2.1881  2.0360
20020TIP3   OH281550   5.104   0.167   3.363 -0.0360  0.2534  0.3193
20020TIP3    H181551   5.022   0.200   3.400 -0.4982 -0.9822  0.4291
20020TIP3    H281552   5.093   0.176   3.268  0.5190  1.9385  0.3788
20021TIP3   OH281553   5.761   5.212  13.109 -0.1913 -0.1509 -0.2121
20021TIP3    H181554   5.778   5.302  13.082 -0.8861  1.3085  3.5819
20021TIP3    H281555   5.827   5.194  13.176 -2.5199 -0.8769  2.0515
20022TIP3   OH281556   5.885   0.099  10.659  0.2586 -0.3503 -0.7686
20022TIP3    H181557   5.907   0.192  10.658 -0.0030 -0.2826 -0.4735
20022TIP3    H281558   5.814   0.092  10.722  0.0467 -0.6992 -1.0385
20023TIP3   OH281559   3.564   4.141   0.051  0.0949  0.4962  0.1364
20023TIP3    H181560   3.488   4.100   0.009 -0.0019  1.4991 -0.7042
20023TIP3    H281561   3.568   4.101   0.138 -1.9739  1.1053  0.5548
20024TIP3   OH281562   5.651   0.668  17.606  0.4533  0.3019 -0.0425
20024TIP3    H181563   5.706   0.671  17.528  1.9469  0.0413  0.9643
20024TIP3    H281564   5.645   0.759  17.634  0.9494  0.2502  0.2344
20025TIP3   OH281565   2.904   4.780  17.539 -0.1113  0.0199 -0.1371
20025TIP3    H181566   2.855   4.738  17.468  2.7079  0.3282 -2.4874
20025TIP3    H281567   2.983   4.727  17.547  0.7793  1.4696  1.0267
20026TIP3   OH281568   2.879   2.238   2.024 -0.8806 -0.2704 -0.7294
20026TIP3    H181569   2.947   2.224   2.090 -1.4400  0.3866  0.0140
20026TIP3    H281570   2.842   2.151   2.009 -1.1509 -0.3413  0.2894
20027TIP3   OH281571   0.120   2.390  12.256 -0.3805 -0.6062  0.4480
20027TIP3    H181572   0.151   2.479  12.242  0.9293 -0.9084  1.2103
20027TIP3    H281573   0.040   2.383  12.203  0.9588  0.1529 -1.8128
20028TIP3   OH281574   6.338   6.163  11.004  0.0655 -0.3287 -0.1113
20028TIP3    H181575   6.377   6.226  11.064 -0.0243 -1.0721  0.7596
20028TIP3    H281576   6.264   6.208  10.965 -1.5646 -0.6775  2.4159
20029TIP3   OH281577   3.009   0.416  11.627  0.0966  0.0786 -0.0263
20029TIP3    H181578   3.005   0.341  11.687  0.3362  1.1076  1.3306
20029TIP3    H281579   2.921   0.453  11.629 -0.0109 -0.1275 -0.6666
20030TIP3   OH281580   6.407   2.156   2.763 -0.6061  0.2296  0.1245
20030TIP3    H181581   6.389   2.088   2.828  3.5339 -0.6397  0.6702
20030TIP3    H281582   6.445   2.228   2.814 -1.7180  1.5480 -0.8552
20031TIP3   OH281583   1.199   1.870   5.682  0.1396 -0.1094 -0.0634
20031TIP3    H181584   1.171   1.940   5.740 -1.1565 -0.9159  0.3266
20031TIP3    H281585   1.256   1.815   5.736 -0.5283 -0.4919  0.2618
20032TIP3   OH281586   4.550   3.789  14.488 -0.6306 -0.4769 -0.3783
20032TIP3    H181587   4.607   3.838  14.547 -0.5623 -1.0487  0.0391
20032TIP3    H281588   4.565   3.828  14.402  1.0022 -1.1222 -0.4205
20033TIP3   OH281589   5.873   1.056  14.609 -0.1628 -0.1380 -0.3239
20033TIP3    H181590   5.806   1.000  14.649 -1.4798 -0.8083 -3.2570
20033TIP3    H281591   5.846   1.145  14.633 -2.0061 -0.4167 -1.2001
20034TIP3   OH281592   2.276   0.605   3.545 -0.1303  0.0645  0.2505
20034TIP3    H181593   2.250   0.657   3.621  0.1341  1.3914 -0.5348
20034TIP3    H281594   2.241   0.517   3.563 -2.4116  0.9853  0.6717
20035TIP3   OH281595   0.479   3.958   1.041  0.1877  0.3954  0.5736
20035TIP3    H181596   0.451   3.989   0.955 -0.2865 -1.2088  0.1339
20035TIP3    H281597   0.461   3.864   1.041 -0.7556  0.5203  2.7928
20036TIP3   OH281598   3.958   3.734  16.372  0.1158 -0.2597  0.3796
20036TIP3    H181599   4.027   3.783  16.329 -0.6148  0.3770 -0.1010
20036TIP3    H281600   3.894   3.801  16.398 -0.5841 -0.8800  0.2954
20037TIP3   OH281601   3.325   0.971   3.759 -0.0434 -0.2322 -0.1265
20037TIP3    H181602   3.249   0.984   3.816 -0.7136 -1.3230 -0.7232
20037TIP3    H281603   3.318   1.041   3.694  0.0172  0.2673  0.4058
20038TIP3   OH281604   1.680   5.697   3.870 -0.0485  0.2727 -0.1402
20038TIP3    H181605   1.755   5.702   3.929 -0.1122  1.9052 -0.1291
20038TIP3    H281606   1.718   5.677   3.784  0.2160 -0.5306  0.1609
20039TIP3   OH281607   3.946   0.348   0.501  0.2534 -0.0078  0.1009
20039TIP3    H181608   3.931   0.337   0.407  1.2298  1.7293 -0.3099
20039TIP3    H281609   3.887   0.286   0.543 -0.5138 -0.5069 -1.6502
20040TIP3   OH281610   0.306   0.519  11.640 -0.4696 -0.1051 -0.0526
20040TIP3    H181611   0.343   0.503  11.554  1.5627  1.6290  0.4316
20040TIP3    H281612   0.260   0.603  11.632 -1.5155 -0.6221  0.2327
20041TIP3   OH281613   5.478   2.309   5.429  0.5321 -0.7482  0.1350
20041TIP3    H181614   5.453   2.377   5.491 -0.8626 -0.9698 -0.1529
20041TIP3    H281615   5.490   2.355   5.346 -0.9538 -0.8808 -0.1901
20042TIP3   OH281616   5.479   1.428  17.578  0.0426 -0.0119  0.8370
20042TIP3    H181617   5.508   1.504  17.628  1.0517 -0.3867  0.8493
20042TIP3    H281618   5.553   1.408  17.520 -1.2906  0.7505 -1.2412
20043TIP3   OH281619   0.225   0.134   2.431  0.1080 -0.1720 -0.1408
20043TIP3    H181620   0.268   0.096   2.355 -1.9103 -0.4755 -1.2231
20043TIP3    H281621   0.217   0.061   2.492  1.3476 -0.0335  0.2104
20044TIP3   OH281622   6.352   1.092   1.431 -0.1514  0.4450 -0.5176
20044TIP3    H181623   6.334   1.024   1.497 -2.0766  0.1946 -1.2245
20044TIP3    H281624   6.354   1.174   1.481  0.9226  0.0235  0.1693
20045TIP3   OH281625   5.163   2.990  13.009  0.1915 -0.5707  0.0542
20045TIP3    H181626   5.208   3.073  13.026 -0.6240  0.0559 -0.7520
20045TIP3    H281627   5.148   2.953  13.096 -0.4810  0.7088  0.5103
20046TIP3   OH281628   2.170   0.646   6.297  0.0418  0.4608 -0.4438
20046TIP3    H181629   2.158   0.652   6.202 -1.5380  1.6970 -0.2086
20046TIP3    H281630   2.215   0.727   6.320 -1.4653  1.1883  0.0848
20047TIP3   OH281631   3.155   3.637  15.221  0.3429  0.1647  0.4383
20047TIP3    H181632   3.167   3.579  15.145  0.2707  2.2234 -1.2519
20047TIP3    H281633   3.228   3.617  15.279 -0.1881 -2.2124  0.3714
20048TIP3   OH281634   2.087   5.732   4.593 -0.1009 -0.7383  0.3949
20048TIP3    H181635   2.134   5.815   4.583  2.7418 -2.2125  0.5250
20048TIP3    H281636   2.061   5.730   4.685 -2.7399  1.1469 -0.1877
20049TIP3   OH281637   5.202   6.406   6.342 -0.3688 -0.5301 -0.3115
20049TIP3    H181638   5.249   6.327   6.318  2.1405  0.2431  1.5621
20049TIP3    H281639   5.217   6.415   6.437 -1.6804  1.4869 -0.2213
20050TIP3   OH281640   5.050   1.136   0.100  0.6179  0.1681 -0.7541
20050TIP3    H181641   4.956   1.155   0.098  0.4543 -0.3782  0.5383
20050TIP3    H281642   5.059   1.057   0.046  0.1887 -0.2550 -0.2312
20051TIP3   OH281643   5.785   0.099   0.530 -0.2165  0.4866  0.3082
20051TIP3    H181644   5.705   0.138   0.565 -0.1403  1.7509 -0.8747
20051TIP3    H281645   5.758   0.011   0.503 -0.6433  0.0454  1.9872
20052TIP3   OH281646   5.277   6.631   5.725 -0.3290  0.6936 -0.6807
20052TIP3    H181647   5.298   6.702   5.785  2.8994 -0.3357 -0.4010
20052TIP3    H281648   5.271   6.673   5.639 -3.2778  1.9066 -0.0297
20053TIP3   OH281649   6.024   0.522   6.437  0.2833 -0.0617 -0.2025
20053TIP3    H181650   6.012   0.595   6.497 -1.0845  0.1144 -0.6618
20053TIP3    H281651   6.062   0.562   6.358  0.8897 -0.0926  0.0663
20054TIP3   OH281652   3.237   3.203  12.078  0.6102  0.1160  0.0267
20054TIP3    H181653   3.146   3.213  12.051  0.5068  0.8665  0.6103
20054TIP3    H281654   3.263   3.291  12.107  0.4637 -0.7368  3.0906
20055TIP3   OH281655   3.810   4.456  15.423 -0.2309  0.2609  0.0269
20055TIP3    H181656   3.843   4.468  15.334  0.6788 -0.9151  0.1880
20055TIP3    H281657   3.715   4.443  15.412  0.2380 -3.0694 -1.1284
20056TIP3   OH281658   3.611   0.843  17.422 -1.0265 -0.3493  0.1673
20056TIP3    H181659   3.631   0.758  17.383 -6.7500 -2.3263  0.5754
20056TIP3    H281660   3.608   0.826  17.516  1.2730  1.4262  0.6589
20057TIP3   OH281661   4.698   6.304   0.159  0.0748 -0.0514 -0.1422
20057TIP3    H181662   4.613   6.332   0.125 -0.6299 -0.7866  0.9518
20057TIP3    H281663   4.677   6.241   0.227  1.5251 -0.5516 -0.1216
20058TIP3   OH281664   0.144   2.280  12.631 -0.3386  0.0129  0.0211
20058TIP3    H181665   0.210   2.296  12.564 -0.0399  1.5076  0.6115
20058TIP3    H281666   0.173   2.200  12.675  0.3589 -0.0702 -0.5684
20059TIP3   OH281667   6.288   0.470   0.554 -0.6204 -1.0461  0.2912
20059TIP3    H181668   6.203   0.502   0.522  0.3103  0.8346 -0.4482
20059TIP3    H281669   6.333   0.549   0.584  0.8610 -2.0264  0.7237
20060TIP3   OH281670   5.716   3.082  12.295  0.3459  0.7703 -0.0430
20060TIP3    H181671   5.642   3.034  12.333  0.9148 -1.8825 -2.0180
20060TIP3    H281672   5.736   3.150  12.360 -3.8271  1.7084  0.5452
20061TIP3   OH281673   3.269   0.202   0.056  1.0752  0.2230 -0.0408
20061TIP3    H181674   3.330   0.169  -0.010 -0.2830 -2.3997 -0.1199
20061TIP3    H281675   3.206   0.255   0.007  1.9037  0.9661 -0.3215
20062TIP3   OH281676   6.338   4.246  14.721 -0.1534 -0.0185  0.2590
20062TIP3    H181677   6.306   4.161  14.751  0.6705 -0.7506 -0.8542
20062TIP3    H281678   6.422   4.258  14.766 -1.4274  1.4202  2.3832
20063TIP3   OH281679   6.086   0.212   3.066  0.1044 -0.1999 -0.4325
20063TIP3    H181680   6.044   0.291   3.100  0.4988 -0.3442  0.4035
20063TIP3    H281681   6.049   0.202   2.978  1.4300  1.9552 -1.3395
20064TIP3   OH281682   1.120   2.046   3.196  0.1261  0.5205  0.1924
20064TIP3    H181683   1.073   2.051   3.113 -1.6798 -0.0852  1.1067
20064TIP3    H281684   1.165   1.961   3.193 -2.5665 -1.0694  1.0340
20065TIP3   OH281685   2.701   1.998   4.873 -0.1444 -0.3964  0.3387
20065TIP3    H181686   2.700   2.092   4.890 -1.1942 -0.6939  2.1771
20065TIP3    H281687   2.794   1.976   4.864  0.2416  0.4996  1.9070
20066TIP3   OH281688   4.030   4.659   6.239 -0.0920 -0.4832 -0.2043
20066TIP3    H181689   4.068   4.747   6.237 -0.1347 -0.4646 -0.1863
20066TIP3    H281690   3.949   4.667   6.189 -0.9831 -0.1109  1.2533
20067TIP3   OH281691   6.352   0.460   4.631 -0.3716 -0.4466 -0.2428
20067TIP3    H181692   6.351   0.485   4.724 -1.6209  0.7648 -0.5408
20067TIP3    H281693   6.444   0.444   4.611 -0.1119 -1.0295  1.2777
20068TIP3   OH281694   1.704   3.601  16.374  0.2199  0.0214  0.3753
20068TIP3    H181695   1.753   3.592  16.292  0.3830 -1.1243  0.5795
20068TIP3    H281696   1.613   3.585  16.348  0.4252 -1.8079  0.6124
20069TIP3   OH281697   4.601   0.334  14.226  0.0236 -0.4965  0.0512
20069TIP3    H181698   4.510   0.362  14.219  0.1014 -0.3637 -0.4599
20069TIP3    H281699   4.642   0.363  14.144  0.4248 -0.9158  0.0971
20070TIP3   OH281700   6.316   1.723   3.904  0.1253 -0.4889  0.3923
20070TIP3    H181701   6.392   1.680   3.943 -0.0729 -0.3504  0.9563
20070TIP3    H281702   6.292   1.790   3.969  1.2201  1.3860 -1.0198
20071TIP3   OH281703   4.338   4.875  17.658  0.0381  0.3166 -0.6422
20071TIP3    H181704   4.284   4.810  17.614 -0.5830  1.5472 -1.7794
20071TIP3    H281705   4.289   4.957  17.648  0.1116  0.7411  1.9650
20072TIP3   OH281706   0.001   4.164  16.671 -0.6107  0.2299  0.1954
20072TIP3    H181707   0.058   4.087  16.661  0.5390  1.0303  0.3732
20072TIP3    H281708  -0.075   4.131  16.720  0.1429 -0.6725  0.8006
20073TIP3   OH281709   2.749   4.964   1.290  0.0583  0.5332  0.0585
20073TIP3    H181710   2.733   4.993   1.380 -0.1504 -1.0926  0.5970
20073TIP3    H281711   2.843   4.944   1.287  0.1168  0.8447 -0.1622
20074TIP3   OH281712   4.755   6.318  13.799  0.5400  0.2453 -0.0072
20074TIP3    H181713   4.717   6.326  13.712 -0.6302  1.9362  0.6062
20074TIP3    H281714   4.792   6.230  13.801  0.5318  0.1385 -2.1688
20075TIP3   OH281715   1.864   2.815   4.791  0.8116 -0.2004 -0.3708
20075TIP3    H181716   1.878   2.742   4.731  0.9352 -1.3527  1.0069
20075TIP3    H281717   1.933   2.805   4.857  0.9116  1.2570 -0.2212
20076TIP3   OH281718   5.080   1.607  11.725  0.0068 -0.5281  0.5343
20076TIP3    H181719   5.054   1.516  11.737 -1.2650 -0.1225  0.9396
20076TIP3    H281720   5.049   1.653  11.803  2.4503 -0.0773  1.3510
20077TIP3   OH281721   5.258   2.286  14.120  0.4074  0.2010 -0.6106
20077TIP3    H181722   5.168   2.283  14.155  0.2744  3.5632 -0.3544
20077TIP3    H281723   5.247   2.317  14.030  1.3201  0.8641 -0.4976
20078TIP3   OH281724   5.383   5.090   4.199  0.4352 -0.0702 -0.1921
20078TIP3    H181725   5.444   5.016   4.200 -0.1091 -0.5114  0.9839
20078TIP3    H281726   5.437   5.166   4.222  0.6023 -0.4190  0.5903
20079TIP3   OH281727   1.847   0.268  15.107  0.1380  0.0747  0.5350
20079TIP3    H181728   1.935   0.300  15.126  0.4065 -0.6494  0.5325
20079TIP3    H281729   1.845   0.181  15.145 -0.2515 -0.2964 -0.3232
20080TIP3   OH281730   3.036   1.531   1.993  0.0833  0.1636  0.0520
20080TIP3    H181731   2.942   1.520   2.003 -0.0808  1.5815  0.3583
20080TIP3    H281732   3.046   1.581   1.911  0.4516  1.1824  0.6909
20081TIP3   OH281733   5.330   4.444   3.273  0.0653 -0.5085 -0.2328
20081TIP3    H181734   5.302   4.353   3.262  0.4383 -0.6351 -0.1526
20081TIP3    H281735   5.423   4.438   3.296  0.2080 -0.0900 -0.6671
20082TIP3   OH281736   2.089   3.556   0.789 -0.1804 -0.4894  0.6139
20082TIP3    H181737   2.030   3.560   0.865 -1.3648  1.2398 -0.3458
20082TIP3    H281738   2.031   3.551   0.714  0.9895 -2.4348 -0.2258
20083TIP3   OH281739   4.311   6.055   3.199 -0.0058  0.7157  0.0011
20083TIP3    H181740   4.275   6.038   3.112 -0.8463  1.7561  0.1263
20083TIP3    H281741   4.292   6.147   3.215 -3.9585 -0.3295  3.1006
20084TIP3   OH281742   0.780   2.090   5.537 -0.2895  0.5341 -0.2188
20084TIP3    H181743   0.796   2.052   5.623  0.0326 -0.0303 -0.5189
20084TIP3    H281744   0.858   2.142   5.519  2.2647 -3.4855 -2.3705
20085TIP3   OH281745   3.201   4.518  12.587 -0.2494  0.4036  0.5685
20085TIP3    H181746   3.237   4.598  12.549  0.8789  0.2326  1.2064
20085TIP3    H281747   3.189   4.539  12.680  2.2683 -0.8016  1.2711
20086TIP3   OH281748   1.536   1.147   3.679  0.2102 -0.3984 -0.1289
20086TIP3    H181749   1.590   1.086   3.728  3.6515  2.0800 -0.4379
20086TIP3    H281750   1.571   1.143   3.589 -1.3721  0.0237 -0.7952
20087TIP3   OH281751   0.418   0.491   4.880  0.1157  0.1218 -0.3583
20087TIP3    H181752   0.362   0.414   4.886  0.5092 -0.0397  2.9615
20087TIP3    H281753   0.502   0.462   4.915  0.7511  1.6717 -0.5315
20088TIP3   OH281754   3.871   3.505   3.951  0.1454 -0.5187  0.3472
20088TIP3    H181755   3.912   3.515   4.036  0.5403 -2.4126  0.4017
20088TIP3    H281756   3.826   3.421   3.955  0.5060 -0.8363 -1.4449
20089TIP3   OH281757   2.212   5.130  16.065  0.6537  0.3072  0.1103
20089TIP3    H181758   2.249   5.218  16.053  1.0232  0.1058 -0.2374
20089TIP3    H281759   2.240   5.104  16.153  1.4533  0.1079 -0.1935
20090TIP3   OH281760   5.409   2.292   6.671  0.1868  0.6638  0.6857
20090TIP3    H181761   5.330   2.244   6.696  0.9943 -0.5701  0.9596
20090TIP3    H281762   5.381   2.384   6.668 -0.9307  0.4170  2.1360
20091TIP3   OH281763   4.256   0.757   5.574  0.3077  0.1273  0.5239
20091TIP3    H181764   4.191   0.716   5.630 -1.5245  2.2918  0.1027
20091TIP3    H281765   4.313   0.806   5.634  0.3288 -0.1590  0.7363
20092TIP3   OH281766   2.037   3.730  14.364  0.0112  0.2265 -0.4319
20092TIP3    H181767   2.043   3.822  14.392  0.2864  0.4917 -1.3227
20092TIP3    H281768   1.945   3.718  14.343  0.0262  0.3758 -0.5817
20093TIP3   OH281769   0.390   1.175  16.819 -0.5839  0.2120  0.6010
20093TIP3    H181770   0.342   1.191  16.900 -3.1794  0.6121 -0.8893
20093TIP3    H281771   0.472   1.223  16.829 -0.8969  0.3517  2.9027
20094TIP3   OH281772   2.128   0.483   0.087  0.0268  0.3350  0.0996
20094TIP3    H181773   2.136   0.576   0.111  1.6460  0.2513 -0.0075
20094TIP3    H281774   2.218   0.452   0.083 -0.4519 -2.1386  3.5323
20095TIP3   OH281775   4.456   0.439   2.578  0.6528 -0.2916 -0.1930
20095TIP3    H181776   4.417   0.352   2.571  0.7106 -0.2987 -0.4276
20095TIP3    H281777   4.394   0.488   2.632 -0.1710 -0.0228 -1.3440
20096TIP3   OH281778   6.521   4.876  13.451  0.1126  0.3281  0.2553
20096TIP3    H181779   6.545   4.905  13.363 -0.7509  2.5547  0.6930
20096TIP3    H281780   6.439   4.921  13.470  0.8714  0.8590  2.6517
20097TIP3   OH281781   5.800   5.472   3.848  0.0391  0.2110 -0.1038
20097TIP3    H181782   5.714   5.457   3.888  0.6440  0.2226  1.2738
20097TIP3    H281783   5.850   5.393   3.870  0.9946  1.0567  0.8856
20098TIP3   OH281784   1.608   3.054  12.909  0.7655  0.5323  0.4798
20098TIP3    H181785   1.675   3.017  12.851 -0.2272 -0.0637 -0.3092
20098TIP3    H281786   1.571   2.979  12.955  0.4633  0.8362  0.7437
20099TIP3   OH281787   1.800   1.814   1.551 -0.1233 -0.5699 -0.3234
20099TIP3    H181788   1.843   1.892   1.585  0.3321 -0.9399 -0.0426
20099TIP3    H281789   1.796   1.828   1.456 -0.3592 -0.0509 -0.2380
20100TIP3   OH281790   6.133   6.053   3.047 -0.3138 -0.3654 -0.2265
20100TIP3    H181791   6.197   6.109   3.091 -1.2230  0.9373 -0.4763
20100TIP3    H281792   6.116   5.983   3.110 -1.3712  1.2931  1.4753
20101TIP3   OH281793   1.033   1.675   2.217  0.0882  0.2704  0.0819
20101TIP3    H181794   1.031   1.685   2.122 -3.4617 -2.0432 -0.2635
20101TIP3    H281795   1.071   1.588   2.231 -0.4808  0.1093  0.6763
20102TIP3   OH281796   0.080   6.253  14.521 -0.0581  0.5475  0.3421
20102TIP3    H181797   0.139   6.268  14.595 -0.1807 -0.4512  0.6590
20102TIP3    H281798   0.116   6.307  14.450  1.1284  0.1114  0.5871
20103TIP3   OH281799   5.129   4.036   1.860  0.4127  0.3932 -0.0471
20103TIP3    H181800   5.077   4.116   1.872 -0.1979  0.0773 -0.4893
20103TIP3    H281801   5.109   3.983   1.937  1.5496  1.0423  0.7174
20104TIP3   OH281802   5.765   6.668  14.499 -0.0816 -0.2349 -0.3784
20104TIP3    H181803   5.793   6.580  14.523 -1.9297 -1.0399 -0.9444
20104TIP3    H281804   5.696   6.654  14.434  0.8755  1.6989 -1.9221
20105TIP3   OH281805   0.734   4.680  15.656  0.0708 -0.6151 -0.4032
20105TIP3    H181806   0.777   4.734  15.590  0.3977 -0.0601  0.2512
20105TIP3    H281807   0.683   4.742  15.708 -1.7664 -1.2880 -1.3175
20106TIP3   OH281808   3.896   5.585   3.555 -0.0586  0.2349 -0.2216
20106TIP3    H181809   3.988   5.561   3.540  0.4005  1.5548  0.2852
20106TIP3    H281810   3.846   5.523   3.502  1.0742 -1.1258  0.2394
20107TIP3   OH281811   2.937   4.948   4.366  0.5953 -0.4410  0.4784
20107TIP3    H181812   3.023   4.989   4.367  0.1976  0.5378 -1.1736
20107TIP3    H281813   2.949   4.864   4.412  2.1731  0.0945  1.1059
20108TIP3   OH281814   6.279   3.149  17.479  0.1539  0.5865 -0.0898
20108TIP3    H181815   6.302   3.089  17.407  1.3690  0.1352  0.6380
20108TIP3    H281816   6.363   3.186  17.506 -0.2800  0.6692  1.1657
20109TIP3   OH281817   5.620   1.902   6.331 -0.5045  0.4787  0.6933
20109TIP3    H181818   5.561   1.829   6.313  0.9176 -0.3731 -0.7518
20109TIP3    H281819   5.563   1.979   6.332 -1.9676 -0.5600  1.7781
20110TIP3   OH281820   6.224   5.212  10.673  0.2087 -0.3128 -0.1456
20110TIP3    H181821   6.245   5.203  10.580  1.3672  0.9592 -0.0360
20110TIP3    H281822   6.309   5.217  10.716 -0.3106  0.5020  0.8255
20111TIP3   OH281823   4.485   2.864   3.637 -0.4548  0.1087  0.9512
20111TIP3    H181824   4.393   2.886   3.627 -1.1406 -2.3918  1.0890
20111TIP3    H281825   4.515   2.849   3.547 -0.0522  1.2401  0.8772
20112TIP3   OH281826   3.445   4.407   0.348  0.1854  0.0103 -0.1743
20112TIP3    H181827   3.396   4.348   0.407  0.2385 -0.1196 -0.2612
20112TIP3    H281828   3.403   4.396   0.263 -1.3367  1.8189  0.2653
20113TIP3   OH281829   5.856   5.047  16.253  0.1699  0.5467 -0.0890
20113TIP3    H181830   5.763   5.029  16.240  0.7180 -3.4756  0.1929
20113TIP3    H281831   5.858   5.128  16.304 -2.9971  1.9769 -1.9336
20114TIP3   OH281832   3.253   3.245  15.928  0.3535  0.2452 -0.2492
20114TIP3    H181833   3.300   3.325  15.903  0.7206 -0.1978 -0.9908
20114TIP3    H281834   3.177   3.243  15.869 -0.2857  0.6342  0.5330
20115TIP3   OH281835   0.685   0.632  12.500 -0.0738 -0.0403  0.0852
20115TIP3    H181836   0.750   0.686  12.544  0.2461  0.5760 -1.1061
20115TIP3    H281837   0.639   0.587  12.571 -0.1189  1.5226  1.0872
20116TIP3   OH281838   3.929   5.232  15.004  0.2757  0.2486 -0.0086
20116TIP3    H181839   3.868   5.253  15.075  0.9609 -0.6154  0.8562
20116TIP3    H281840   3.880   5.252  14.924 -0.9919 -0.0379  0.6708
20117TIP3   OH281841   0.914   5.188  12.445  0.5142 -0.1884  0.3193
20117TIP3    H181842   0.997   5.147  12.420  1.1184 -0.0466  1.9489
20117TIP3    H281843   0.861   5.115  12.476  0.5864 -0.0893  0.6769
20118TIP3   OH281844   0.464   5.236   3.703 -0.1052 -0.2760  0.0468
20118TIP3    H181845   0.544   5.258   3.656  0.1058 -0.6256  0.2412
20118TIP3    H281846   0.481   5.263   3.793 -1.0888  1.8756 -0.3386
20119TIP3   OH281847   3.661   6.680   1.245  0.4996 -0.4861 -0.4018
20119TIP3    H181848   3.604   6.739   1.195  1.4085  2.7298  1.9831
20119TIP3    H281849   3.743   6.678   1.195  0.4632  0.3211 -0.5045
20120TIP3   OH281850   3.905   0.677   2.056  0.7220 -0.2199 -0.7190
20120TIP3    H181851   3.994   0.682   2.020  0.7352  1.1723 -0.5156
20120TIP3    H281852   3.908   0.728   2.136  0.0165 -1.1488 -0.0741
20121TIP3   OH281853   0.905   4.738  14.403 -0.3131 -0.1978  0.2154
20121TIP3    H181854   0.940   4.827  14.392  0.0960 -0.2789  0.7905
20121TIP3    H281855   0.983   4.683  14.413 -0.4716 -0.8844 -1.7839
20122TIP3   OH281856   5.853   3.253  13.198  0.0785  0.1657 -0.4982
20122TIP3    H181857   5.942   3.289  13.200 -0.0295  0.4054  0.5640
20122TIP3    H281858   5.855   3.181  13.261  0.2064 -1.5551 -2.3643
20123TIP3   OH281859   1.361   3.635  17.097  0.2472 -0.7265  0.2397
20123TIP3    H181860   1.368   3.549  17.056 -0.0719  0.1647 -1.8184
20123TIP3    H281861   1.287   3.628  17.157  1.9104 -2.6224  2.2152
20124TIP3   OH281862   0.540   4.698  12.370 -0.0218  0.3612 -0.5689
20124TIP3    H181863   0.450   4.697  12.336 -0.4901  2.9377  0.3711
20124TIP3    H281864   0.563   4.791  12.374  1.7037 -0.0763  1.6729
20125TIP3   OH281865   3.857   0.468  13.547 -0.0480  0.1571 -0.1641
20125TIP3    H181866   3.765   0.496  13.539 -0.4713 -0.8100  1.0140
20125TIP3    H281867   3.877   0.430  13.462 -0.5370  0.9429 -0.6468
20126TIP3   OH281868   3.500   4.507   3.459  0.7485 -0.4176  0.1846
20126TIP3    H181869   3.577   4.534   3.408  0.3341  0.8225  0.1816
20126TIP3    H281870   3.446   4.586   3.464 -1.8545 -1.8740 -2.0871
20127TIP3   OH281871   4.564   4.099  12.806 -0.2240 -0.4176  0.1440
20127TIP3    H181872   4.520   4.182  12.794  0.2145 -0.2332 -0.2331
20127TIP3    H281873   4.495   4.033  12.796 -0.4804 -0.1212 -0.0543
20128TIP3   OH281874   2.242   2.448   2.464  0.3893 -0.4995 -0.5095
20128TIP3    H181875   2.295   2.447   2.543 -0.3225 -0.0097 -0.0189
20128TIP3    H281876   2.298   2.490   2.398  0.2863  0.9021  0.2581
20129TIP3   OH281877   2.254   2.233   5.707  0.3868 -0.4701  0.0884
20129TIP3    H181878   2.189   2.281   5.758  1.7029  0.4414  0.9803
20129TIP3    H281879   2.257   2.280   5.623 -0.8489 -1.1865 -0.3893
20130TIP3   OH281880   4.693   2.963  15.357  0.9665  0.0593 -0.5886
20130TIP3    H181881   4.757   2.978  15.287 -0.7371  0.3728 -2.1351
20130TIP3    H281882   4.703   3.038  15.415  1.0839  0.7808 -1.5318
20131TIP3   OH281883   5.235   6.318  11.867  0.0724 -0.5406  0.2681
20131TIP3    H181884   5.245   6.371  11.788 -0.8649  1.0196  1.1394
20131TIP3    H281885   5.310   6.259  11.867  0.2190 -0.4011 -1.6462
20132TIP3   OH281886   4.850   6.547   5.423  0.2738 -0.3732 -0.2169
20132TIP3    H181887   4.823   6.455   5.419 -0.3285 -0.1838 -0.6667
20132TIP3    H281888   4.899   6.553   5.505  0.7788 -1.2118 -0.4429
20133TIP3   OH281889   1.236   2.721  15.306 -0.2269  0.4281  0.2640
20133TIP3    H181890   1.178   2.664  15.358  0.4155 -1.9935 -1.4871
20133TIP3    H281891   1.178   2.789  15.272 -1.4749 -0.3232  0.8009
20134TIP3   OH281892   0.486   3.314   2.162  0.0426  0.3923  0.4071
20134TIP3    H181893   0.534   3.326   2.244  0.8872  1.2262 -0.1952
20134TIP3    H281894   0.399   3.349   2.181 -0.2051 -0.6194  1.3303
20135TIP3   OH281895   5.277   2.552   3.420  0.6546  0.0035 -0.1711
20135TIP3    H181896   5.306   2.485   3.358  0.7448  0.0573 -0.1870
20135TIP3    H281897   5.227   2.614   3.367  0.9051  0.1583 -0.2261
20136TIP3   OH281898   4.942   4.247  16.866  0.5300 -0.2541  0.2980
20136TIP3    H181899   5.022   4.257  16.917 -0.1798 -1.3018  1.7183
20136TIP3    H281900   4.873   4.280  16.925 -0.0338  1.2051 -1.1240
20137TIP3   OH281901   5.307   4.201  15.309 -0.1090 -0.0856  0.1606
20137TIP3    H181902   5.366   4.231  15.378  1.1929 -0.5612 -0.7150
20137TIP3    H281903   5.340   4.114  15.285 -0.8717 -0.1611 -0.6941
20138TIP3   OH281904   1.650   5.040  13.548 -0.1609 -0.3019 -0.3782
20138TIP3    H181905   1.612   5.120  13.511 -0.8269 -0.7127 -0.6010
20138TIP3    H281906   1.662   4.982  13.472  1.4921  0.0242 -0.4154
20139TIP3   OH281907   4.421   1.356  11.376 -0.5184  0.0052 -0.2844
20139TIP3    H181908   4.478   1.422  11.335 -0.8282  0.3169 -0.2185
20139TIP3    H281909   4.349   1.345  11.315 -0.0759 -0.8666 -0.6746
20140TIP3   OH281910   0.178   6.633  16.630  0.0367  0.4443 -0.9509
20140TIP3    H181911   0.137   6.630  16.543 -0.6354 -0.8217 -0.6171
20140TIP3    H281912   0.108   6.606  16.690  0.9656 -0.3824 -0.2051
20141TIP3   OH281913   4.215   5.854  16.880 -0.3991  0.0920 -0.4550
20141TIP3    H181914   4.238   5.843  16.972 -0.3639  0.1027 -0.4623
20141TIP3    H281915   4.201   5.948  16.869  1.1665  0.3096 -0.8139
20142TIP3   OH281916   1.411   6.168   2.388 -0.2175 -0.2211  0.1204
20142TIP3    H181917   1.421   6.075   2.406 -1.2900 -0.5528 -0.8439
20142TIP3    H281918   1.453   6.212   2.462 -0.0957 -1.4664  0.8172
20143TIP3   OH281919   4.597   4.778   6.344  0.1204  0.7786  0.0009
20143TIP3    H181920   4.597   4.693   6.299  0.7595  0.6939  0.1399
20143TIP3    H281921   4.681   4.779   6.390  0.6815  2.0148 -0.9905
20144TIP3   OH281922   4.803   3.576   1.636 -0.0332  0.3988 -0.1701
20144TIP3    H181923   4.743   3.647   1.616 -0.8522 -0.1042  0.4547
20144TIP3    H281924   4.865   3.576   1.563 -1.2634  0.4084 -1.2495
20145TIP3   OH281925   0.137   6.295  16.334  0.0232 -0.0096  0.3716
20145TIP3    H181926   0.175   6.375  16.371  0.1496  0.9713 -1.7468
20145TIP3    H281927   0.118   6.317  16.243  0.1550 -2.4474 -0.3126
20146TIP3   OH281928   3.184   3.958  13.191  0.0334 -0.1250  0.3943
20146TIP3    H181929   3.154   4.027  13.249  0.4180 -0.8899  1.5327
20146TIP3    H281930   3.271   3.987  13.162  1.0313 -0.9640  2.3771
20147TIP3   OH281931   3.500   4.315   2.616  0.2089  0.1706  0.3192
20147TIP3    H181932   3.569   4.326   2.682 -0.1438 -0.0546  0.7269
20147TIP3    H281933   3.426   4.366   2.650 -0.4730 -1.1100  0.8307
20148TIP3   OH281934   0.222   2.509   0.589 -0.3642  0.5673 -0.5646
20148TIP3    H181935   0.280   2.463   0.529 -0.3089 -1.1156  0.7079
20148TIP3    H281936   0.276   2.527   0.666 -1.0225  0.7078 -0.1266
20149TIP3   OH281937   2.889   3.218  12.053 -0.2857 -0.4317 -0.2775
20149TIP3    H181938   2.937   3.186  11.977 -0.2671 -0.6621 -0.1674
20149TIP3    H281939   2.864   3.140  12.101 -1.7204 -0.3937 -0.9049
20150TIP3   OH281940   2.132   4.657   4.804  0.2943  0.0044  0.5500
20150TIP3    H181941   2.073   4.732   4.803 -1.3522 -1.0561 -3.6653
20150TIP3    H281942   2.219   4.695   4.788 -0.6621  1.1506 -2.7594
20151TIP3   OH281943   6.045   4.229  11.584  0.0573 -0.3237 -0.1359
20151TIP3    H181944   6.048   4.215  11.679 -0.6494  0.3548 -0.0026
20151TIP3    H281945   6.087   4.315  11.571  1.6466 -1.1200 -0.6260
20152TIP3   OH281946   3.946   1.721  11.492  0.4777 -0.0562  0.5101
20152TIP3    H181947   3.872   1.660  11.495 -0.6113  1.1697 -0.3578
20152TIP3    H281948   4.003   1.685  11.423 -0.4906  0.2283 -0.4807
20153TIP3   OH281949   1.528   4.125   3.443  0.2398  0.2367 -0.0039
20153TIP3    H181950   1.470   4.051   3.424  2.4258 -1.7361  0.4175
20153TIP3    H281951   1.536   4.171   3.359 -0.9783 -0.1188 -0.3388
20154TIP3   OH281952   5.107   1.173   4.078 -0.0652 -0.3460 -0.1590
20154TIP3    H181953   5.087   1.179   4.171 -1.5399  0.2457 -0.4873
20154TIP3    H281954   5.161   1.094   4.070  1.1482  0.2878  1.3439
20155TIP3   OH281955   0.536   2.830  13.179 -0.6932 -0.4289 -0.9637
20155TIP3    H181956   0.581   2.825  13.095 -0.5346  0.0750 -0.9166
20155TIP3    H281957   0.455   2.878  13.160 -0.5308 -0.0792 -0.7818
20156TIP3   OH281958   2.321   5.835   1.866 -0.4508 -0.0242  0.0957
20156TIP3    H181959   2.323   5.894   1.791 -0.3146 -0.5214 -0.3005
20156TIP3    H281960   2.354   5.887   1.939  1.9471 -0.2769 -0.7263
20157TIP3   OH281961   2.435   6.546  13.290 -0.0584 -0.6346  0.9237
20157TIP3    H181962   2.378   6.469  13.293 -2.4207  0.9687  0.6577
20157TIP3    H281963   2.375   6.620  13.305  1.6296  1.3363 -1.3011
20158TIP3   OH281964   2.384   0.324   2.951 -0.0434 -0.1527  0.1832
20158TIP3    H181965   2.343   0.392   2.898  0.2598  1.8022  2.3277
20158TIP3    H281966   2.353   0.340   3.040  0.3542 -2.6177  0.8472
20159TIP3   OH281967   1.043   4.187   1.885 -0.3719 -0.6053  0.1686
20159TIP3    H181968   1.034   4.282   1.883 -1.3268 -0.6971 -0.9237
20159TIP3    H281969   1.137   4.171   1.874 -0.5074  0.1744 -2.8533
20160TIP3   OH281970   2.707   5.450  16.102  0.9394  0.5108  0.6648
20160TIP3    H181971   2.674   5.427  16.015  2.1328 -0.1885  0.3570
20160TIP3    H281972   2.642   5.416  16.163  0.2035  0.7977  0.0442
20161TIP3   OH281973   2.315   5.073  15.028 -0.3024 -0.4170 -0.2796
20161TIP3    H181974   2.405   5.041  15.038 -0.1426 -0.0522 -0.5151
20161TIP3    H281975   2.312   5.155  15.077  0.6248  1.6330 -3.3238
20162TIP3   OH281976   5.736   4.032   1.957 -0.6062  0.0744  0.0709
20162TIP3    H181977   5.751   4.103   1.896 -3.3482  0.5544 -0.1811
20162TIP3    H281978   5.769   3.954   1.912  1.5591  0.9994 -0.0422
20163TIP3   OH281979   0.490   0.354   5.777  0.0194 -0.1655  0.2486
20163TIP3    H181980   0.491   0.315   5.864  0.3778  2.5004  1.5238
20163TIP3    H281981   0.401   0.387   5.767  0.1699  0.1316 -0.1347
20164TIP3   OH281982   0.422   6.457  12.766 -0.3000  0.4952 -0.7137
20164TIP3    H181983   0.516   6.437  12.772 -0.6862 -1.4640 -0.3250
20164TIP3    H281984   0.406   6.466  12.672  0.0502 -0.4751 -0.8779
20165TIP3   OH281985   6.121   4.345  16.508 -0.9071  0.2725  0.2264
20165TIP3    H181986   6.073   4.263  16.506 -0.9231  0.2844 -1.4410
20165TIP3    H281987   6.171   4.346  16.426  1.2080  0.7024  1.4267
20166TIP3   OH281988   0.078   1.769  11.805 -0.2861  0.4673 -0.4032
20166TIP3    H181989   0.164   1.795  11.772  0.5224  0.2283  1.4046
20166TIP3    H281990   0.097   1.718  11.883 -2.0456 -0.7822 -0.7285
20167TIP3   OH281991   5.458   4.083  13.336 -0.4447 -0.3475  0.4088
20167TIP3    H181992   5.398   4.150  13.370 -0.6720 -1.0671  1.4785
20167TIP3    H281993   5.462   4.100  13.242 -0.2786  1.3332  0.6872
20168TIP3   OH281994   5.959   0.365  10.663 -0.4815  0.2127  0.4944
20168TIP3    H181995   6.046   0.396  10.684  0.6478 -0.0728 -3.0577
20168TIP3    H281996   5.902   0.440  10.679  1.0783  1.7932 -0.9587
20169TIP3   OH281997   2.255   1.576  12.881  0.0591  0.1924  0.2307
20169TIP3    H181998   2.285   1.488  12.905  0.7167  0.2782 -0.2280
20169TIP3    H281999   2.262   1.627  12.961 -0.2510 -0.1591  0.4822
20170TIP3   OH282000   4.267   4.643  15.515 -0.0628 -0.3706 -0.3701
20170TIP3    H182001   4.198   4.709  15.505  1.3187  0.8743 -2.5278
20170TIP3    H282002   4.226   4.574  15.568 -1.9968  1.5786  0.8535
20171TIP3   OH282003   0.785   3.336   2.730  0.1268 -0.2543  0.3250
20171TIP3    H182004   0.709   3.393   2.735  0.1992 -0.2177  1.1262
20171TIP3    H282005   0.781   3.297   2.642 -0.3090  0.4350  0.0342
20172TIP3   OH282006   5.983   4.835  14.628  0.5815 -0.2231 -0.4136
20172TIP3    H182007   6.050   4.886  14.582 -0.2062  0.5499 -0.7187
20172TIP3    H282008   5.955   4.769  14.564 -0.8275  1.1272 -1.2376
20173TIP3   OH282009   1.314   4.206   1.870  0.3412  0.1566  0.1009
20173TIP3    H182010   1.408   4.188   1.869  0.6246  1.5215  0.1100
20173TIP3    H282011   1.307   4.297   1.901 -1.0153 -0.0972  0.6243
20174TIP3   OH282012   5.965   1.313  15.042  0.6780  0.0422  0.2616
20174TIP3    H182013   6.004   1.399  15.062  1.2414  0.4531 -2.2985
20174TIP3    H282014   6.015   1.251  15.096  0.1678  1.2702  2.2721
20175TIP3   OH282015   1.662   4.466   2.662  0.4650  0.0535  0.7151
20175TIP3    H182016   1.756   4.483   2.647  0.0824  0.4752 -1.7397
20175TIP3    H282017   1.656   4.443   2.754  3.3917 -2.6882  0.4091
20176TIP3   OH282018   3.083   4.664   1.033  0.6504  0.1863 -0.5049
20176TIP3    H182019   3.036   4.582   1.045  1.1441  0.0309  0.4785
20176TIP3    H282020   3.073   4.684   0.940 -0.4851 -0.3589 -0.5212
20177TIP3   OH282021   5.210   2.438  12.890  0.1807 -0.8109  0.0382
20177TIP3    H182022   5.218   2.494  12.967 -0.2387 -0.4369 -0.1887
20177TIP3    H282023   5.267   2.363  12.909  1.4477  0.1073 -0.0347
20178TIP3   OH282024   1.191   0.273  15.344  0.0110 -0.6702  0.1759
20178TIP3    H182025   1.108   0.273  15.297 -0.4700  0.4968  0.9800
20178TIP3    H282026   1.250   0.324  15.288 -1.1808  2.7326  1.7482
20179TIP3   OH282027   0.234   2.727   3.574 -0.0363 -0.3432  0.6498
20179TIP3    H182028   0.145   2.738   3.542 -0.3579  1.1491  1.9498
20179TIP3    H282029   0.225   2.704   3.666  0.9167  0.8457  1.0675
20180TIP3   OH282030   2.888   2.700  13.916 -0.3545  0.1235  0.1485
20180TIP3    H182031   2.939   2.780  13.928 -1.1722  0.3732  2.4212
20180TIP3    H282032   2.875   2.666  14.005  1.2584 -3.4165 -0.8055
20181TIP3   OH282033   5.968   0.342   5.886 -0.7986  0.4219 -0.0574
20181TIP3    H182034   5.883   0.375   5.858 -0.2693  0.3969 -1.8360
20181TIP3    H282035   5.980   0.260   5.836 -0.4931 -0.5336  1.5087
20182TIP3   OH282036   4.412   1.744   5.890 -0.0473 -0.1916 -0.2035
20182TIP3    H182037   4.421   1.817   5.950  0.0427  0.5201 -1.0617
20182TIP3    H282038   4.502   1.722   5.864 -0.1565  0.8266 -1.5940
20183TIP3   OH282039   1.116   5.678  15.716  0.1573 -0.2195 -0.7865
20183TIP3    H182040   1.141   5.679  15.809 -1.3303 -0.4353 -0.3613
20183TIP3    H282041   1.147   5.762  15.683 -2.0079  1.2961  0.7200
20184TIP3   OH282042   5.654   2.169   6.140 -0.6695  0.2807  0.2828
20184TIP3    H182043   5.721   2.160   6.207  0.1353 -0.1313 -0.5492
20184TIP3    H282044   5.698   2.215   6.068 -1.0936 -0.5080 -0.5015
20185TIP3   OH282045   3.311   2.485   4.105 -0.0382  0.4044 -0.9026
20185TIP3    H182046   3.255   2.544   4.155  1.1555  0.9803 -0.2102
20185TIP3    H282047   3.288   2.398   4.137 -0.2353  0.6638 -0.3213
20186TIP3   OH282048   2.667   1.139  11.186  0.0039 -0.4252  0.4960
20186TIP3    H182049   2.744   1.133  11.131  0.4016 -2.0805  1.1853
20186TIP3    H282050   2.624   1.053  11.178 -2.2127  0.6805 -0.4761
20187TIP3   OH282051   3.547   4.605  14.827  0.4358  0.0760  0.1923
20187TIP3    H182052   3.451   4.604  14.824  0.4582  0.0094 -0.7765
20187TIP3    H282053   3.572   4.675  14.767  1.0198 -0.5687 -0.3246
20188TIP3   OH282054   0.942   3.160   6.005  0.0086  0.3889 -0.2676
20188TIP3    H182055   0.958   3.070   5.975  0.7230  0.5526 -0.4044
20188TIP3    H282056   0.956   3.156   6.100  0.8229  0.5138 -0.3763
20189TIP3   OH282057   5.749   0.696   4.191 -0.2047 -0.4280  0.0590
20189TIP3    H182058   5.808   0.696   4.116 -0.2210  2.0164 -0.0330
20189TIP3    H282059   5.743   0.604   4.217  0.1254 -1.3074 -2.6525
20190TIP3   OH282060   4.851   0.276   5.648 -0.5663  0.2983  0.6818
20190TIP3    H182061   4.924   0.333   5.621 -1.5752  1.2834 -0.0774
20190TIP3    H282062   4.773   0.328   5.629 -1.5635 -1.5618 -0.5435
20191TIP3   OH282063   4.199   1.009  16.379 -0.1372 -0.3016  0.1806
20191TIP3    H182064   4.231   1.051  16.300  1.0719 -1.6946 -0.1111
20191TIP3    H282065   4.242   0.924  16.380  1.1252  0.2337  3.1123
20192TIP3   OH282066   5.151   1.334   5.719 -0.2439 -0.6840 -0.6094
20192TIP3    H182067   5.056   1.344   5.715 -0.0244  1.9538 -1.1149
20192TIP3    H282068   5.171   1.338   5.813 -0.3667  4.2290 -0.5075
20193TIP3   OH282069   5.815   4.855  17.572  0.3948  0.4777 -0.6168
20193TIP3    H182070   5.856   4.840  17.486  1.6051  1.4963 -0.2411
20193TIP3    H282071   5.729   4.813  17.564  1.0889 -0.8517 -1.7853
20194TIP3   OH282072   6.230   3.020  16.859  0.7775  0.7312 -0.1736
20194TIP3    H182073   6.325   3.017  16.843  0.4593 -1.6215 -2.3235
20194TIP3    H282074   6.204   3.107  16.828  1.8047  0.1092 -3.1846
20195TIP3   OH282075   3.127   3.564  17.492  0.0969 -0.9182 -0.0883
20195TIP3    H182076   3.128   3.642  17.436 -2.2961 -1.7797 -1.4910
20195TIP3    H282077   3.218   3.537  17.498  1.0664  2.1469  0.7672
20196TIP3   OH282078   1.056   0.614   0.171 -0.6032  0.2422  0.2141
20196TIP3    H182079   1.024   0.656   0.092 -0.1014  0.8217  0.3071
20196TIP3    H282080   0.990   0.549   0.193 -1.0110  0.4541 -0.3742
20197TIP3   OH282081   1.282   1.619   4.081  0.1308  0.0283 -0.1686
20197TIP3    H182082   1.209   1.647   4.026  0.1634 -0.3645 -0.4140
20197TIP3    H282083   1.245   1.554   4.139  0.1841  0.1588  0.0119
20198TIP3   OH282084   5.692   4.316  14.779 -0.2992 -0.5686 -0.1767
20198TIP3    H182085   5.698   4.243  14.717 -0.6826 -0.7712  0.0162
20198TIP3    H282086   5.603   4.309  14.814 -0.6107  0.4707 -0.7393
20199TIP3   OH282087   4.403   2.841  14.080 -0.3280  0.4688 -0.4846
20199TIP3    H182088   4.446   2.857  14.164  0.1129 -0.4947 -0.5097
20199TIP3    H282089   4.324   2.792  14.102  1.4030 -2.7854 -0.7767
20200TIP3   OH282090   3.272   6.336  17.128  0.1538 -0.5717 -0.3099
20200TIP3    H182091   3.265   6.353  17.034 -0.0514 -0.8646 -0.3488
20200TIP3    H282092   3.184   6.310  17.154 -0.0274  0.4597  0.1605
20201TIP3   OH282093   0.765   2.927   1.214 -0.7473  0.2618 -0.5199
20201TIP3    H182094   0.773   3.022   1.205 -1.9288  0.4865  0.4360
20201TIP3    H282095   0.718   2.899   1.135  0.9824  0.2049 -1.5914
20202TIP3   OH282096   4.458   2.494   1.824  0.3254 -0.3318  0.6615
20202TIP3    H182097   4.422   2.426   1.767 -0.0691 -1.7007  2.4647
20202TIP3    H282098   4.388   2.558   1.833  0.4992  0.0626 -0.5932
20203TIP3   OH282099   6.568   4.207   3.833 -0.1732 -0.3509  1.1126
20203TIP3    H182100   6.602   4.157   3.758  0.2971  0.4270  0.7987
20203TIP3    H282101   6.627   4.185   3.905  0.3757  0.1903  0.8312
20204TIP3   OH282102   2.156   3.621   1.704  0.0454  0.2590  0.6875
20204TIP3    H182103   2.148   3.717   1.697  1.2795  0.3026 -0.8859
20204TIP3    H282104   2.085   3.587   1.650  0.5656  0.3481 -0.0789
20205TIP3   OH282105   6.572   2.864  12.820  0.1548  0.5796  0.1828
20205TIP3    H182106   6.523   2.875  12.902 -0.4044  0.1868 -0.0888
20205TIP3    H282107   6.661   2.889  12.842 -0.0406  0.7152  0.8515
20206TIP3   OH282108   4.493   4.442   3.941 -0.1120  0.8588 -0.5702
20206TIP3    H182109   4.465   4.369   3.996  1.3977  0.9503  0.3606
20206TIP3    H282110   4.412   4.471   3.898 -1.1057 -0.0573  0.5932
20207TIP3   OH282111   4.040   2.584   3.514  0.0188 -0.1375  0.3133
20207TIP3    H182112   4.106   2.554   3.451  0.2177  0.3908  0.2694
20207TIP3    H282113   3.973   2.515   3.512  0.3538 -0.4618  0.0350
20208TIP3   OH282114   1.844   5.600   3.061  0.1263  0.4702  0.0456
20208TIP3    H182115   1.811   5.689   3.074  0.2610  1.0056 -2.6931
20208TIP3    H282116   1.800   5.548   3.128 -2.9592  1.9340 -0.6592
20209TIP3   OH282117   5.394   5.603  10.955 -0.2971 -0.0701  0.1425
20209TIP3    H182118   5.326   5.548  10.916  1.0239 -1.4703 -0.2704
20209TIP3    H282119   5.404   5.676  10.894 -1.0761 -0.1035 -0.0371
20210TIP3   OH282120   2.898   4.655   0.369 -0.0449  0.4645  0.1893
20210TIP3    H182121   2.957   4.637   0.441  0.6421  0.1830 -0.4324
20210TIP3    H282122   2.905   4.579   0.312 -2.4239 -0.4414  1.0027
20211TIP3   OH282123   6.647   3.766  12.601 -0.1048  0.5597  0.6545
20211TIP3    H182124   6.586   3.693  12.593 -2.3122  2.3821 -0.5190
20211TIP3    H282125   6.627   3.806  12.686  0.2491  0.5083  0.7642
20212TIP3   OH282126   5.885   2.901   5.519 -0.4577 -0.7044  0.3878
20212TIP3    H182127   5.936   2.827   5.486 -0.3284 -0.1346 -0.7393
20212TIP3    H282128   5.876   2.959   5.443 -3.1313 -0.9770  0.3997
20213TIP3   OH282129   3.576   0.893  15.571 -0.3836  0.1386 -0.0835
20213TIP3    H182130   3.579   0.838  15.649 -0.9317  1.5487  0.9764
20213TIP3    H282131   3.598   0.834  15.499  1.6780 -0.8892  1.2921
20214TIP3   OH282132   5.894   0.564   3.705 -0.0419 -0.3285 -0.7816
20214TIP3    H182133   5.957   0.511   3.754 -0.8984 -0.9265 -0.3009
20214TIP3    H282134   5.816   0.508   3.699 -0.6434  0.5305 -1.0678
20215TIP3   OH282135   5.757   1.910  14.207  0.3215  0.1133 -1.3757
20215TIP3    H182136   5.815   1.876  14.275  1.1044  1.5864 -1.2692
20215TIP3    H282137   5.751   1.838  14.143  0.7701 -0.7377 -0.4855
20216TIP3   OH282138   4.706   4.516   1.364  0.2999  0.0714 -0.4610
20216TIP3    H182139   4.653   4.527   1.285 -1.2190 -3.3918 -0.1298
20216TIP3    H282140   4.686   4.427   1.393  2.1974  0.5743  2.8308
20217TIP3   OH282141   6.207   0.840  13.339  0.1291  0.4550  0.1522
20217TIP3    H182142   6.301   0.823  13.337  0.1960  0.6348 -2.5736
20217TIP3    H282143   6.167   0.756  13.316 -0.4531  0.1836  2.0477
20218TIP3   OH282144   1.865   3.530  13.955 -0.0554 -0.1288  0.2788
20218TIP3    H182145   1.859   3.619  13.920 -1.8030 -0.3205 -0.0178
20218TIP3    H282146   1.774   3.503  13.968  0.4234 -1.9245  0.2365
20219TIP3   OH282147   2.030   3.260  16.654  0.4047 -0.4714  0.1586
20219TIP3    H182148   2.119   3.224  16.654  0.8893  0.6968  0.3149
20219TIP3    H282149   2.015   3.285  16.563  0.3192 -0.4556  0.1771
20220TIP3   OH282150   1.322   0.772   6.467 -0.1223  0.1394  0.4817
20220TIP3    H182151   1.227   0.755   6.463  0.0572 -1.0594  0.9195
20220TIP3    H282152   1.335   0.810   6.554 -0.4471  2.1667 -0.2974
20221TIP3   OH282153   0.020   2.704  15.728  0.2821  0.4041 -0.1075
20221TIP3    H182154   0.036   2.756  15.807  0.1361 -0.3725  0.4408
20221TIP3    H282155   0.010   2.614  15.759 -1.4902  0.3131 -0.8048
20222TIP3   OH282156   1.267   6.662  11.609 -0.7162 -0.3904 -0.5847
20222TIP3    H182157   1.297   6.742  11.566 -1.8476  0.0948 -0.5051
20222TIP3    H282158   1.284   6.677  11.703  1.8793 -1.5034 -0.7675
20223TIP3   OH282159   3.169   0.812  16.949 -0.1360  1.1488  0.2302
20223TIP3    H182160   3.096   0.874  16.944 -2.5540 -1.2605  2.2370
20223TIP3    H282161   3.188   0.806  17.043  0.7649 -0.2692 -0.0170
20224TIP3   OH282162   3.424   6.620  14.425  0.1082 -0.2708  0.6734
20224TIP3    H182163   3.332   6.604  14.402  0.4575 -0.2931 -0.8094
20224TIP3    H282164   3.426   6.713  14.448  0.0695  0.2811 -1.3608
20225TIP3   OH282165   4.145   5.147  16.457 -0.1092 -0.5299  0.3961
20225TIP3    H182166   4.149   5.242  16.470  2.0911 -0.5827  0.6402
20225TIP3    H282167   4.053   5.125  16.464 -0.4932  1.3552  2.2340
20226TIP3   OH282168   6.278   2.706  11.299  0.2624 -0.0493  0.1322
20226TIP3    H182169   6.212   2.638  11.286 -0.1942  0.6117 -1.2892
20226TIP3    H282170   6.313   2.721  11.211  2.4530 -0.4924  0.8569
20227TIP3   OH282171   0.706   0.111  13.364  0.9471  0.0566  0.4611
20227TIP3    H182172   0.754   0.161  13.298  3.4210  0.8830  2.6999
20227TIP3    H282173   0.623   0.158  13.374  0.5913  0.0081 -1.8337
20228TIP3   OH282174   5.341   5.896   3.794 -0.1181  0.9663 -0.2665
20228TIP3    H182175   5.277   5.826   3.784  0.8147 -0.1666  1.1082
20228TIP3    H282176   5.422   5.859   3.758  0.1458  1.7440 -0.4801
20229TIP3   OH282177   6.387   2.858  14.254  0.6382  1.1273  0.4204
20229TIP3    H182178   6.423   2.934  14.208  0.6918  0.7025 -0.2553
20229TIP3    H282179   6.312   2.831  14.201  0.2396  1.0843  1.0008
20230TIP3   OH282180   3.061   4.940   0.473 -0.4314  0.2506 -0.5427
20230TIP3    H182181   3.102   5.009   0.421  1.4683  0.7445  1.4562
20230TIP3    H282182   3.040   4.982   0.557  0.3137 -1.4364  0.5504
20231TIP3   OH282183   3.318   5.338  13.292 -0.3509 -0.0727  0.3408
20231TIP3    H182184   3.387   5.349  13.226  0.1260 -0.6673  0.7310
20231TIP3    H282185   3.284   5.250  13.278 -1.7910  0.5926 -0.5408
20232TIP3   OH282186   6.000   5.665   4.837 -0.7006  0.2941  0.1934
20232TIP3    H182187   5.942   5.630   4.905 -0.6721 -0.7604 -0.2956
20232TIP3    H282188   6.083   5.679   4.882 -1.0926  1.0401  0.7102
20233TIP3   OH282189   6.600   0.029   5.201  0.0236  0.4788  0.2855
20233TIP3    H182190   6.689   0.058   5.183  0.0260  0.0312 -0.4404
20233TIP3    H282191   6.556   0.032   5.116  0.5584 -3.5275 -0.3382
20234TIP3   OH282192   2.032   1.946  17.191 -1.0552 -0.2932 -0.4869
20234TIP3    H182193   1.965   1.951  17.260  0.0542  0.2780  0.5793
20234TIP3    H282194   2.051   1.853  17.182  0.6654 -0.2612  1.8986
20235LIG      S82195   2.781   4.011   8.024 -0.5566  0.2873 -0.0643
20235LIG     F182196   3.568   4.194   9.351 -0.0573  0.0385  0.7876
20235LIG     F282197   3.518   4.357   9.474  0.5881  0.7707 -0.4030
20235LIG      O82198   3.357   4.379   9.237 -1.0499  0.3683  0.3790
20235LIG     N182199   2.732   4.018   8.352 -0.4810  0.3410  0.5603
20235LIG     N282200   2.703   4.377   8.952 -0.2513 -0.2358  0.0721
20235LIG     N382201   2.586   4.210   8.989  0.3771  0.1835 -0.6164
20235LIG     N482202   2.627   4.315   9.051 -0.2595  0.1901  0.3768
20235LIG     N582203   3.443   4.498   9.065  0.3336  0.2231  0.2489
20235LIG     N682204   3.547   4.457   9.133 -0.0701 -0.2150 -1.2382
20235LIG     C182205   2.708   4.133   8.270  0.6468  0.7931  0.2184
20235LIG     C282206   2.837   3.927   8.294  0.0083 -0.4684 -0.3840
20235LIG     C382207   2.609   3.953   8.405 -0.4681 -0.4488 -0.7383
20235LIG     C482208   2.653   4.096   8.128  0.1990 -0.5729 -0.7600
20235LIG     C582209   2.807   3.883   8.151  0.6294 -0.5692  0.2192
20235LIG     C682210   2.607   3.955   8.560 -0.4438 -0.0647  1.1579
20235LIG     C782211   2.630   4.072   8.637 -0.2271  0.0771 -0.8924
20235LIG     C882212   2.578   3.835   8.626  0.0008 -0.1588 -0.4778
20235LIG     C982213   2.612   4.069   8.779 -0.0315  0.4917 -0.4898
20235LIG    C1082214   2.638   4.191   8.863  0.1449 -0.2855  0.2965
20235LIG    C1182215   2.554   3.837   8.764 -0.0691  0.0618 -0.3442
20235LIG    C1282216   2.570   3.950   8.843 -0.8294  0.0940  0.4481
20235LIG    C1382217   2.777   4.500   8.980  0.5233  0.8320 -0.7618
20235LIG    C1482218   2.711   4.302   8.838 -0.2750  0.4733 -0.2464
20235LIG    C1582219   2.922   4.479   9.010  0.7227  0.0947 -0.4911
20235LIG    C1682220   2.957   4.447   9.141 -0.3951 -0.7976 -0.8098
20235LIG    C1782221   3.013   4.513   8.919 -0.3006  0.6586 -0.6407
20235LIG    C1882222   3.193   4.479   9.086  0.2674 -0.3088  0.2183
20235LIG    C1982223   3.089   4.446   9.178 -0.9612  0.1547  0.7713
20235LIG    C2082224   3.151   4.506   8.951  0.2207 -0.0050  0.2058
20235LIG    C2182225   3.329   4.453   9.127  0.2374  0.2962  0.5831
20235LIG    C2282226   3.495   4.392   9.239  0.1833  0.6336 -0.2630
20235LIG    C2382227   3.576   4.328   9.352 -0.2922  0.1217 -0.1940
20235LIG     H182228   2.793   4.202   8.251  2.0785 -0.5629  1.3901
20235LIG     H282229   2.628   4.191   8.321 -0.5025 -1.0734  0.6333
20235LIG     H382230   2.845   3.836   8.357  1.4208 -2.1150 -2.8082
20235LIG     H482231   2.932   3.983   8.303  0.7427 -1.7950  0.3621
20235LIG     H582232   2.606   3.845   8.379  0.5556 -1.0527  1.3822
20235LIG     H682233   2.507   3.988   8.380 -0.4057  0.6179  0.4303
20235LIG     H782234   2.567   4.026   8.137 -0.0097 -0.2219  0.0640
20235LIG     H882235   2.618   4.191   8.084 -2.1884 -0.5471  1.0348
20235LIG     H982236   2.887   3.816   8.112 -0.3780 -0.2784 -2.5952
20235LIG    H1082237   2.717   3.819   8.153  1.3401 -1.6677 -1.1238
20235LIG    H1182238   2.659   4.169   8.599 -0.3487  0.9437  1.1090
20235LIG    H1282239   2.560   3.744   8.571 -1.9740  0.2580 -0.5961
20235LIG    H1382240   2.528   3.957   8.942  0.1098 -2.0575  1.0695
20235LIG    H1482241   2.527   3.743   8.811 -0.3808 -0.4478 -1.5176
20235LIG    H1582242   2.731   4.539   9.074 -1.1048 -1.5907 -0.4703
20235LIG    H1682243   2.759   4.565   8.892 -1.0796  0.6712 -0.5744
20235LIG    H1782244   2.777   4.323   8.754 -1.8043  1.1493 -1.3354
20235LIG    H1882245   2.891   4.447   9.227  1.3312 -1.7959  0.5873
20235LIG    H1982246   2.988   4.535   8.816 -1.0295  1.5300 -0.2938
20235LIG    H2082247   3.114   4.412   9.278  0.8189 -0.6330  0.1129
20235LIG    H2182248   3.223   4.540   8.878 -1.3837  1.8132 -0.6243
20235LIG    H2282249   3.677   4.368   9.350 -0.8325  1.5605  0.2509
   6.73790   6.73790  17.68566
